<event>
 7    1  0.2732144E-009  0.9516562E+02  0.7561462E-02  0.1290804E+00
          3   -1    0    0  501    0  0.00000000000E+00  0.00000000000E+00  0.26787954853E+03  0.26787954853E+03  0.00000000000E+00 0. -1.
         -3   -1    0    0    0  501 -0.00000000000E+00 -0.00000000000E+00 -0.56784605011E+02  0.56784605011E+02  0.00000000000E+00 0.  1.
         25    2    1    2    0    0  0.17704590145E+02  0.24252937539E+02  0.18578763361E+03  0.22597377078E+03  0.12508174440E+03 0.  0.
          5    1    3    3  502    0  0.39557762641E+02 -0.24054403555E+02  0.16047547532E+03  0.16707268327E+03  0.41800000000E+01 0. -1.
         -5    1    3    3    0  502 -0.21853172496E+02  0.48307341095E+02  0.25312158292E+02  0.58901087504E+02  0.41800000000E+01 0. -1.
        -11    1    1    2    0    0  0.32629999598E+02 -0.23690400189E+02  0.26651309974E+02  0.48334710698E+02  0.00000000000E+00 0.  1.
         11    1    1    2    0    0 -0.50334589744E+02 -0.56253735049E+00 -0.13440000729E+01  0.50355672065E+02  0.00000000000E+00 0. -1.
</event>
<event>
 7    1  0.2732144E-009  0.8714648E+02  0.7561462E-02  0.1309913E+00
          3   -1    0    0  501    0  0.00000000000E+00  0.00000000000E+00  0.66460098290E+03  0.66460098290E+03  0.00000000000E+00 0. -1.
         -3   -1    0    0    0  501 -0.00000000000E+00 -0.00000000000E+00 -0.25662650434E+02  0.25662650434E+02  0.00000000000E+00 0.  1.
         25    2    1    2    0    0  0.12493861015E+02 -0.38971229525E+01  0.42432456098E+03  0.44257220875E+03  0.12509013862E+03 0.  0.
          5    1    3    3  502    0 -0.40820253199E+02 -0.27566933254E+02  0.31242816487E+03  0.31631481073E+03  0.41800000000E+01 0. -1.
         -5    1    3    3    0  502  0.53314114214E+02  0.23669810301E+02  0.11189639611E+03  0.12625739802E+03  0.41800000000E+01 0. -1.
        -11    1    1    2    0    0 -0.36909450420E+02  0.14634670167E+02  0.21728751332E+03  0.22088536517E+03  0.00000000000E+00 0. -1.
         11    1    1    2    0    0  0.24415589404E+02 -0.10737547215E+02 -0.26737418274E+01  0.26806059418E+02  0.00000000000E+00 0.  1.
</event>
<event>
 7    1  0.2732144E-009  0.1163680E+03  0.7561462E-02  0.1249212E+00
         -2   -1    0    0    0  501 -0.00000000000E+00  0.00000000000E+00  0.50506632234E+02  0.50506632234E+02  0.00000000000E+00 0.  1.
          2   -1    0    0  501    0  0.00000000000E+00 -0.00000000000E+00 -0.53735647820E+03  0.53735647820E+03  0.00000000000E+00 0. -1.
         25    2    1    2    0    0  0.70536643669E+02 -0.72823042709E+02 -0.39021236963E+03  0.42212626079E+03  0.12508506301E+03 0.  0.
          5    1    3    3  502    0  0.48423817252E+02 -0.89558832325E+02 -0.37807746841E+03  0.39156825082E+03  0.41800000000E+01 0. -1.
         -5    1    3    3    0  502  0.22112826417E+02  0.16735789617E+02 -0.12134901220E+02  0.30558009979E+02  0.41800000000E+01 0. -1.
        -11    1    1    2    0    0 -0.60359163926E+02  0.52219527335E+02 -0.11241144728E+03  0.13786385017E+03  0.00000000000E+00 0. -1.
         11    1    1    2    0    0 -0.10177479743E+02  0.20603515374E+02  0.15773970949E+02  0.27872999465E+02  0.00000000000E+00 0.  1.
</event>
<event>
 7    1  0.2732144E-009  0.1122615E+03  0.7561462E-02  0.1256438E+00
          2   -1    0    0  501    0  0.00000000000E+00  0.00000000000E+00  0.95659238765E+02  0.95659238765E+02  0.00000000000E+00 0. -1.
         -2   -1    0    0    0  501 -0.00000000000E+00 -0.00000000000E+00 -0.19401249501E+03  0.19401249501E+03  0.00000000000E+00 0.  1.
         25    2    1    2    0    0 -0.16804419525E+02  0.74932960083E+02 -0.23012579460E+02  0.14857188716E+03  0.12508672919E+03 0.  0.
          5    1    3    3  502    0 -0.17120132980E+02  0.93929396319E+02 -0.55639944329E+02  0.11058528949E+03  0.41800000000E+01 0.  1.
         -5    1    3    3    0  502  0.31571345465E+00 -0.18996436236E+02  0.32627364870E+02  0.37986597676E+02  0.41800000000E+01 0.  1.
        -11    1    1    2    0    0  0.12405444850E+02 -0.91511716660E+02 -0.81203856400E+02  0.12297298745E+03  0.00000000000E+00 0.  1.
         11    1    1    2    0    0  0.43989746749E+01  0.16578756577E+02  0.58631796155E+01  0.18126859160E+02  0.00000000000E+00 0. -1.
</event>
<event>
 7    1  0.2732144E-009  0.1574462E+03  0.7561462E-02  0.1191610E+00
         -1   -1    0    0    0  501 -0.00000000000E+00  0.00000000000E+00  0.62459169074E+02  0.62459169074E+02  0.00000000000E+00 0.  1.
          1   -1    0    0  501    0  0.00000000000E+00 -0.00000000000E+00 -0.51610125070E+03  0.51610125070E+03  0.00000000000E+00 0. -1.
         25    2    1    2    0    0 -0.10412105720E+03  0.94540977641E+02 -0.23217573352E+03  0.29888797318E+03  0.12509699545E+03 0.  0.
          5    1    3    3  502    0 -0.94450733712E+01 -0.17628101938E+02 -0.97567761820E+02  0.99684000399E+02  0.41800000000E+01 0. -1.
         -5    1    3    3    0  502 -0.94675983831E+02  0.11216907958E+03 -0.13460797170E+03  0.19920397278E+03  0.41800000000E+01 0. -1.
        -11    1    1    2    0    0  0.79774351387E+02 -0.43021443214E+02 -0.60642078088E+02  0.10905160865E+03  0.00000000000E+00 0.  1.
         11    1    1    2    0    0  0.24346705816E+02 -0.51519534427E+02 -0.16082427002E+03  0.17062083794E+03  0.00000000000E+00 0. -1.
</event>
<event>
 7    1  0.2732144E-009  0.1024089E+03  0.7561462E-02  0.1275310E+00
         -2   -1    0    0    0  501 -0.00000000000E+00  0.00000000000E+00  0.64723152712E+02  0.64723152712E+02  0.00000000000E+00 0.  1.
          2   -1    0    0  501    0  0.00000000000E+00 -0.00000000000E+00 -0.28778380028E+03  0.28778380028E+03  0.00000000000E+00 0. -1.
         25    2    1    2    0    0  0.69344137221E+02 -0.34314808805E+02 -0.82901232276E+02  0.16883956066E+03  0.12509223582E+03 0.  0.
          5    1    3    3  502    0  0.69153035239E+02 -0.15649071409E+02 -0.11282792488E+03  0.13332159897E+03  0.41800000000E+01 0.  1.
         -5    1    3    3    0  502  0.19110198189E+00 -0.18665737396E+02  0.29926692605E+02  0.35517961693E+02  0.41800000000E+01 0.  1.
        -11    1    1    2    0    0 -0.45053903525E+02 -0.24318740627E+02 -0.86691732436E+02  0.10068123877E+03  0.00000000000E+00 0.  1.
         11    1    1    2    0    0 -0.24290233696E+02  0.58633549432E+02 -0.53467682859E+02  0.82986153557E+02  0.00000000000E+00 0. -1.
</event>
<event>
 7    1  0.2732144E-009  0.1381712E+03  0.7561462E-02  0.1215811E+00
         -1   -1    0    0    0  501 -0.00000000000E+00  0.00000000000E+00  0.81040302400E+02  0.81040302400E+02  0.00000000000E+00 0.  1.
          1   -1    0    0  501    0  0.00000000000E+00 -0.00000000000E+00 -0.28291677808E+03  0.28291677808E+03  0.00000000000E+00 0. -1.
         25    2    1    2    0    0 -0.16531425544E+02 -0.10039000510E+03 -0.14883241558E+03  0.21943077118E+03  0.12508930513E+03 0.  0.
          5    1    3    3  502    0  0.48348157884E+02 -0.34311135009E+02 -0.95501849871E+02  0.11248499493E+03  0.41800000000E+01 0.  1.
         -5    1    3    3    0  502 -0.64879583428E+02 -0.66078870090E+02 -0.53330565707E+02  0.10694577625E+03  0.41800000000E+01 0.  1.
        -11    1    1    2    0    0  0.43877009784E+02  0.75013782206E+02 -0.61261485357E+02  0.10632605088E+03  0.00000000000E+00 0.  1.
         11    1    1    2    0    0 -0.27345584240E+02  0.25376222893E+02  0.82174252505E+01  0.38200258422E+02  0.00000000000E+00 0. -1.
</event>
<event>
 7    1  0.2732144E-009  0.8920618E+02  0.7561462E-02  0.1304786E+00
         -2   -1    0    0    0  501 -0.00000000000E+00  0.00000000000E+00  0.28142990242E+02  0.28142990242E+02  0.00000000000E+00 0.  1.
          2   -1    0    0  501    0  0.00000000000E+00 -0.00000000000E+00 -0.45548516267E+03  0.45548516267E+03  0.00000000000E+00 0. -1.
         25    2    1    2    0    0 -0.13255748862E+02  0.17921438402E+02 -0.29533167586E+03  0.32150617721E+03  0.12509408614E+03 0.  0.
          5    1    3    3  502    0 -0.51926095479E+02  0.40825742967E+02 -0.92668296947E+02  0.11387689116E+03  0.41800000000E+01 0.  1.
         -5    1    3    3    0  502  0.38670346616E+02 -0.22904304564E+02 -0.20266337891E+03  0.20762928605E+03  0.41800000000E+01 0.  1.
        -11    1    1    2    0    0  0.27658313057E+02  0.14777168668E+02 -0.70330404112E+01  0.32137371586E+02  0.00000000000E+00 0.  1.
         11    1    1    2    0    0 -0.14402564195E+02 -0.32698607071E+02 -0.12497745616E+03  0.12998460412E+03  0.00000000000E+00 0. -1.
</event>
<event>
 7    1  0.2732144E-009  0.1142721E+03  0.7561462E-02  0.1252857E+00
          1   -1    0    0  501    0  0.00000000000E+00  0.00000000000E+00  0.43975698988E+03  0.43975698988E+03  0.00000000000E+00 0. -1.
         -1   -1    0    0    0  501 -0.00000000000E+00 -0.00000000000E+00 -0.37616707013E+02  0.37616707013E+02  0.00000000000E+00 0.  1.
         25    2    1    2    0    0  0.50503836877E+02  0.30082132863E+02  0.28974994970E+03  0.32102725044E+03  0.12509152616E+03 0.  0.
          5    1    3    3  502    0  0.54272865842E+02  0.74676272721E+02  0.17754732969E+03  0.20015647967E+03  0.41800000000E+01 0. -1.
         -5    1    3    3    0  502 -0.37690289646E+01 -0.44594139859E+02  0.11220262001E+03  0.12087077077E+03  0.41800000000E+01 0. -1.
        -11    1    1    2    0    0 -0.19998781076E+02  0.22681677741E+02  0.20698141015E+01  0.30309963379E+02  0.00000000000E+00 0.  1.
         11    1    1    2    0    0 -0.30505055802E+02 -0.52763810603E+02  0.11032051906E+03  0.12603648307E+03  0.00000000000E+00 0. -1.
</event>
<event>
 7    1  0.2732144E-009  0.1328368E+03  0.7561462E-02  0.1223306E+00
          1   -1    0    0  501    0  0.00000000000E+00  0.00000000000E+00  0.10027832277E+04  0.10027832277E+04  0.00000000000E+00 0. -1.
         -1   -1    0    0    0  501 -0.00000000000E+00 -0.00000000000E+00 -0.22003710582E+02  0.22003710582E+02  0.00000000000E+00 0.  1.
         25    2    1    2    0    0 -0.29020799919E+02 -0.97547880912E+02  0.47392564822E+03  0.50061046900E+03  0.12509007047E+03 0.  0.
          5    1    3    3  502    0 -0.63539049963E+02 -0.60886044678E+02  0.16006879311E+03  0.18271237571E+03  0.41800000000E+01 0.  1.
         -5    1    3    3    0  502  0.34518250044E+02 -0.36661836234E+02  0.31385685511E+03  0.31789809329E+03  0.41800000000E+01 0.  1.
        -11    1    1    2    0    0 -0.25840640375E+02  0.23817274015E+02  0.77477336287E+02  0.85074901556E+02  0.00000000000E+00 0.  1.
         11    1    1    2    0    0  0.54861440294E+02  0.73730606897E+02  0.42937653258E+03  0.43910156770E+03  0.00000000000E+00 0. -1.
</event>
<event>
 7    1  0.2732144E-009  0.9638600E+02  0.7561462E-02  0.1288085E+00
          1   -1    0    0  501    0  0.00000000000E+00  0.00000000000E+00  0.11226179881E+04  0.11226179881E+04  0.00000000000E+00 0. -1.
         -1   -1    0    0    0  501 -0.00000000000E+00 -0.00000000000E+00 -0.10873046839E+02  0.10873046839E+02  0.00000000000E+00 0.  1.
         25    2    1    2    0    0 -0.13718287315E+01  0.36192879412E+01  0.70929336888E+03  0.72024912841E+03  0.12508694045E+03 0.  0.
          5    1    3    3  502    0 -0.39423134350E+02  0.34512953077E+02  0.15284008467E+03  0.16162577558E+03  0.41800000000E+01 0.  1.
         -5    1    3    3    0  502  0.38051305618E+02 -0.30893665136E+02  0.55645328422E+03  0.55862335282E+03  0.41800000000E+01 0.  1.
        -11    1    1    2    0    0  0.45625192427E+02  0.51155885752E+01  0.25298737575E+03  0.25711950474E+03  0.00000000000E+00 0. -1.
         11    1    1    2    0    0 -0.44253363696E+02 -0.87348765165E+01  0.14946419660E+03  0.15612240176E+03  0.00000000000E+00 0.  1.
</event>
<event>
 7    1  0.2732144E-009  0.9419877E+02  0.7561462E-02  0.1292991E+00
          2   -1    0    0  501    0  0.00000000000E+00  0.00000000000E+00  0.15225840734E+03  0.15225840734E+03  0.00000000000E+00 0. -1.
         -2   -1    0    0    0  501 -0.00000000000E+00 -0.00000000000E+00 -0.94211753160E+02  0.94211753160E+02  0.00000000000E+00 0.  1.
         25    2    1    2    0    0  0.70810669917E+00  0.34610258742E+02  0.71023289099E+02  0.14795518082E+03  0.12509219205E+03 0.  0.
          5    1    3    3  502    0  0.53150947498E+02  0.12471480985E+02 -0.25786543249E+01  0.54814988060E+02  0.41800000000E+01 0.  1.
         -5    1    3    3    0  502 -0.52442840799E+02  0.22138777757E+02  0.73601943424E+02  0.93140192760E+02  0.41800000000E+01 0.  1.
        -11    1    1    2    0    0 -0.13186407361E+02 -0.52847637922E+02 -0.37021244706E+02  0.65858383921E+02  0.00000000000E+00 0.  1.
         11    1    1    2    0    0  0.12478300662E+02  0.18237379180E+02  0.24044609790E+02  0.32656595762E+02  0.00000000000E+00 0. -1.
</event>
<event>
 7    1  0.2732144E-009  0.7071639E+02  0.7561462E-02  0.1357674E+00
          1   -1    0    0  501    0  0.00000000000E+00  0.00000000000E+00  0.27065798414E+03  0.27065798414E+03  0.00000000000E+00 0. -1.
         -1   -1    0    0    0  501 -0.00000000000E+00 -0.00000000000E+00 -0.43602136660E+02  0.43602136660E+02  0.00000000000E+00 0.  1.
         25    2    1    2    0    0 -0.79000291187E+01  0.46561941159E+00  0.13710986181E+03  0.18576464324E+03  0.12508701456E+03 0.  0.
          5    1    3    3  502    0 -0.32449879543E+02  0.12629325221E+02  0.15081999984E+03  0.15484391913E+03  0.41800000000E+01 0. -1.
         -5    1    3    3    0  502  0.24549850424E+02 -0.12163705810E+02 -0.13710138035E+02  0.30920724115E+02  0.41800000000E+01 0. -1.
        -11    1    1    2    0    0 -0.12659964231E+02  0.35239894631E+02  0.10319807458E+02  0.38841000166E+02  0.00000000000E+00 0.  1.
         11    1    1    2    0    0  0.20559993350E+02 -0.35705514043E+02  0.79626178216E+02  0.89654477395E+02  0.00000000000E+00 0. -1.
</event>
<event>
 7    1  0.2732144E-009  0.9170139E+02  0.7561462E-02  0.1298783E+00
         -2   -1    0    0    0  501 -0.00000000000E+00  0.00000000000E+00  0.15563796035E+03  0.15563796035E+03  0.00000000000E+00 0.  1.
          2   -1    0    0  501    0  0.00000000000E+00 -0.00000000000E+00 -0.17868770433E+03  0.17868770433E+03  0.00000000000E+00 0. -1.
         25    2    1    2    0    0 -0.12741777677E+02 -0.25096475953E+02 -0.13574100095E+03  0.18671744194E+03  0.12508236400E+03 0.  0.
          5    1    3    3  502    0 -0.49219929571E+02  0.27777888876E+02 -0.94740033130E+02  0.11039637157E+03  0.41800000000E+01 0.  1.
         -5    1    3    3    0  502  0.36478151894E+02 -0.52874364829E+02 -0.41000967815E+02  0.76321070377E+02  0.41800000000E+01 0.  1.
        -11    1    1    2    0    0  0.34762465549E+02  0.12210649245E+02  0.11615663295E+03  0.12186013436E+03  0.00000000000E+00 0.  1.
         11    1    1    2    0    0 -0.22020687872E+02  0.12885826708E+02 -0.34653759915E+01  0.25748088377E+02  0.00000000000E+00 0. -1.
</event>
<event>
 7    1  0.2732144E-009  0.1485914E+03  0.7561462E-02  0.1202215E+00
          4   -1    0    0  501    0  0.00000000000E+00  0.00000000000E+00  0.13813667688E+03  0.13813667688E+03  0.00000000000E+00 0. -1.
         -4   -1    0    0    0  501 -0.00000000000E+00 -0.00000000000E+00 -0.21054485759E+03  0.21054485759E+03  0.00000000000E+00 0.  1.
         25    2    1    2    0    0  0.22581882818E+02 -0.10535425234E+03  0.37319679439E+02  0.16926029618E+03  0.12508728740E+03 0.  0.
          5    1    3    3  502    0 -0.39501638249E+02 -0.92197270014E+02  0.32318575803E+02  0.10546411126E+03  0.41800000000E+01 0. -1.
         -5    1    3    3    0  502  0.62083521067E+02 -0.13156982330E+02  0.50011036363E+01  0.63796184915E+02  0.41800000000E+01 0. -1.
        -11    1    1    2    0    0  0.29447196312E+02  0.36861271955E+02 -0.70631263507E+02  0.84939190751E+02  0.00000000000E+00 0. -1.
         11    1    1    2    0    0 -0.52029079130E+02  0.68492980389E+02 -0.39096596642E+02  0.94482047536E+02  0.00000000000E+00 0.  1.
</event>
<event>
 7    1  0.2732144E-009  0.2723215E+03  0.7561462E-02  0.1099958E+00
          2   -1    0    0  501    0  0.00000000000E+00  0.00000000000E+00  0.42226653451E+03  0.42226653451E+03  0.00000000000E+00 0. -1.
         -2   -1    0    0    0  501 -0.00000000000E+00 -0.00000000000E+00 -0.24505303316E+03  0.24505303316E+03  0.00000000000E+00 0.  1.
         25    2    1    2    0    0  0.12680090110E+03  0.23320057349E+03  0.24119209553E+03  0.37984850896E+03  0.12510110639E+03 0.  0.
          5    1    3    3  502    0  0.13481209626E+03  0.23362123268E+03  0.19520444884E+03  0.33297962536E+03  0.41800000000E+01 0.  1.
         -5    1    3    3    0  502 -0.80111951571E+01 -0.42065919683E+00  0.45987646691E+02  0.46868883602E+02  0.41800000000E+01 0.  1.
        -11    1    1    2    0    0 -0.37446388595E+02 -0.83206856419E+02 -0.66424513542E+02  0.11286199083E+03  0.00000000000E+00 0.  1.
         11    1    1    2    0    0 -0.89354512507E+02 -0.14999371707E+03  0.24459193660E+01  0.17460906788E+03  0.00000000000E+00 0. -1.
</event>
<event>
 7    1  0.2732144E-009  0.1129598E+03  0.7561462E-02  0.1255185E+00
         -4   -1    0    0    0  501 -0.00000000000E+00  0.00000000000E+00  0.47144357379E+02  0.47144357379E+02  0.00000000000E+00 0.  1.
          4   -1    0    0  501    0  0.00000000000E+00 -0.00000000000E+00 -0.34661315160E+03  0.34661315160E+03  0.00000000000E+00 0. -1.
         25    2    1    2    0    0  0.59003911054E+02 -0.12026272600E+02 -0.21187572205E+03  0.25330916926E+03  0.12509244936E+03 0.  0.
          5    1    3    3  502    0  0.90405748723E+02 -0.84800903670E+01 -0.19928364654E+03  0.21903551199E+03  0.41800000000E+01 0.  1.
         -5    1    3    3    0  502 -0.31401837669E+02 -0.35461822327E+01 -0.12592075511E+02  0.34273657276E+02  0.41800000000E+01 0.  1.
        -11    1    1    2    0    0 -0.34909815713E+02 -0.35543820416E+02 -0.66527671938E+02  0.83114316073E+02  0.00000000000E+00 0.  1.
         11    1    1    2    0    0 -0.24094095341E+02  0.47570093015E+02 -0.21065400235E+02  0.57334023641E+02  0.00000000000E+00 0. -1.
</event>
<event>
 7    1  0.2732144E-009  0.2111886E+03  0.7561462E-02  0.1140628E+00
         -2   -1    0    0    0  501 -0.00000000000E+00  0.00000000000E+00  0.12179611455E+03  0.12179611455E+03  0.00000000000E+00 0.  1.
          2   -1    0    0  501    0  0.00000000000E+00 -0.00000000000E+00 -0.45540248955E+03  0.45540248955E+03  0.00000000000E+00 0. -1.
         25    2    1    2    0    0 -0.19705257077E+03 -0.40259958467E+02 -0.23842653746E+03  0.33607322838E+03  0.12508965253E+03 0.  0.
          5    1    3    3  502    0 -0.14558668437E+03  0.13437930675E+02 -0.94869749175E+02  0.17433818387E+03  0.41800000000E+01 0.  1.
         -5    1    3    3    0  502 -0.51465886398E+02 -0.53697889142E+02 -0.14355678828E+03  0.16173504451E+03  0.41800000000E+01 0.  1.
        -11    1    1    2    0    0  0.58177929474E+02  0.53692598823E+01 -0.77191711986E+02  0.96809404651E+02  0.00000000000E+00 0. -1.
         11    1    1    2    0    0  0.13887464130E+03  0.34890698585E+02 -0.17988125554E+02  0.14431597106E+03  0.00000000000E+00 0.  1.
</event>
<event>
 7    1  0.2732144E-009  0.1185341E+03  0.7561462E-02  0.1245535E+00
          2   -1    0    0  501    0  0.00000000000E+00  0.00000000000E+00  0.27480666191E+03  0.27480666191E+03  0.00000000000E+00 0. -1.
         -2   -1    0    0    0  501 -0.00000000000E+00 -0.00000000000E+00 -0.61161258515E+02  0.61161258515E+02  0.00000000000E+00 0.  1.
         25    2    1    2    0    0 -0.10876830335E+02  0.55324790061E+02  0.13376421765E+03  0.19162325723E+03  0.12508984354E+03 0.  0.
          5    1    3    3  502    0  0.45984916379E+02  0.60457117192E+02  0.98240424689E+02  0.12425107242E+03  0.41800000000E+01 0.  1.
         -5    1    3    3    0  502 -0.56861746714E+02 -0.51323271315E+01  0.35523792956E+02  0.67372184818E+02  0.41800000000E+01 0.  1.
        -11    1    1    2    0    0 -0.20546456921E+02 -0.67112940313E+02  0.85175144954E+02  0.11036806136E+03  0.00000000000E+00 0. -1.
         11    1    1    2    0    0  0.31423287256E+02  0.11788150252E+02 -0.52939592023E+01  0.33976601837E+02  0.00000000000E+00 0.  1.
</event>
<event>
 7    1  0.2732144E-009  0.1073788E+03  0.7561462E-02  0.1265502E+00
          2   -1    0    0  501    0  0.00000000000E+00  0.00000000000E+00  0.11935206773E+03  0.11935206773E+03  0.00000000000E+00 0. -1.
         -2   -1    0    0    0  501 -0.00000000000E+00 -0.00000000000E+00 -0.12590754452E+03  0.12590754452E+03  0.00000000000E+00 0.  1.
         25    2    1    2    0    0  0.19534638004E+02 -0.41708026891E+02  0.28641811138E+02  0.13634594654E+03  0.12509477289E+03 0.  0.
          5    1    3    3  502    0  0.12134258471E+02  0.33571422985E+02  0.46245720894E+02  0.58569785478E+02  0.41800000000E+01 0.  1.
         -5    1    3    3    0  502  0.74003795331E+01 -0.75279449876E+02 -0.17603909757E+02  0.77776161063E+02  0.41800000000E+01 0.  1.
        -11    1    1    2    0    0  0.29558528700E+02  0.45017477190E+02 -0.17607087099E+02  0.56659415700E+02  0.00000000000E+00 0.  1.
         11    1    1    2    0    0 -0.49093166704E+02 -0.33094502984E+01 -0.17590200833E+02  0.52254250006E+02  0.00000000000E+00 0. -1.
</event>
<event>
 7    1  0.2732144E-009  0.8616872E+02  0.7561462E-02  0.1312404E+00
         -1   -1    0    0    0  501 -0.00000000000E+00  0.00000000000E+00  0.40408625282E+02  0.40408625282E+02  0.00000000000E+00 0.  1.
          1   -1    0    0  501    0  0.00000000000E+00 -0.00000000000E+00 -0.43005822131E+03  0.43005822131E+03  0.00000000000E+00 0. -1.
         25    2    1    2    0    0 -0.63792159602E+02 -0.11908354216E+02 -0.28176875750E+03  0.31503921431E+03  0.12507927614E+03 0.  0.
          5    1    3    3  502    0 -0.42449814421E+02  0.94315640608E+01 -0.14484725499E+02  0.46024132994E+02  0.41800000000E+01 0.  1.
         -5    1    3    3    0  502 -0.21342345181E+02 -0.21339918277E+02 -0.26728403201E+03  0.26901508132E+03  0.41800000000E+01 0.  1.
        -11    1    1    2    0    0  0.21585858974E+02 -0.31143912663E+02 -0.79495960217E+01  0.38718066591E+02  0.00000000000E+00 0.  1.
         11    1    1    2    0    0  0.42206300628E+02  0.43052266879E+02 -0.99931242506E+02  0.11670956570E+03  0.00000000000E+00 0. -1.
</event>
<event>
 7    1  0.2732144E-009  0.1283692E+03  0.7561462E-02  0.1229896E+00
         -1   -1    0    0    0  501 -0.00000000000E+00  0.00000000000E+00  0.77337268322E+03  0.77337268322E+03  0.00000000000E+00 0.  1.
          1   -1    0    0  501    0  0.00000000000E+00 -0.00000000000E+00 -0.26448997627E+02  0.26448997627E+02  0.00000000000E+00 0. -1.
         25    2    1    2    0    0  0.86849211059E+02  0.31432151344E+02  0.37266818531E+03  0.40380744242E+03  0.12509240028E+03 0.  0.
          5    1    3    3  502    0  0.48655054734E+02  0.69633632365E+02  0.13134928095E+03  0.15648087140E+03  0.41800000000E+01 0. -1.
         -5    1    3    3    0  502  0.38194156325E+02 -0.38201481020E+02  0.24131890436E+03  0.24732657102E+03  0.41800000000E+01 0. -1.
        -11    1    1    2    0    0 -0.39106765088E+02  0.22788623307E+02  0.70448283415E+02  0.83735422994E+02  0.00000000000E+00 0. -1.
         11    1    1    2    0    0 -0.47742445971E+02 -0.54220774651E+02  0.30380721686E+03  0.31227881544E+03  0.00000000000E+00 0.  1.
</event>
<event>
 7    1  0.2732144E-009  0.1210522E+03  0.7561462E-02  0.1241371E+00
         -3   -1    0    0    0  501 -0.00000000000E+00  0.00000000000E+00  0.20058640598E+03  0.20058640598E+03  0.00000000000E+00 0.  1.
          3   -1    0    0  501    0  0.00000000000E+00 -0.00000000000E+00 -0.85849738548E+02  0.85849738548E+02  0.00000000000E+00 0. -1.
         25    2    1    2    0    0  0.45080405408E+02  0.55120856456E+02  0.46786698157E+02  0.15135037662E+03  0.12508952638E+03 0.  0.
          5    1    3    3  502    0 -0.39255092435E+02 -0.58436430887E+00 -0.95309527485E+00  0.39492841811E+02  0.41800000000E+01 0. -1.
         -5    1    3    3    0  502  0.84335497843E+02  0.55705220765E+02  0.47739793432E+02  0.11185753481E+03  0.41800000000E+01 0. -1.
        -11    1    1    2    0    0  0.81907846001E+01  0.12768507311E+02 -0.10510013907E+02  0.18454921394E+02  0.00000000000E+00 0.  1.
         11    1    1    2    0    0 -0.53271190008E+02 -0.67889363768E+02  0.78459983186E+02  0.11663084652E+03  0.00000000000E+00 0. -1.
</event>
<event>
 7    1  0.2732144E-009  0.1770961E+03  0.7561462E-02  0.1170643E+00
         -1   -1    0    0    0  501 -0.00000000000E+00  0.00000000000E+00  0.31762982974E+02  0.31762982974E+02  0.00000000000E+00 0.  1.
          1   -1    0    0  501    0  0.00000000000E+00 -0.00000000000E+00 -0.11120094832E+04  0.11120094832E+04  0.00000000000E+00 0. -1.
         25    2    1    2    0    0 -0.13948480146E+03  0.64185957910E+02 -0.62380047328E+03  0.65448467551E+03  0.12508922007E+03 0.  0.
          5    1    3    3  502    0 -0.81591450218E+02  0.97557867739E+02 -0.46614542942E+03  0.48320154808E+03  0.41800000000E+01 0.  1.
         -5    1    3    3    0  502 -0.57893351241E+02 -0.33371909829E+02 -0.15765504387E+03  0.17128312742E+03  0.41800000000E+01 0.  1.
        -11    1    1    2    0    0  0.97363646808E+02 -0.66336029959E+02 -0.40981165923E+03  0.42641030080E+03  0.00000000000E+00 0.  1.
         11    1    1    2    0    0  0.42121154651E+02  0.21500720483E+01 -0.46634367705E+02  0.62877489853E+02  0.00000000000E+00 0. -1.
</event>
<event>
 7    1  0.2732144E-009  0.1201011E+03  0.7561462E-02  0.1242930E+00
         -2   -1    0    0    0  501 -0.00000000000E+00  0.00000000000E+00  0.13171199532E+03  0.13171199532E+03  0.00000000000E+00 0.  1.
          2   -1    0    0  501    0  0.00000000000E+00 -0.00000000000E+00 -0.16870682086E+03  0.16870682086E+03  0.00000000000E+00 0. -1.
         25    2    1    2    0    0 -0.33245143652E+02 -0.48673848139E+02  0.64071690609E+02  0.15240427719E+03  0.12508996402E+03 0.  0.
          5    1    3    3  502    0  0.33353948435E+02 -0.59810770270E+02  0.45228376408E+02  0.82175985233E+02  0.41800000000E+01 0.  1.
         -5    1    3    3    0  502 -0.66599092087E+02  0.11136922131E+02  0.18843314201E+02  0.70228291958E+02  0.41800000000E+01 0.  1.
        -11    1    1    2    0    0 -0.29237410119E+02  0.13081065331E+02 -0.13638485287E+02  0.34813053609E+02  0.00000000000E+00 0.  1.
         11    1    1    2    0    0  0.62482553771E+02  0.35592782808E+02 -0.87428030857E+02  0.11320148538E+03  0.00000000000E+00 0. -1.
</event>
<event>
 7    1  0.2732144E-009  0.1485532E+03  0.7561462E-02  0.1202262E+00
          1   -1    0    0  501    0  0.00000000000E+00  0.00000000000E+00  0.29799645429E+02  0.29799645429E+02  0.00000000000E+00 0. -1.
         -1   -1    0    0    0  501 -0.00000000000E+00 -0.00000000000E+00 -0.89116071697E+03  0.89116071697E+03  0.00000000000E+00 0.  1.
         25    2    1    2    0    0 -0.10017214190E+03 -0.42275018754E+02 -0.31279094842E+03  0.35398670379E+03  0.12508706498E+03 0.  0.
          5    1    3    3  502    0 -0.30862833758E+02 -0.76523697726E+02 -0.11515505855E+03  0.14172702893E+03  0.41800000000E+01 0. -1.
         -5    1    3    3    0  502 -0.69309308144E+02  0.34248678971E+02 -0.19763588987E+03  0.21225967486E+03  0.41800000000E+01 0. -1.
        -11    1    1    2    0    0  0.35871867827E+02 -0.25215681911E+02 -0.26142204334E+03  0.26507377512E+03  0.00000000000E+00 0.  1.
         11    1    1    2    0    0  0.64300274074E+02  0.67490700665E+02 -0.28714807979E+03  0.30189988348E+03  0.00000000000E+00 0. -1.
</event>
<event>
 7    1  0.2732144E-009  0.2434108E+03  0.7561462E-02  0.1117541E+00
          2   -1    0    0  501    0  0.00000000000E+00  0.00000000000E+00  0.10981887515E+04  0.10981887515E+04  0.00000000000E+00 0. -1.
         -2   -1    0    0    0  501 -0.00000000000E+00 -0.00000000000E+00 -0.57044523023E+02  0.57044523023E+02  0.00000000000E+00 0.  1.
         25    2    1    2    0    0  0.92648925502E+02 -0.20265778014E+03  0.47049393679E+03  0.53541151828E+03  0.12508776961E+03 0.  0.
          5    1    3    3  502    0 -0.15544062069E+01  0.12959949240E+02  0.65433599693E+01  0.15187640456E+02  0.41800000000E+01 0. -1.
         -5    1    3    3    0  502  0.94203331708E+02 -0.21561772938E+03  0.46395057682E+03  0.52022387782E+03  0.41800000000E+01 0. -1.
        -11    1    1    2    0    0 -0.31126837742E+02  0.15979674770E+03  0.33376096656E+03  0.37134924721E+03  0.00000000000E+00 0.  1.
         11    1    1    2    0    0 -0.61522087759E+02  0.42861032440E+02  0.23688932510E+03  0.24847250901E+03  0.00000000000E+00 0. -1.
</event>
<event>
 7    1  0.2732144E-009  0.1162987E+03  0.7561462E-02  0.1249331E+00
         -1   -1    0    0    0  501 -0.00000000000E+00  0.00000000000E+00  0.11331929585E+03  0.11331929585E+03  0.00000000000E+00 0.  1.
          1   -1    0    0  501    0  0.00000000000E+00 -0.00000000000E+00 -0.13874649090E+03  0.13874649090E+03  0.00000000000E+00 0. -1.
         25    2    1    2    0    0 -0.59235520327E+02 -0.18360324491E+02 -0.11781448686E+02  0.14011830578E+03  0.12509351981E+03 0.  0.
          5    1    3    3  502    0 -0.81940534510E+02 -0.38725069340E+02 -0.39256733562E+02  0.98855681279E+02  0.41800000000E+01 0.  1.
         -5    1    3    3    0  502  0.22705014183E+02  0.20364744849E+02  0.27475284876E+02  0.41262624503E+02  0.41800000000E+01 0.  1.
        -11    1    1    2    0    0  0.19635456343E+02 -0.37666193179E+02 -0.40158864185E+01  0.42666387216E+02  0.00000000000E+00 0.  1.
         11    1    1    2    0    0  0.39600063984E+02  0.56026517670E+02 -0.96298599445E+01  0.69281093758E+02  0.00000000000E+00 0. -1.
</event>
<event>
 7    1  0.2732144E-009  0.7765882E+02  0.7561462E-02  0.1335830E+00
         -2   -1    0    0    0  501 -0.00000000000E+00  0.00000000000E+00  0.13445149429E+02  0.13445149429E+02  0.00000000000E+00 0.  1.
          2   -1    0    0  501    0  0.00000000000E+00 -0.00000000000E+00 -0.10032337009E+04  0.10032337009E+04  0.00000000000E+00 0. -1.
         25    2    1    2    0    0 -0.22806048766E+02  0.77723132088E+01 -0.69104094644E+03  0.70268422024E+03  0.12508796508E+03 0.  0.
          5    1    3    3  502    0 -0.40174941536E+02  0.75670028015E+01 -0.68090365203E+03  0.68214261060E+03  0.41800000000E+01 0. -1.
         -5    1    3    3    0  502  0.17368892771E+02  0.20531040737E+00 -0.10137294411E+02  0.20541609635E+02  0.41800000000E+01 0. -1.
        -11    1    1    2    0    0  0.57264670076E+02  0.91106777595E+01 -0.16749822230E+03  0.17725095589E+03  0.00000000000E+00 0. -1.
         11    1    1    2    0    0 -0.34458621311E+02 -0.16882990968E+02 -0.13124938268E+03  0.13674367415E+03  0.00000000000E+00 0.  1.
</event>
<event>
 7    1  0.4005040E-009  0.1044859E+03  0.7561462E-02  0.1271136E+00
         -1   -1    0    0    0  501 -0.00000000000E+00  0.00000000000E+00  0.35902666143E+02  0.35902666143E+02  0.00000000000E+00 0.  1.
          1   -1    0    0  501    0  0.00000000000E+00 -0.00000000000E+00 -0.59807672407E+03  0.59807672407E+03  0.00000000000E+00 0. -1.
         25    2    1    2    0    0 -0.83293645951E+02  0.31276159350E+02 -0.21581425287E+03  0.26483365435E+03  0.12508014685E+03 0.  0.
          5    1    3    3  502    0 -0.10326731150E+02 -0.24851793911E+02  0.30068865750E+01  0.27400124155E+02  0.41800000000E+01 0. -1.
         -5    1    3    3    0  502 -0.72966914802E+02  0.56127953261E+02 -0.21882113945E+03  0.23743353020E+03  0.41800000000E+01 0. -1.
        -11    1    1    2    0    0  0.17148365260E+02 -0.11115292862E+02 -0.52523708219E+01  0.21099847529E+02  0.00000000000E+00 0.  1.
         11    1    1    2    0    0  0.66145280691E+02 -0.20160866488E+02 -0.34110743424E+03  0.34804588833E+03  0.00000000000E+00 0. -1.
</event>
<event>
 7    1  0.2779723E-009  0.9935924E+02  0.7561462E-02  0.1281649E+00
         -2   -1    0    0    0  501 -0.00000000000E+00  0.00000000000E+00  0.37086284903E+02  0.37086284903E+02  0.00000000000E+00 0.  1.
          2   -1    0    0  501    0  0.00000000000E+00 -0.00000000000E+00 -0.50287278079E+03  0.50287278079E+03  0.00000000000E+00 0. -1.
         25    2    1    2    0    0  0.78347652031E+02  0.13036514206E+02 -0.20815303057E+03  0.25550789756E+03  0.12509315049E+03 0.  0.
          5    1    3    3  502    0  0.56246470945E+02  0.14337032292E+02 -0.22170503346E+03  0.22921564138E+03  0.41800000000E+01 0.  1.
         -5    1    3    3    0  502  0.22101181086E+02 -0.13005180864E+01  0.13552002895E+02  0.26292256182E+02  0.41800000000E+01 0.  1.
        -11    1    1    2    0    0  0.18073373437E+01 -0.34870357949E+02 -0.51642959331E+02  0.62339422360E+02  0.00000000000E+00 0.  1.
         11    1    1    2    0    0 -0.80154989375E+02  0.21833843744E+02 -0.20599050599E+03  0.22211174578E+03  0.00000000000E+00 0. -1.
</event>
<event>
 7    1  0.2732144E-009  0.1772886E+03  0.7561462E-02  0.1170453E+00
         -2   -1    0    0    0  501 -0.00000000000E+00  0.00000000000E+00  0.26831152556E+02  0.26831152556E+02  0.00000000000E+00 0. -1.
          2   -1    0    0  501    0  0.00000000000E+00 -0.00000000000E+00 -0.12108346257E+04  0.12108346257E+04  0.00000000000E+00 0.  1.
         25    2    1    2    0    0  0.13767522815E+03  0.43662475507E+02 -0.60019104302E+03  0.62987282534E+03  0.12509839231E+03 0.  0.
          5    1    3    3  502    0  0.14644106375E+03  0.42072415144E+01 -0.51565423115E+03  0.53607783440E+03  0.41800000000E+01 0.  1.
         -5    1    3    3    0  502 -0.87658355954E+01  0.39455233993E+02 -0.84536811871E+02  0.93794990934E+02  0.41800000000E+01 0.  1.
        -11    1    1    2    0    0 -0.11342091362E+03 -0.68634956125E+02 -0.42441128253E+03  0.44463467880E+03  0.00000000000E+00 0. -1.
         11    1    1    2    0    0 -0.24254314532E+02  0.24972480618E+02 -0.15940114759E+03  0.16315827413E+03  0.00000000000E+00 0.  1.
</event>
<event>
 7    1  0.2732144E-009  0.1096051E+03  0.7561462E-02  0.1261303E+00
         -2   -1    0    0    0  501 -0.00000000000E+00  0.00000000000E+00  0.53172900641E+02  0.53172900641E+02  0.00000000000E+00 0.  1.
          2   -1    0    0  501    0  0.00000000000E+00 -0.00000000000E+00 -0.25143789170E+03  0.25143789170E+03  0.00000000000E+00 0. -1.
         25    2    1    2    0    0 -0.38992457332E+02  0.80857975190E+01 -0.93968406745E+02  0.16144035802E+03  0.12508851219E+03 0.  0.
          5    1    3    3  502    0 -0.13475167552E+02 -0.58302345105E+02 -0.40893724577E+02  0.72598296778E+02  0.41800000000E+01 0. -1.
         -5    1    3    3    0  502 -0.25517289780E+02  0.66388142624E+02 -0.53074682168E+02  0.88842061244E+02  0.41800000000E+01 0. -1.
        -11    1    1    2    0    0  0.47252896892E+02  0.25290946920E+02 -0.30280786596E+02  0.61558056318E+02  0.00000000000E+00 0.  1.
         11    1    1    2    0    0 -0.82604395606E+01 -0.33376744439E+02 -0.74015797723E+02  0.81612378006E+02  0.00000000000E+00 0. -1.
</event>
<event>
 7    1  0.2732144E-009  0.1433673E+03  0.7561462E-02  0.1208869E+00
          2   -1    0    0  501    0  0.00000000000E+00  0.00000000000E+00  0.13129447890E+03  0.13129447890E+03  0.00000000000E+00 0. -1.
         -2   -1    0    0    0  501 -0.00000000000E+00 -0.00000000000E+00 -0.23396474742E+03  0.23396474742E+03  0.00000000000E+00 0.  1.
         25    2    1    2    0    0  0.10056572498E+03  0.57065409208E+02 -0.13247144488E+03  0.21579084336E+03  0.12508828241E+03 0.  0.
          5    1    3    3  502    0  0.11431576655E+02 -0.25254508979E+02  0.89295494862E+01  0.29422447597E+02  0.41800000000E+01 0.  1.
         -5    1    3    3    0  502  0.89134148328E+02  0.82319918186E+02 -0.14140099437E+03  0.18636839576E+03  0.41800000000E+01 0.  1.
        -11    1    1    2    0    0  0.82247571271E+01 -0.21210288593E+02 -0.14136808273E+02  0.26783807051E+02  0.00000000000E+00 0.  1.
         11    1    1    2    0    0 -0.10879048211E+03 -0.35855120615E+02  0.43937984643E+02  0.12268457591E+03  0.00000000000E+00 0. -1.
</event>
<event>
 7    1  0.2732144E-009  0.1272625E+03  0.7561462E-02  0.1231575E+00
          3   -1    0    0  501    0  0.00000000000E+00  0.00000000000E+00  0.19031031844E+03  0.19031031844E+03  0.00000000000E+00 0. -1.
         -3   -1    0    0    0  501 -0.00000000000E+00 -0.00000000000E+00 -0.12601458321E+03  0.12601458321E+03  0.00000000000E+00 0.  1.
         25    2    1    2    0    0  0.96890675228E+02 -0.36612505768E+02 -0.55880819354E+01  0.16249679634E+03  0.12508278713E+03 0.  0.
          5    1    3    3  502    0  0.54043630108E+02  0.24605210673E+02 -0.48004946527E+02  0.76472724802E+02  0.41800000000E+01 0.  1.
         -5    1    3    3    0  502  0.42847045120E+02 -0.61217716441E+02  0.42416864592E+02  0.86024071536E+02  0.41800000000E+01 0.  1.
        -11    1    1    2    0    0 -0.83762194726E+01  0.30279503028E+02  0.55716553148E+02  0.63963611928E+02  0.00000000000E+00 0. -1.
         11    1    1    2    0    0 -0.88514455756E+02  0.63330027398E+01  0.14167264025E+02  0.89864493385E+02  0.00000000000E+00 0.  1.
</event>
<event>
 7    1  0.2732144E-009  0.1317871E+03  0.7561462E-02  0.1224828E+00
         -2   -1    0    0    0  501 -0.00000000000E+00  0.00000000000E+00  0.96331247602E+03  0.96331247602E+03  0.00000000000E+00 0.  1.
          2   -1    0    0  501    0  0.00000000000E+00 -0.00000000000E+00 -0.22283696918E+02  0.22283696918E+02  0.00000000000E+00 0. -1.
         25    2    1    2    0    0 -0.69949838526E+02  0.61286807283E+02  0.58752640736E+03  0.60785375943E+03  0.12509940391E+03 0.  0.
          5    1    3    3  502    0 -0.93554873371E+02  0.68410592601E+02  0.34350852112E+03  0.36255771954E+03  0.41800000000E+01 0.  1.
         -5    1    3    3    0  502  0.23605034845E+02 -0.71237853178E+01  0.24401788623E+03  0.24529603990E+03  0.41800000000E+01 0.  1.
        -11    1    1    2    0    0  0.19816788933E+02 -0.69071414936E+02  0.12983907498E+03  0.14839727382E+03  0.00000000000E+00 0. -1.
         11    1    1    2    0    0  0.50133049593E+02  0.77846076531E+01  0.22366329677E+03  0.22934513969E+03  0.00000000000E+00 0.  1.
</event>
<event>
 7    1  0.2732144E-009  0.9328685E+02  0.7561462E-02  0.1295082E+00
          1   -1    0    0  501    0  0.00000000000E+00  0.00000000000E+00  0.17709012505E+03  0.17709012505E+03  0.00000000000E+00 0. -1.
         -1   -1    0    0    0  501 -0.00000000000E+00 -0.00000000000E+00 -0.79422998015E+02  0.79422998015E+02  0.00000000000E+00 0.  1.
         25    2    1    2    0    0  0.21840504391E+01  0.25063834263E+02  0.10033922365E+03  0.16232093000E+03  0.12508860320E+03 0.  0.
          5    1    3    3  502    0 -0.13142686330E+02  0.68988069279E+02  0.90427876674E+02  0.11457206111E+03  0.41800000000E+01 0. -1.
         -5    1    3    3    0  502  0.15326736769E+02 -0.43924235016E+02  0.99113469760E+01  0.47748868893E+02  0.41800000000E+01 0. -1.
        -11    1    1    2    0    0 -0.19632897488E+02 -0.41267430909E+02 -0.32461429031E+02  0.56055293170E+02  0.00000000000E+00 0.  1.
         11    1    1    2    0    0  0.17448847049E+02  0.16203596646E+02  0.29789332413E+02  0.38136899889E+02  0.00000000000E+00 0. -1.
</event>
<event>
 7    1  0.2732144E-009  0.9345224E+02  0.7561462E-02  0.1294701E+00
         -1   -1    0    0    0  501 -0.00000000000E+00  0.00000000000E+00  0.19206073593E+02  0.19206073593E+02  0.00000000000E+00 0.  1.
          1   -1    0    0  501    0  0.00000000000E+00 -0.00000000000E+00 -0.14869283506E+04  0.14869283506E+04  0.00000000000E+00 0. -1.
         25    2    1    2    0    0 -0.83855003810E+02  0.17148445065E+02 -0.12436625533E+04  0.12528646420E+04  0.12509010255E+03 0.  0.
          5    1    3    3  502    0 -0.21043173090E+02  0.26636964023E+02 -0.74565286817E+02  0.82035342287E+02  0.41800000000E+01 0.  1.
         -5    1    3    3    0  502 -0.62811830720E+02 -0.94885189580E+01 -0.11690972665E+04  0.11708292997E+04  0.41800000000E+01 0.  1.
        -11    1    1    2    0    0  0.54285963566E+02 -0.22897365422E+02 -0.21329298129E+03  0.22128070646E+03  0.00000000000E+00 0. -1.
         11    1    1    2    0    0  0.29569040244E+02  0.57489203571E+01 -0.10766742405E+02  0.31989075765E+02  0.00000000000E+00 0.  1.
</event>
<event>
 7    1  0.2732144E-009  0.1552348E+03  0.7561462E-02  0.1194184E+00
          2   -1    0    0  501    0  0.00000000000E+00  0.00000000000E+00  0.48769191201E+03  0.48769191201E+03  0.00000000000E+00 0. -1.
         -2   -1    0    0    0  501 -0.00000000000E+00 -0.00000000000E+00 -0.68979815078E+02  0.68979815078E+02  0.00000000000E+00 0.  1.
         25    2    1    2    0    0  0.68122539284E+02 -0.11231061365E+03  0.12088003558E+03  0.21797748967E+03  0.12509136144E+03 0.  0.
          5    1    3    3  502    0  0.97232670020E+02 -0.49690071560E+02  0.92621438843E+02  0.14324628674E+03  0.41800000000E+01 0.  1.
         -5    1    3    3    0  502 -0.29110130736E+02 -0.62620542086E+02  0.28258596736E+02  0.74731202935E+02  0.41800000000E+01 0.  1.
        -11    1    1    2    0    0 -0.49605330732E+02  0.69668630404E+02  0.27280481922E+03  0.28589661819E+03  0.00000000000E+00 0.  1.
         11    1    1    2    0    0 -0.18517208552E+02  0.42641983242E+02  0.25027242127E+02  0.52797619225E+02  0.00000000000E+00 0. -1.
</event>
<event>
 7    1  0.2732144E-009  0.2193296E+03  0.7561462E-02  0.1134384E+00
          2   -1    0    0  501    0  0.00000000000E+00  0.00000000000E+00  0.51030895528E+02  0.51030895528E+02  0.00000000000E+00 0. -1.
         -2   -1    0    0    0  501 -0.00000000000E+00 -0.00000000000E+00 -0.12061563406E+04  0.12061563406E+04  0.00000000000E+00 0.  1.
         25    2    1    2    0    0 -0.21148659034E+03  0.56609141383E+02 -0.69264326665E+03  0.73711118476E+03  0.12508809324E+03 0.  0.
          5    1    3    3  502    0 -0.10808765261E+03  0.22279467816E+02 -0.16655151189E+03  0.19984042095E+03  0.41800000000E+01 0.  1.
         -5    1    3    3    0  502 -0.10339893773E+03  0.34329673566E+02 -0.52609175477E+03  0.53727076381E+03  0.41800000000E+01 0.  1.
        -11    1    1    2    0    0  0.14942859453E+03 -0.34945531984E+02 -0.40374200521E+03  0.43192325920E+03  0.00000000000E+00 0. -1.
         11    1    1    2    0    0  0.62057995807E+02 -0.21663609398E+02 -0.58740173164E+02  0.88152792123E+02  0.00000000000E+00 0.  1.
</event>
<event>
 7    1  0.2732144E-009  0.5700020E+02  0.7561462E-02  0.1410870E+00
          1   -1    0    0  501    0  0.00000000000E+00  0.00000000000E+00  0.32980070786E+03  0.32980070786E+03  0.00000000000E+00 0. -1.
         -1   -1    0    0    0  501 -0.00000000000E+00 -0.00000000000E+00 -0.59415950295E+02  0.59415950295E+02  0.00000000000E+00 0.  1.
         25    2    1    2    0    0  0.38398417237E+02  0.15213694541E+02  0.39135068585E+02  0.13742176996E+03  0.12508914549E+03 0.  0.
          5    1    3    3  502    0  0.34881410177E+02  0.48235721179E+01 -0.42270216183E+02  0.55174479608E+02  0.41800000000E+01 0.  1.
         -5    1    3    3    0  502  0.35170070608E+01  0.10390122423E+02  0.81405284768E+02  0.82247290355E+02  0.41800000000E+01 0.  1.
        -11    1    1    2    0    0 -0.31839579634E+02 -0.34192273293E+02  0.22635564247E+03  0.23112712359E+03  0.00000000000E+00 0. -1.
         11    1    1    2    0    0 -0.65588376036E+01  0.18978578752E+02  0.48940465122E+01  0.20667764597E+02  0.00000000000E+00 0.  1.
</event>
<event>
 7    1  0.2732144E-009  0.1118552E+03  0.7561462E-02  0.1257172E+00
          4   -1    0    0  501    0  0.00000000000E+00  0.00000000000E+00  0.40312955334E+03  0.40312955334E+03  0.00000000000E+00 0. -1.
         -4   -1    0    0    0  501 -0.00000000000E+00 -0.00000000000E+00 -0.42302218517E+02  0.42302218517E+02  0.00000000000E+00 0.  1.
         25    2    1    2    0    0  0.49936123792E+01  0.47697466131E+02  0.14117491010E+03  0.19462140798E+03  0.12508857966E+03 0.  0.
          5    1    3    3  502    0  0.35907982134E+02 -0.28588786145E+02  0.78693072618E+02  0.91196348349E+02  0.41800000000E+01 0.  1.
         -5    1    3    3    0  502 -0.30914369755E+02  0.76286252276E+02  0.62481837482E+02  0.10342505963E+03  0.41800000000E+01 0.  1.
        -11    1    1    2    0    0 -0.38807377083E+02 -0.47567309721E+02  0.20493508907E+03  0.21393235427E+03  0.00000000000E+00 0. -1.
         11    1    1    2    0    0  0.33813764704E+02 -0.13015641010E+00  0.14717335647E+02  0.36878009609E+02  0.00000000000E+00 0.  1.
</event>
<event>
 7    1  0.2732144E-009  0.1150262E+03  0.7561462E-02  0.1251535E+00
         -2   -1    0    0    0  501 -0.00000000000E+00  0.00000000000E+00  0.69982327417E+02  0.69982327417E+02  0.00000000000E+00 0.  1.
          2   -1    0    0  501    0  0.00000000000E+00 -0.00000000000E+00 -0.32935605766E+03  0.32935605766E+03  0.00000000000E+00 0. -1.
         25    2    1    2    0    0 -0.33351982444E+02  0.77579077211E+02 -0.61625369016E+02  0.16302093912E+03  0.12508905840E+03 0.  0.
          5    1    3    3  502    0 -0.59926701634E+02 -0.13826093626E+01 -0.51219684151E+02  0.78955998011E+02  0.41800000000E+01 0. -1.
         -5    1    3    3    0  502  0.26574719190E+02  0.78961686574E+02 -0.10405684865E+02  0.84064941111E+02  0.41800000000E+01 0. -1.
        -11    1    1    2    0    0  0.31750770510E+02 -0.52072783215E+02 -0.20146304357E+03  0.21049238491E+03  0.00000000000E+00 0. -1.
         11    1    1    2    0    0  0.16012119340E+01 -0.25506293996E+02  0.37146823454E+01  0.25825061045E+02  0.00000000000E+00 0.  1.
</event>
<event>
 7    1  0.2732144E-009  0.1131369E+03  0.7561462E-02  0.1254869E+00
         -2   -1    0    0    0  501 -0.00000000000E+00  0.00000000000E+00  0.18623265388E+02  0.18623265388E+02  0.00000000000E+00 0.  1.
          2   -1    0    0  501    0  0.00000000000E+00 -0.00000000000E+00 -0.92291606868E+03  0.92291606868E+03  0.00000000000E+00 0. -1.
         25    2    1    2    0    0  0.27373703766E+02  0.49385139380E+02 -0.68536059985E+03  0.69896653861E+03  0.12508740389E+03 0.  0.
          5    1    3    3  502    0 -0.35563037648E+02  0.46556763379E+02 -0.17230573690E+03  0.18204120751E+03  0.41800000000E+01 0.  1.
         -5    1    3    3    0  502  0.62936741414E+02  0.28283760004E+01 -0.51305486295E+03  0.51692533110E+03  0.41800000000E+01 0.  1.
        -11    1    1    2    0    0 -0.44492063694E+02 -0.66618687967E+02 -0.16471204660E+03  0.18316018021E+03  0.00000000000E+00 0. -1.
         11    1    1    2    0    0  0.17118359928E+02  0.17233548588E+02 -0.54220156832E+02  0.59412615246E+02  0.00000000000E+00 0.  1.
</event>
<event>
 7    1  0.2732144E-009  0.1001421E+03  0.7561462E-02  0.1279997E+00
         -1   -1    0    0    0  501 -0.00000000000E+00  0.00000000000E+00  0.25362773040E+02  0.25362773040E+02  0.00000000000E+00 0.  1.
          1   -1    0    0  501    0  0.00000000000E+00 -0.00000000000E+00 -0.89221385296E+03  0.89221385296E+03  0.00000000000E+00 0. -1.
         25    2    1    2    0    0  0.95062077612E+01  0.61469637574E+02 -0.68695633642E+03  0.70101710554E+03  0.12508832796E+03 0.  0.
          5    1    3    3  502    0 -0.53987526335E+02  0.42615160906E+02 -0.26200572536E+03  0.27091544337E+03  0.41800000000E+01 0. -1.
         -5    1    3    3    0  502  0.63493734097E+02  0.18854476667E+02 -0.42495061106E+03  0.43010166217E+03  0.41800000000E+01 0. -1.
        -11    1    1    2    0    0 -0.10622480649E+02 -0.14224827766E+02  0.10338447736E+02  0.20544252766E+02  0.00000000000E+00 0.  1.
         11    1    1    2    0    0  0.11162728882E+01 -0.47244809807E+02 -0.19023319124E+03  0.19601526769E+03  0.00000000000E+00 0. -1.
</event>
<event>
 7    1  0.2732144E-009  0.1871544E+03  0.7561462E-02  0.1161053E+00
          1   -1    0    0  501    0  0.00000000000E+00  0.00000000000E+00  0.28212618755E+03  0.28212618755E+03  0.00000000000E+00 0. -1.
         -1   -1    0    0    0  501 -0.00000000000E+00 -0.00000000000E+00 -0.12525296252E+03  0.12525296252E+03  0.00000000000E+00 0.  1.
         25    2    1    2    0    0 -0.11927892911E+03  0.94771881983E+02  0.88833495123E+02  0.21621337051E+03  0.12509060392E+03 0.  0.
          5    1    3    3  502    0  0.22623254240E+02 -0.31652426408E+01  0.25404753217E+01  0.23361438488E+02  0.41800000000E+01 0.  1.
         -5    1    3    3    0  502 -0.14190218335E+03  0.97937124624E+02  0.86293019801E+02  0.19285193202E+03  0.41800000000E+01 0.  1.
        -11    1    1    2    0    0 -0.10476694403E+02 -0.33542741845E+02  0.11996329612E+02  0.37132042500E+02  0.00000000000E+00 0.  1.
         11    1    1    2    0    0  0.12975562351E+03 -0.61229140138E+02  0.56043400295E+02  0.15403373706E+03  0.00000000000E+00 0. -1.
</event>
<event>
 7    1  0.2732144E-009  0.7236360E+02  0.7561462E-02  0.1352235E+00
         -2   -1    0    0    0  501 -0.00000000000E+00  0.00000000000E+00  0.44012105376E+03  0.44012105376E+03  0.00000000000E+00 0.  1.
          2   -1    0    0  501    0  0.00000000000E+00 -0.00000000000E+00 -0.35953242181E+02  0.35953242181E+02  0.00000000000E+00 0. -1.
         25    2    1    2    0    0  0.60615502178E+02  0.20918266066E+02  0.24865711740E+03  0.28564217137E+03  0.12509706262E+03 0.  0.
          5    1    3    3  502    0  0.35914141052E+02  0.22882881956E+02  0.78205325254E+01  0.43498102752E+02  0.41800000000E+01 0.  1.
         -5    1    3    3    0  502  0.24701361127E+02 -0.19646158901E+01  0.24083658487E+03  0.24214406862E+03  0.41800000000E+01 0.  1.
        -11    1    1    2    0    0 -0.39215554688E+02  0.87962882868E+01  0.14759347938E+03  0.15296754418E+03  0.00000000000E+00 0.  1.
         11    1    1    2    0    0 -0.21399947490E+02 -0.29714554352E+02  0.79172147977E+01  0.37464580380E+02  0.00000000000E+00 0. -1.
</event>
<event>
 7    1  0.2732144E-009  0.8769680E+02  0.7561462E-02  0.1308527E+00
         -3   -1    0    0    0  501 -0.00000000000E+00  0.00000000000E+00  0.41924953334E+02  0.41924953334E+02  0.00000000000E+00 0. -1.
          3   -1    0    0  501    0  0.00000000000E+00 -0.00000000000E+00 -0.37071781537E+03  0.37071781537E+03  0.00000000000E+00 0.  1.
         25    2    1    2    0    0 -0.24788909442E+02 -0.41238708251E+02 -0.11907052421E+03  0.17927845404E+03  0.12509137963E+03 0.  0.
          5    1    3    3  502    0 -0.12152462800E+02  0.40288070447E+02 -0.11830875828E+02  0.43911877611E+02  0.41800000000E+01 0.  1.
         -5    1    3    3    0  502 -0.12636446642E+02 -0.81526778698E+02 -0.10723964838E+03  0.13536657643E+03  0.41800000000E+01 0.  1.
        -11    1    1    2    0    0  0.28888659636E+00  0.13448094836E+02  0.58235171275E+01  0.14657696337E+02  0.00000000000E+00 0. -1.
         11    1    1    2    0    0  0.24500022845E+02  0.27790613415E+02 -0.21554585495E+03  0.21870661832E+03  0.00000000000E+00 0.  1.
</event>
<event>
 7    1  0.2732144E-009  0.1520303E+03  0.7561462E-02  0.1198000E+00
         -1   -1    0    0    0  501 -0.00000000000E+00  0.00000000000E+00  0.61710571863E+03  0.61710571863E+03  0.00000000000E+00 0.  1.
          1   -1    0    0  501    0  0.00000000000E+00 -0.00000000000E+00 -0.48611627967E+02  0.48611627967E+02  0.00000000000E+00 0. -1.
         25    2    1    2    0    0 -0.16365252289E+02  0.11541941544E+03  0.17200997225E+03  0.24253720354E+03  0.12508957431E+03 0.  0.
          5    1    3    3  502    0  0.12465725600E+02 -0.18209509477E+02  0.65333091192E+02  0.69085930223E+02  0.41800000000E+01 0.  1.
         -5    1    3    3    0  502 -0.28830977889E+02  0.13362892492E+03  0.10667688106E+03  0.17345127331E+03  0.41800000000E+01 0.  1.
        -11    1    1    2    0    0  0.51127478348E+02 -0.81860110003E+02  0.30217040769E+03  0.31720979168E+03  0.00000000000E+00 0.  1.
         11    1    1    2    0    0 -0.34762226060E+02 -0.33559305441E+02  0.94313710723E+02  0.10597035139E+03  0.00000000000E+00 0. -1.
</event>
<event>
 7    1  0.2732144E-009  0.9270113E+02  0.7561462E-02  0.1296439E+00
          1   -1    0    0  501    0  0.00000000000E+00  0.00000000000E+00  0.97305081957E+03  0.97305081957E+03  0.00000000000E+00 0. -1.
         -1   -1    0    0    0  501 -0.00000000000E+00 -0.00000000000E+00 -0.18991521912E+02  0.18991521912E+02  0.00000000000E+00 0.  1.
         25    2    1    2    0    0  0.80414959076E+02 -0.27377444802E+02  0.67168208310E+03  0.68849156051E+03  0.12509083901E+03 0.  0.
          5    1    3    3  502    0  0.33459897301E+02 -0.35030274890E+02  0.71817960160E+02  0.86729330032E+02  0.41800000000E+01 0. -1.
         -5    1    3    3    0  502  0.46955061776E+02  0.76528300875E+01  0.59986412294E+03  0.60176223048E+03  0.41800000000E+01 0. -1.
        -11    1    1    2    0    0 -0.59710184927E+02  0.72544779855E+01  0.26042419175E+03  0.26728017750E+03  0.00000000000E+00 0.  1.
         11    1    1    2    0    0 -0.20704774149E+02  0.20122966817E+02  0.21953022801E+02  0.36270603472E+02  0.00000000000E+00 0. -1.
</event>
<event>
 7    1  0.2732144E-009  0.1043331E+03  0.7561462E-02  0.1271439E+00
         -3   -1    0    0    0  501 -0.00000000000E+00  0.00000000000E+00  0.14311188003E+03  0.14311188003E+03  0.00000000000E+00 0.  1.
          3   -1    0    0  501    0  0.00000000000E+00 -0.00000000000E+00 -0.12313331823E+03  0.12313331823E+03  0.00000000000E+00 0. -1.
         25    2    1    2    0    0  0.16588995911E+02  0.54819154688E+02 -0.40810873065E+02  0.14351734153E+03  0.12510541736E+03 0.  0.
          5    1    3    3  502    0 -0.38755885266E+02  0.69647227721E+02 -0.28612904709E+02  0.84787532620E+02  0.41800000000E+01 0. -1.
         -5    1    3    3    0  502  0.55344881177E+02 -0.14828073033E+02 -0.12197968357E+02  0.58729808908E+02  0.41800000000E+01 0. -1.
        -11    1    1    2    0    0  0.14027589643E+02 -0.10432826620E+02  0.66262080636E+02  0.68529413194E+02  0.00000000000E+00 0.  1.
         11    1    1    2    0    0 -0.30616585553E+02 -0.44386328067E+02 -0.54726457688E+01  0.54198443538E+02  0.00000000000E+00 0. -1.
</event>
<event>
 7    1  0.2732144E-009  0.1356467E+03  0.7561462E-02  0.1219310E+00
          1   -1    0    0  501    0  0.00000000000E+00  0.00000000000E+00  0.17305729280E+03  0.17305729280E+03  0.00000000000E+00 0. -1.
         -1   -1    0    0    0  501 -0.00000000000E+00 -0.00000000000E+00 -0.13117343679E+03  0.13117343679E+03  0.00000000000E+00 0.  1.
         25    2    1    2    0    0  0.40819880077E+02  0.96143480413E+02  0.26546469550E+02  0.16511244380E+03  0.12509025788E+03 0.  0.
          5    1    3    3  502    0 -0.90340465789E+01 -0.10967945732E+02 -0.30457234422E+02  0.33867762840E+02  0.41800000000E+01 0. -1.
         -5    1    3    3    0  502  0.49853926656E+02  0.10711142614E+03  0.57003703971E+02  0.13124468096E+03  0.41800000000E+01 0. -1.
        -11    1    1    2    0    0 -0.23617397387E+02 -0.11224366294E+03  0.12183145374E+02  0.11534665301E+03  0.00000000000E+00 0.  1.
         11    1    1    2    0    0 -0.17202482690E+02  0.16100182526E+02  0.31542410906E+01  0.23771632778E+02  0.00000000000E+00 0. -1.
</event>
<event>
 7    1  0.2732144E-009  0.9259075E+02  0.7561462E-02  0.1296696E+00
         -1   -1    0    0    0  501 -0.00000000000E+00  0.00000000000E+00  0.59955574339E+02  0.59955574339E+02  0.00000000000E+00 0.  1.
          1   -1    0    0  501    0  0.00000000000E+00 -0.00000000000E+00 -0.29752176471E+03  0.29752176471E+03  0.00000000000E+00 0. -1.
         25    2    1    2    0    0 -0.39516780186E+02  0.58764791719E+02 -0.17611334248E+03  0.22732737497E+03  0.12508776659E+03 0.  0.
          5    1    3    3  502    0 -0.85760981354E+01  0.11980195243E+02  0.18922302594E+02  0.24343386632E+02  0.41800000000E+01 0.  1.
         -5    1    3    3    0  502 -0.30940682051E+02  0.46784596476E+02 -0.19503564507E+03  0.20298398834E+03  0.41800000000E+01 0.  1.
        -11    1    1    2    0    0 -0.25565499245E+02  0.53964801284E+00 -0.65897921112E+01  0.26406653171E+02  0.00000000000E+00 0.  1.
         11    1    1    2    0    0  0.65082279431E+02 -0.59304439732E+02 -0.54863055778E+02  0.10374331090E+03  0.00000000000E+00 0. -1.
</event>
<event>
 7    1  0.2732144E-009  0.1111621E+03  0.7561462E-02  0.1258433E+00
         -1   -1    0    0    0  501 -0.00000000000E+00  0.00000000000E+00  0.45248452974E+02  0.45248452974E+02  0.00000000000E+00 0.  1.
          1   -1    0    0  501    0  0.00000000000E+00 -0.00000000000E+00 -0.33126757108E+03  0.33126757108E+03  0.00000000000E+00 0. -1.
         25    2    1    2    0    0 -0.28366323450E+02 -0.49205645605E+02 -0.14278354951E+03  0.19814147187E+03  0.12508819688E+03 0.  0.
          5    1    3    3  502    0 -0.72040565813E+02 -0.34938851323E+01 -0.60120233514E+02  0.93989176152E+02  0.41800000000E+01 0.  1.
         -5    1    3    3    0  502  0.43674242363E+02 -0.45711760472E+02 -0.82663315997E+02  0.10415229572E+03  0.41800000000E+01 0.  1.
        -11    1    1    2    0    0  0.43167538894E+02  0.93029936264E+01 -0.20914381403E+02  0.48860960429E+02  0.00000000000E+00 0.  1.
         11    1    1    2    0    0 -0.14801215444E+02  0.39902651978E+02 -0.12232118719E+03  0.12951359176E+03  0.00000000000E+00 0. -1.
</event>
<event>
 7    1  0.2732144E-009  0.1508498E+03  0.7561462E-02  0.1199433E+00
          2   -1    0    0  501    0  0.00000000000E+00  0.00000000000E+00  0.13142180382E+04  0.13142180382E+04  0.00000000000E+00 0.  1.
         -2   -1    0    0    0  501 -0.00000000000E+00 -0.00000000000E+00 -0.30137839480E+02  0.30137839480E+02  0.00000000000E+00 0. -1.
         25    2    1    2    0    0  0.10205283500E+03 -0.83919948023E+02  0.10221800672E+04  0.10382469804E+04  0.12508942304E+03 0.  0.
          5    1    3    3  502    0  0.36782084130E+02  0.23410480151E+02  0.12822607269E+03  0.13550044432E+03  0.41800000000E+01 0.  1.
         -5    1    3    3    0  502  0.65270750869E+02 -0.10733042817E+03  0.89395399453E+03  0.90274653612E+03  0.41800000000E+01 0.  1.
        -11    1    1    2    0    0 -0.58544989654E+02  0.45094771227E+02  0.22566145830E+03  0.23745346485E+03  0.00000000000E+00 0.  1.
         11    1    1    2    0    0 -0.43507845345E+02  0.38825176795E+02  0.36238673160E+02  0.68655432357E+02  0.00000000000E+00 0. -1.
</event>
<event>
 7    1  0.2732144E-009  0.6941622E+02  0.7561462E-02  0.1362090E+00
         -4   -1    0    0    0  501 -0.00000000000E+00  0.00000000000E+00  0.16950957010E+02  0.16950957010E+02  0.00000000000E+00 0.  1.
          4   -1    0    0  501    0  0.00000000000E+00 -0.00000000000E+00 -0.70526381153E+03  0.70526381153E+03  0.00000000000E+00 0. -1.
         25    2    1    2    0    0 -0.11156350995E+02  0.88068134549E+01 -0.59299834989E+03  0.60621931944E+03  0.12511113523E+03 0.  0.
          5    1    3    3  502    0 -0.37568591458E+02  0.35647129969E+02 -0.53117398441E+03  0.53370908841E+03  0.41800000000E+01 0. -1.
         -5    1    3    3    0  502  0.26412240463E+02 -0.26840316514E+02 -0.61824365482E+02  0.72510231031E+02  0.41800000000E+01 0. -1.
        -11    1    1    2    0    0  0.18037407044E+02 -0.25325657832E+02 -0.16547959230E+02  0.35221753962E+02  0.00000000000E+00 0.  1.
         11    1    1    2    0    0 -0.68810560496E+01  0.16518844377E+02 -0.78766545405E+02  0.80773695142E+02  0.00000000000E+00 0. -1.
</event>
<event>
 7    1  0.2732144E-009  0.1679690E+03  0.7561462E-02  0.1179983E+00
         -1   -1    0    0    0  501 -0.00000000000E+00  0.00000000000E+00  0.59324558928E+02  0.59324558928E+02  0.00000000000E+00 0.  1.
          1   -1    0    0  501    0  0.00000000000E+00 -0.00000000000E+00 -0.60966169613E+03  0.60966169613E+03  0.00000000000E+00 0. -1.
         25    2    1    2    0    0 -0.96541812593E+02 -0.12175040537E+03 -0.30749010518E+03  0.36652686052E+03  0.12509313298E+03 0.  0.
          5    1    3    3  502    0 -0.48209630024E+02  0.76043408362E+00 -0.16718318830E+03  0.17404722789E+03  0.41800000000E+01 0. -1.
         -5    1    3    3    0  502 -0.48332182569E+02 -0.12251083945E+03 -0.14030691688E+03  0.19247963264E+03  0.41800000000E+01 0. -1.
        -11    1    1    2    0    0  0.82341967090E+01  0.16062443913E+02 -0.10874061373E+03  0.11022851343E+03  0.00000000000E+00 0. -1.
         11    1    1    2    0    0  0.88307615884E+02  0.10568796146E+03 -0.13410641830E+03  0.19223088110E+03  0.00000000000E+00 0.  1.
</event>
<event>
 7    1  0.2732144E-009  0.9711163E+02  0.7561462E-02  0.1286490E+00
          1   -1    0    0  501    0  0.00000000000E+00  0.00000000000E+00  0.29758255485E+03  0.29758255485E+03  0.00000000000E+00 0. -1.
         -1   -1    0    0    0  501 -0.00000000000E+00 -0.00000000000E+00 -0.52583078374E+02  0.52583078374E+02  0.00000000000E+00 0.  1.
         25    2    1    2    0    0  0.10128433055E+01  0.19713814445E+02  0.22758415015E+03  0.26044432891E+03  0.12508813985E+03 0.  0.
          5    1    3    3  502    0  0.15984157565E+02  0.63293520789E+02  0.68283845049E+02  0.94560662866E+02  0.41800000000E+01 0.  1.
         -5    1    3    3    0  502 -0.14971314259E+02 -0.43579706344E+02  0.15930030510E+03  0.16588366604E+03  0.41800000000E+01 0.  1.
        -11    1    1    2    0    0  0.26102054726E+02 -0.40632316067E+02  0.25386236228E+02  0.54559722871E+02  0.00000000000E+00 0. -1.
         11    1    1    2    0    0 -0.27114898031E+02  0.20918501622E+02 -0.79709098952E+01  0.35161581448E+02  0.00000000000E+00 0.  1.
</event>
<event>
 7    1  0.2732144E-009  0.1264366E+03  0.7561462E-02  0.1232841E+00
         -2   -1    0    0    0  501 -0.00000000000E+00  0.00000000000E+00  0.22805730215E+02  0.22805730215E+02  0.00000000000E+00 0.  1.
          2   -1    0    0  501    0  0.00000000000E+00 -0.00000000000E+00 -0.11982318385E+04  0.11982318385E+04  0.00000000000E+00 0. -1.
         25    2    1    2    0    0  0.20746685164E+02 -0.11535862338E+03 -0.52792052474E+03  0.55505385141E+03  0.12508661233E+03 0.  0.
          5    1    3    3  502    0  0.17609458919E+02 -0.58601592496E+02 -0.67834276724E+02  0.91450539557E+02  0.41800000000E+01 0. -1.
         -5    1    3    3    0  502  0.31372262449E+01 -0.56757030888E+02 -0.46008624802E+03  0.46360331185E+03  0.41800000000E+01 0. -1.
        -11    1    1    2    0    0  0.91358641090E+01  0.10096034067E+03 -0.59709231760E+03  0.60563659908E+03  0.00000000000E+00 0. -1.
         11    1    1    2    0    0 -0.29882549273E+02  0.14398282719E+02 -0.50413265952E+02  0.60347118243E+02  0.00000000000E+00 0.  1.
</event>
<event>
 7    1  0.2732144E-009  0.1041836E+03  0.7561462E-02  0.1271736E+00
         -3   -1    0    0    0  501 -0.00000000000E+00  0.00000000000E+00  0.64923880683E+03  0.64923880683E+03  0.00000000000E+00 0.  1.
          3   -1    0    0  501    0  0.00000000000E+00 -0.00000000000E+00 -0.19208299473E+02  0.19208299473E+02  0.00000000000E+00 0. -1.
         25    2    1    2    0    0 -0.30489076702E+02  0.57021453389E+01  0.36695074912E+03  0.38892524533E+03  0.12509155012E+03 0.  0.
          5    1    3    3  502    0  0.25684208882E+02 -0.42892785008E+02  0.19916566543E+03  0.20538720573E+03  0.41800000000E+01 0.  1.
         -5    1    3    3    0  502 -0.56173285584E+02  0.48594930347E+02  0.16778508369E+03  0.18353803960E+03  0.41800000000E+01 0.  1.
        -11    1    1    2    0    0  0.28303867347E+02 -0.40240312984E+02  0.21326263007E+03  0.21886375004E+03  0.00000000000E+00 0.  1.
         11    1    1    2    0    0  0.21852093554E+01  0.34538167645E+02  0.49817128158E+02  0.60658110934E+02  0.00000000000E+00 0. -1.
</event>
<event>
 7    1  0.2732144E-009  0.1691683E+03  0.7561462E-02  0.1178718E+00
         -1   -1    0    0    0  501 -0.00000000000E+00  0.00000000000E+00  0.40420568264E+03  0.40420568264E+03  0.00000000000E+00 0.  1.
          1   -1    0    0  501    0  0.00000000000E+00 -0.00000000000E+00 -0.99350863428E+02  0.99350863428E+02  0.00000000000E+00 0. -1.
         25    2    1    2    0    0  0.12381187187E+03  0.97858364122E+02  0.22653901961E+03  0.30310504358E+03  0.12508837273E+03 0.  0.
          5    1    3    3  502    0  0.48506958469E+02  0.30987653681E+02  0.28815715880E+01  0.57783523217E+02  0.41800000000E+01 0. -1.
         -5    1    3    3    0  502  0.75304913400E+02  0.66870710441E+02  0.22365744803E+03  0.24532152037E+03  0.41800000000E+01 0. -1.
        -11    1    1    2    0    0 -0.34950233614E+02  0.13406591479E+02  0.35919168434E+02  0.51879111266E+02  0.00000000000E+00 0.  1.
         11    1    1    2    0    0 -0.88861638255E+02 -0.11126495560E+03  0.42396631162E+02  0.14857239122E+03  0.00000000000E+00 0. -1.
</event>
<event>
 7    1  0.2732144E-009  0.1069088E+03  0.7561462E-02  0.1266404E+00
         -1   -1    0    0    0  501 -0.00000000000E+00  0.00000000000E+00  0.22589356784E+02  0.22589356784E+02  0.00000000000E+00 0.  1.
          1   -1    0    0  501    0  0.00000000000E+00 -0.00000000000E+00 -0.53349140606E+03  0.53349140606E+03  0.00000000000E+00 0. -1.
         25    2    1    2    0    0 -0.10904555661E+01  0.20904492615E+02 -0.28255175703E+03  0.30971390426E+03  0.12509604386E+03 0.  0.
          5    1    3    3  502    0  0.27514326631E+01 -0.50378879904E+02 -0.77685169355E+02  0.92725723830E+02  0.41800000000E+01 0.  1.
         -5    1    3    3    0  502 -0.38418882292E+01  0.71283372518E+02 -0.20486658767E+03  0.21698818043E+03  0.41800000000E+01 0.  1.
        -11    1    1    2    0    0  0.26397362333E+02  0.26839468793E+02 -0.78208109192E+02  0.86796809657E+02  0.00000000000E+00 0. -1.
         11    1    1    2    0    0 -0.25306906767E+02 -0.47743961408E+02 -0.15014218306E+03  0.15957004893E+03  0.00000000000E+00 0.  1.
</event>
<event>
 7    1  0.2732144E-009  0.1031759E+03  0.7561462E-02  0.1273756E+00
          1   -1    0    0  501    0  0.00000000000E+00  0.00000000000E+00  0.17102693206E+03  0.17102693206E+03  0.00000000000E+00 0. -1.
         -1   -1    0    0    0  501 -0.00000000000E+00 -0.00000000000E+00 -0.78779846311E+02  0.78779846311E+02  0.00000000000E+00 0.  1.
         25    2    1    2    0    0  0.21636825381E+02 -0.41635202304E+02  0.73474867528E+02  0.15246559606E+03  0.12508221113E+03 0.  0.
          5    1    3    3  502    0  0.69219970563E+02 -0.22472896830E+02  0.69706982819E+02  0.10086114847E+03  0.41800000000E+01 0.  1.
         -5    1    3    3    0  502 -0.47583145182E+02 -0.19162305474E+02  0.37678847083E+01  0.51604447596E+02  0.41800000000E+01 0.  1.
        -11    1    1    2    0    0 -0.78772519384E+01 -0.18601281806E+02 -0.16598668250E+02  0.26145259046E+02  0.00000000000E+00 0.  1.
         11    1    1    2    0    0 -0.13759573442E+02  0.60236484110E+02  0.35370886472E+02  0.71195923262E+02  0.00000000000E+00 0. -1.
</event>
<event>
 7    1  0.2732144E-009  0.9185515E+02  0.7561462E-02  0.1298420E+00
          4   -1    0    0  501    0  0.00000000000E+00  0.00000000000E+00  0.15900842061E+03  0.15900842061E+03  0.00000000000E+00 0. -1.
         -4   -1    0    0    0  501 -0.00000000000E+00 -0.00000000000E+00 -0.83846761994E+02  0.83846761994E+02  0.00000000000E+00 0.  1.
         25    2    1    2    0    0 -0.26270826070E+02 -0.34059939184E+02  0.36388983602E+02  0.13719216593E+03  0.12508915422E+03 0.  0.
          5    1    3    3  502    0 -0.44962559093E+01 -0.60278353659E+02 -0.26035710561E+02  0.65947152035E+02  0.41800000000E+01 0.  1.
         -5    1    3    3    0  502 -0.21774570160E+02  0.26218414475E+02  0.62424694162E+02  0.71245013893E+02  0.41800000000E+01 0.  1.
        -11    1    1    2    0    0 -0.18139565460E+02  0.40054263582E+02 -0.34326172046E+01  0.44104089686E+02  0.00000000000E+00 0.  1.
         11    1    1    2    0    0  0.44410391530E+02 -0.59943243975E+01  0.42205292216E+02  0.61558926988E+02  0.00000000000E+00 0. -1.
</event>
<event>
 7    1  0.2732144E-009  0.1008007E+03  0.7561462E-02  0.1278621E+00
         -1   -1    0    0    0  501 -0.00000000000E+00  0.00000000000E+00  0.23902381797E+02  0.23902381797E+02  0.00000000000E+00 0.  1.
          1   -1    0    0  501    0  0.00000000000E+00 -0.00000000000E+00 -0.53285351247E+03  0.53285351247E+03  0.00000000000E+00 0. -1.
         25    2    1    2    0    0  0.24546008213E+02 -0.12464424737E+01 -0.35804072188E+03  0.38007017376E+03  0.12512441135E+03 0.  0.
          5    1    3    3  502    0 -0.35124854509E+02  0.26240922649E+02 -0.24769005840E+03  0.25157539398E+03  0.41800000000E+01 0.  1.
         -5    1    3    3    0  502  0.59670862722E+02 -0.27487365122E+02 -0.11035066349E+03  0.12849477978E+03  0.41800000000E+01 0.  1.
        -11    1    1    2    0    0 -0.52497678728E+02 -0.20453614093E+02 -0.97752085699E+02  0.11282653438E+03  0.00000000000E+00 0. -1.
         11    1    1    2    0    0  0.27951670515E+02  0.21700056566E+02 -0.53158323092E+02  0.63859186133E+02  0.00000000000E+00 0.  1.
</event>
<event>
 7    1  0.2732144E-009  0.1703578E+03  0.7561462E-02  0.1177475E+00
         -3   -1    0    0    0  501 -0.00000000000E+00  0.00000000000E+00  0.42623108587E+03  0.42623108587E+03  0.00000000000E+00 0.  1.
          3   -1    0    0  501    0  0.00000000000E+00 -0.00000000000E+00 -0.76940838944E+02  0.76940838944E+02  0.00000000000E+00 0. -1.
         25    2    1    2    0    0 -0.89406571784E+02  0.11417506407E+03  0.20301268051E+03  0.27908915743E+03  0.12508848473E+03 0.  0.
          5    1    3    3  502    0  0.45998366155E+00  0.90803400694E+02  0.61392888316E+02  0.10969060260E+03  0.41800000000E+01 0. -1.
         -5    1    3    3    0  502 -0.89866555445E+02  0.23371663378E+02  0.14161979220E+03  0.16939855483E+03  0.41800000000E+01 0. -1.
        -11    1    1    2    0    0  0.78334001800E+02 -0.12079000225E+03  0.98110188313E+02  0.17421839608E+03  0.00000000000E+00 0. -1.
         11    1    1    2    0    0  0.11072569984E+02  0.66149381736E+01  0.48167378105E+02  0.49864371314E+02  0.00000000000E+00 0.  1.
</event>
<event>
 7    1  0.2732144E-009  0.1128277E+03  0.7561462E-02  0.1255421E+00
          2   -1    0    0  501    0  0.00000000000E+00  0.00000000000E+00  0.71929200904E+03  0.71929200904E+03  0.00000000000E+00 0.  1.
         -2   -1    0    0    0  501 -0.00000000000E+00 -0.00000000000E+00 -0.28748429929E+02  0.28748429929E+02  0.00000000000E+00 0. -1.
         25    2    1    2    0    0  0.62758272168E+02 -0.65188962303E+02  0.43887793944E+03  0.46524126624E+03  0.12508952216E+03 0.  0.
          5    1    3    3  502    0  0.68209501113E+02 -0.60764649049E+02  0.14616241823E+03  0.17241172675E+03  0.41800000000E+01 0.  1.
         -5    1    3    3    0  502 -0.54512289447E+01 -0.44243132545E+01  0.29271552121E+03  0.29282953949E+03  0.41800000000E+01 0.  1.
        -11    1    1    2    0    0 -0.71192038756E+02  0.12013547540E+02  0.17312476086E+03  0.18757615661E+03  0.00000000000E+00 0.  1.
         11    1    1    2    0    0  0.84337665880E+01  0.53175414763E+02  0.78540878817E+02  0.95223016123E+02  0.00000000000E+00 0. -1.
</event>
<event>
 7    1  0.2732144E-009  0.1441672E+03  0.7561462E-02  0.1207829E+00
         -4   -1    0    0    0  501 -0.00000000000E+00  0.00000000000E+00  0.16162106416E+03  0.16162106416E+03  0.00000000000E+00 0. -1.
          4   -1    0    0  501    0  0.00000000000E+00 -0.00000000000E+00 -0.17036993471E+03  0.17036993471E+03  0.00000000000E+00 0.  1.
         25    2    1    2    0    0  0.11623648136E+03  0.45720358495E+02 -0.22944926144E+02  0.17825990213E+03  0.12509537279E+03 0.  0.
          5    1    3    3  502    0  0.13371765757E+03  0.52993142177E+02  0.53071963854E+01  0.14399417973E+03  0.41800000000E+01 0.  1.
         -5    1    3    3    0  502 -0.17481176211E+02 -0.72727836819E+01 -0.28252122529E+02  0.34265722401E+02  0.41800000000E+01 0.  1.
        -11    1    1    2    0    0 -0.79757143850E+02 -0.28364111423E+02  0.51214347475E+02  0.98937526749E+02  0.00000000000E+00 0. -1.
         11    1    1    2    0    0 -0.36479337509E+02 -0.17356247072E+02 -0.37018291879E+02  0.54793569980E+02  0.00000000000E+00 0.  1.
</event>
<event>
 7    1  0.2732144E-009  0.8768438E+02  0.7561462E-02  0.1308558E+00
         -2   -1    0    0    0  501 -0.00000000000E+00  0.00000000000E+00  0.99883982103E+02  0.99883982103E+02  0.00000000000E+00 0.  1.
          2   -1    0    0  501    0  0.00000000000E+00 -0.00000000000E+00 -0.12314090726E+03  0.12314090726E+03  0.00000000000E+00 0. -1.
         25    2    1    2    0    0 -0.98392944284E+01 -0.11392457898E+02 -0.67424216666E+01  0.12618904125E+03  0.12510641099E+03 0.  0.
          5    1    3    3  502    0 -0.18990386804E+02 -0.66843544051E+02 -0.52671078814E+01  0.69813386952E+02  0.41800000000E+01 0. -1.
         -5    1    3    3    0  502  0.91510923752E+01  0.55451086154E+02 -0.14753137852E+01  0.56375654303E+02  0.41800000000E+01 0. -1.
        -11    1    1    2    0    0 -0.15086823589E+02  0.18121402573E+02  0.33256041384E+02  0.40767165290E+02  0.00000000000E+00 0.  1.
         11    1    1    2    0    0  0.24926118017E+02 -0.67289446752E+01 -0.49770544877E+02  0.56068682820E+02  0.00000000000E+00 0. -1.
</event>
<event>
 7    1  0.2732144E-009  0.1337636E+03  0.7561462E-02  0.1221976E+00
          1   -1    0    0  501    0  0.00000000000E+00  0.00000000000E+00  0.66679740687E+03  0.66679740687E+03  0.00000000000E+00 0. -1.
         -1   -1    0    0    0  501 -0.00000000000E+00 -0.00000000000E+00 -0.44084072231E+02  0.44084072231E+02  0.00000000000E+00 0.  1.
         25    2    1    2    0    0 -0.92252048375E+02 -0.80076650051E+02  0.22524563138E+03  0.28514052425E+03  0.12508722478E+03 0.  0.
          5    1    3    3  502    0 -0.42389613885E+02 -0.80541103131E+02  0.21576198162E+03  0.23421027683E+03  0.41800000000E+01 0.  1.
         -5    1    3    3    0  502 -0.49862434490E+02  0.46445307922E+00  0.94836497557E+01  0.50930247424E+02  0.41800000000E+01 0.  1.
        -11    1    1    2    0    0  0.65258580959E+02  0.35567283064E+02  0.34073040968E+03  0.34874191904E+03  0.00000000000E+00 0. -1.
         11    1    1    2    0    0  0.26993467416E+02  0.44509366987E+02  0.56737293580E+02  0.76999035809E+02  0.00000000000E+00 0.  1.
</event>
<event>
 7    1  0.3161303E-009  0.1744203E+03  0.7561462E-02  0.1173315E+00
         -1   -1    0    0    0  501 -0.00000000000E+00  0.00000000000E+00  0.15595375501E+03  0.15595375501E+03  0.00000000000E+00 0.  1.
          1   -1    0    0  501    0  0.00000000000E+00 -0.00000000000E+00 -0.24198377689E+03  0.24198377689E+03  0.00000000000E+00 0. -1.
         25    2    1    2    0    0  0.18200138166E+02 -0.15402239079E+03 -0.88626163995E+02  0.21807472076E+03  0.12509134660E+03 0.  0.
          5    1    3    3  502    0  0.34149756336E+02 -0.15676366677E+03 -0.38238333520E+02  0.16498695593E+03  0.41800000000E+01 0. -1.
         -5    1    3    3    0  502 -0.15949618170E+02  0.27412759842E+01 -0.50387830475E+02  0.53087764822E+02  0.41800000000E+01 0. -1.
        -11    1    1    2    0    0 -0.46960724075E+02  0.96434629595E+02  0.27684557086E+02  0.11077627044E+03  0.00000000000E+00 0.  1.
         11    1    1    2    0    0  0.28760585909E+02  0.57587761194E+02 -0.25088414963E+02  0.69086540705E+02  0.00000000000E+00 0. -1.
</event>
<event>
 7    1  0.2732144E-009  0.7676531E+02  0.7561462E-02  0.1338490E+00
          1   -1    0    0  501    0  0.00000000000E+00  0.00000000000E+00  0.31114317570E+03  0.31114317570E+03  0.00000000000E+00 0. -1.
         -1   -1    0    0    0  501 -0.00000000000E+00 -0.00000000000E+00 -0.41591390275E+02  0.41591390275E+02  0.00000000000E+00 0.  1.
         25    2    1    2    0    0  0.22896222606E+02 -0.54471107866E+01  0.11196254701E+03  0.16952190553E+03  0.12509259170E+03 0.  0.
          5    1    3    3  502    0  0.46960114181E+02 -0.23556821266E+02  0.12559138841E+03  0.13620148822E+03  0.41800000000E+01 0. -1.
         -5    1    3    3    0  502 -0.24063891575E+02  0.18109710480E+02 -0.13628841404E+02  0.33320417305E+02  0.41800000000E+01 0. -1.
        -11    1    1    2    0    0  0.11971995270E+02  0.26926778679E+02  0.13125708273E+03  0.13452435411E+03  0.00000000000E+00 0. -1.
         11    1    1    2    0    0 -0.34868217876E+02 -0.21479667893E+02  0.26332155682E+02  0.48688306332E+02  0.00000000000E+00 0.  1.
</event>
<event>
 7    1  0.2732144E-009  0.1019345E+03  0.7561462E-02  0.1276280E+00
         -2   -1    0    0    0  501 -0.00000000000E+00  0.00000000000E+00  0.10081378798E+03  0.10081378798E+03  0.00000000000E+00 0.  1.
          2   -1    0    0  501    0  0.00000000000E+00 -0.00000000000E+00 -0.14157368882E+03  0.14157368882E+03  0.00000000000E+00 0. -1.
         25    2    1    2    0    0 -0.39531196664E+02 -0.30567029057E+02 -0.27641516550E+02  0.13748625790E+03  0.12506541848E+03 0.  0.
          5    1    3    3  502    0 -0.37082680615E+02  0.28479997908E+02 -0.54931502664E+02  0.72257718393E+02  0.41800000000E+01 0. -1.
         -5    1    3    3    0  502 -0.24485160495E+01 -0.59047026966E+02  0.27289986113E+02  0.65228539508E+02  0.41800000000E+01 0. -1.
        -11    1    1    2    0    0  0.33240015561E+02  0.59454355543E+02 -0.25657546143E+02  0.72787558701E+02  0.00000000000E+00 0.  1.
         11    1    1    2    0    0  0.62911811033E+01 -0.28887326485E+02  0.12539161854E+02  0.32113660196E+02  0.00000000000E+00 0. -1.
</event>
<event>
 7    1  0.2732144E-009  0.1252146E+03  0.7561462E-02  0.1234734E+00
         -2   -1    0    0    0  501 -0.00000000000E+00  0.00000000000E+00  0.42839829093E+02  0.42839829093E+02  0.00000000000E+00 0.  1.
          2   -1    0    0  501    0  0.00000000000E+00 -0.00000000000E+00 -0.46145344512E+03  0.46145344512E+03  0.00000000000E+00 0. -1.
         25    2    1    2    0    0  0.69784824284E+00 -0.77465212084E+02 -0.15257806239E+03  0.21196599219E+03  0.12509264826E+03 0.  0.
          5    1    3    3  502    0 -0.21279539934E+02  0.20232204078E+02 -0.87687147915E+02  0.92567106529E+02  0.41800000000E+01 0.  1.
         -5    1    3    3    0  502  0.21977388177E+02 -0.97697416163E+02 -0.64890914471E+02  0.11939888566E+03  0.41800000000E+01 0.  1.
        -11    1    1    2    0    0  0.98077479126E+01 -0.20126475889E+02 -0.38757521734E+02  0.44759495549E+02  0.00000000000E+00 0.  1.
         11    1    1    2    0    0 -0.10505596155E+02  0.97591687973E+02 -0.22727803191E+03  0.24756778647E+03  0.00000000000E+00 0. -1.
</event>
<event>
 7    1  0.2732144E-009  0.1460027E+03  0.7561462E-02  0.1205473E+00
          3   -1    0    0  501    0  0.00000000000E+00  0.00000000000E+00  0.43929095061E+03  0.43929095061E+03  0.00000000000E+00 0. -1.
         -3   -1    0    0    0  501 -0.00000000000E+00 -0.00000000000E+00 -0.53420248200E+02  0.53420248200E+02  0.00000000000E+00 0.  1.
         25    2    1    2    0    0 -0.73759926725E+02 -0.71156471836E+02  0.15634005096E+03  0.22492730834E+03  0.12508521986E+03 0.  0.
          5    1    3    3  502    0 -0.24649054095E+02  0.31948482149E+02  0.72899312651E+02  0.83426995418E+02  0.41800000000E+01 0. -1.
         -5    1    3    3    0  502 -0.49110872629E+02 -0.10310495398E+03  0.83440738311E+02  0.14150031292E+03  0.41800000000E+01 0. -1.
        -11    1    1    2    0    0 -0.69390929012E+00  0.62157659046E+02  0.11821197004E+03  0.13355944724E+03  0.00000000000E+00 0. -1.
         11    1    1    2    0    0  0.74453836015E+02  0.89988127908E+01  0.11131868141E+03  0.13422444323E+03  0.00000000000E+00 0.  1.
</event>
<event>
 7    1  0.2732144E-009  0.1540653E+03  0.7561462E-02  0.1195565E+00
          4   -1    0    0  501    0  0.00000000000E+00  0.00000000000E+00  0.24664603680E+03  0.24664603680E+03  0.00000000000E+00 0. -1.
         -4   -1    0    0    0  501 -0.00000000000E+00 -0.00000000000E+00 -0.11556874256E+03  0.11556874256E+03  0.00000000000E+00 0.  1.
         25    2    1    2    0    0  0.95311721701E+02  0.84853390471E+02  0.87569678128E+02  0.19899912433E+03  0.12509108997E+03 0.  0.
          5    1    3    3  502    0  0.24288676848E+02  0.79938499060E+02 -0.30205845501E+01  0.83706031957E+02  0.41800000000E+01 0.  1.
         -5    1    3    3    0  502  0.71023044853E+02  0.49148914114E+01  0.90590262679E+02  0.11529309238E+03  0.41800000000E+01 0.  1.
        -11    1    1    2    0    0  0.15931130724E+02 -0.14492024348E+02 -0.63645896685E+01  0.22457241538E+02  0.00000000000E+00 0.  1.
         11    1    1    2    0    0 -0.11124285242E+03 -0.70361366123E+02  0.49872205779E+02  0.14075841349E+03  0.00000000000E+00 0. -1.
</event>
<event>
 7    1  0.2732144E-009  0.1340474E+03  0.7561462E-02  0.1221571E+00
         -2   -1    0    0    0  501 -0.00000000000E+00  0.00000000000E+00  0.54838754822E+02  0.54838754822E+02  0.00000000000E+00 0.  1.
          2   -1    0    0  501    0  0.00000000000E+00 -0.00000000000E+00 -0.45469115573E+03  0.45469115573E+03  0.00000000000E+00 0. -1.
         25    2    1    2    0    0  0.11238136626E+03 -0.19754413639E+02 -0.22402276453E+03  0.28080766725E+03  0.12508772370E+03 0.  0.
          5    1    3    3  502    0 -0.12487251984E+02 -0.89861431718E+01 -0.11053056321E+03  0.11167434815E+03  0.41800000000E+01 0. -1.
         -5    1    3    3    0  502  0.12486861824E+03 -0.10768270467E+02 -0.11349220132E+03  0.16913331910E+03  0.41800000000E+01 0. -1.
        -11    1    1    2    0    0 -0.57785712991E+02  0.38030537327E+02 -0.15086524388E+03  0.16596937129E+03  0.00000000000E+00 0. -1.
         11    1    1    2    0    0 -0.54595653267E+02 -0.18276123688E+02 -0.24964392499E+02  0.62752872011E+02  0.00000000000E+00 0.  1.
</event>
<event>
 7    1  0.2732144E-009  0.1393355E+03  0.7561462E-02  0.1214226E+00
          2   -1    0    0  501    0  0.00000000000E+00  0.00000000000E+00  0.16379742820E+03  0.16379742820E+03  0.00000000000E+00 0. -1.
         -2   -1    0    0    0  501 -0.00000000000E+00 -0.00000000000E+00 -0.20015770602E+03  0.20015770602E+03  0.00000000000E+00 0.  1.
         25    2    1    2    0    0 -0.13675958340E+03  0.97145074041E+01  0.21620158096E+02  0.18684020897E+03  0.12507708482E+03 0.  0.
          5    1    3    3  502    0 -0.43918439875E+02  0.70681169122E+01  0.69222622503E+02  0.82389510885E+02  0.41800000000E+01 0.  1.
         -5    1    3    3    0  502 -0.92841143521E+02  0.26463904918E+01 -0.47602464406E+02  0.10445069809E+03  0.41800000000E+01 0.  1.
        -11    1    1    2    0    0  0.42848202147E+02  0.12265619611E+02  0.23921137224E+02  0.50582948291E+02  0.00000000000E+00 0. -1.
         11    1    1    2    0    0  0.93911381248E+02 -0.21980127015E+02 -0.81901573139E+02  0.12653197696E+03  0.00000000000E+00 0.  1.
</event>
<event>
 7    1  0.2732144E-009  0.9906323E+02  0.7561462E-02  0.1282278E+00
          1   -1    0    0  501    0  0.00000000000E+00  0.00000000000E+00  0.50186813832E+03  0.50186813832E+03  0.00000000000E+00 0. -1.
         -1   -1    0    0    0  501 -0.00000000000E+00 -0.00000000000E+00 -0.42789989880E+02  0.42789989880E+02  0.00000000000E+00 0.  1.
         25    2    1    2    0    0  0.70859856426E+01 -0.95113882393E+02  0.18746833319E+03  0.24472253948E+03  0.12509150077E+03 0.  0.
          5    1    3    3  502    0  0.21667869988E+02 -0.70048251982E+02  0.19984860448E+03  0.21291592545E+03  0.41800000000E+01 0.  1.
         -5    1    3    3    0  502 -0.14581884345E+02 -0.25065630411E+02 -0.12380271295E+02  0.31806614034E+02  0.41800000000E+01 0.  1.
        -11    1    1    2    0    0 -0.46851937645E+01  0.54304622414E+02  0.48028181159E+02  0.72647431074E+02  0.00000000000E+00 0.  1.
         11    1    1    2    0    0 -0.24007918781E+01  0.40809259979E+02  0.22358163409E+03  0.22728815764E+03  0.00000000000E+00 0. -1.
</event>
<event>
 7    1  0.2732144E-009  0.9305364E+02  0.7561462E-02  0.1295621E+00
         -4   -1    0    0    0  501 -0.00000000000E+00  0.00000000000E+00  0.49319197968E+03  0.49319197968E+03  0.00000000000E+00 0.  1.
          4   -1    0    0  501    0  0.00000000000E+00 -0.00000000000E+00 -0.33172439106E+02  0.33172439106E+02  0.00000000000E+00 0. -1.
         25    2    1    2    0    0 -0.58376661273E+02  0.41764272604E+02  0.27115144461E+03  0.30711888422E+03  0.12508722589E+03 0.  0.
          5    1    3    3  502    0  0.51088319255E+01  0.20818280055E+02  0.22433941465E+03  0.22539996964E+03  0.41800000000E+01 0. -1.
         -5    1    3    3    0  502 -0.63485493199E+02  0.20945992549E+02  0.46812029960E+02  0.81718914576E+02  0.41800000000E+01 0. -1.
        -11    1    1    2    0    0 -0.95137824254E+00 -0.37813985229E+02  0.13070672444E+03  0.13607002026E+03  0.00000000000E+00 0.  1.
         11    1    1    2    0    0  0.59328039516E+02 -0.39502873752E+01  0.58161371520E+02  0.83175514307E+02  0.00000000000E+00 0. -1.
</event>
<event>
 7    1  0.2732144E-009  0.1388181E+03  0.7561462E-02  0.1214928E+00
          1   -1    0    0  501    0  0.00000000000E+00  0.00000000000E+00  0.36792172230E+03  0.36792172230E+03  0.00000000000E+00 0. -1.
         -1   -1    0    0    0  501 -0.00000000000E+00 -0.00000000000E+00 -0.54038733209E+02  0.54038733209E+02  0.00000000000E+00 0.  1.
         25    2    1    2    0    0 -0.90903721681E+01 -0.88077061490E+02  0.14051778160E+03  0.20792667747E+03  0.12509217653E+03 0.  0.
          5    1    3    3  502    0 -0.56885524069E+02 -0.49211164131E+01  0.51763082840E+02  0.77182053487E+02  0.41800000000E+01 0. -1.
         -5    1    3    3    0  502  0.47795151901E+02 -0.83155945077E+02  0.88754698765E+02  0.13074462398E+03  0.41800000000E+01 0. -1.
        -11    1    1    2    0    0  0.35869573482E+02  0.90640426027E+02  0.14686825021E+03  0.17627420700E+03  0.00000000000E+00 0. -1.
         11    1    1    2    0    0 -0.26779201313E+02 -0.25633645368E+01  0.26496957277E+02  0.37759571047E+02  0.00000000000E+00 0.  1.
</event>
<event>
 7    1  0.2732144E-009  0.1227282E+03  0.7561462E-02  0.1238663E+00
         -1   -1    0    0    0  501 -0.00000000000E+00  0.00000000000E+00  0.26794605386E+02  0.26794605386E+02  0.00000000000E+00 0. -1.
          1   -1    0    0  501    0  0.00000000000E+00 -0.00000000000E+00 -0.72985792576E+03  0.72985792576E+03  0.00000000000E+00 0.  1.
         25    2    1    2    0    0  0.13237453358E+02 -0.86916259955E+02 -0.43815278564E+03  0.46407174079E+03  0.12512014472E+03 0.  0.
          5    1    3    3  502    0 -0.30636168338E+02 -0.94623376670E+01 -0.23556283947E+02  0.40006019022E+02  0.41800000000E+01 0.  1.
         -5    1    3    3    0  502  0.43873621696E+02 -0.77453922288E+02 -0.41459650170E+03  0.42406572177E+03  0.41800000000E+01 0.  1.
        -11    1    1    2    0    0  0.31569342376E+02  0.69244403668E+01 -0.62041205765E+02  0.69954860197E+02  0.00000000000E+00 0. -1.
         11    1    1    2    0    0 -0.44806795734E+02  0.79991819588E+02 -0.20286932897E+03  0.22262593016E+03  0.00000000000E+00 0.  1.
</event>
<event>
 7    1  0.2732144E-009  0.1122907E+03  0.7561462E-02  0.1256386E+00
          2   -1    0    0  501    0  0.00000000000E+00  0.00000000000E+00  0.15902582131E+03  0.15902582131E+03  0.00000000000E+00 0. -1.
         -2   -1    0    0    0  501 -0.00000000000E+00 -0.00000000000E+00 -0.18934330847E+03  0.18934330847E+03  0.00000000000E+00 0.  1.
         25    2    1    2    0    0  0.57944786643E+02 -0.28580871212E+02  0.10324933555E+03  0.17459127346E+03  0.12508886032E+03 0.  0.
          5    1    3    3  502    0  0.84718068587E+02 -0.23036760752E+02  0.24676094781E+02  0.91291979629E+02  0.41800000000E+01 0.  1.
         -5    1    3    3    0  502 -0.26773281944E+02 -0.55441104599E+01  0.78573240770E+02  0.83299293826E+02  0.41800000000E+01 0.  1.
        -11    1    1    2    0    0  0.22222498200E+02  0.17107233136E+02 -0.20671381384E+02  0.34839673651E+02  0.00000000000E+00 0.  1.
         11    1    1    2    0    0 -0.80167284842E+02  0.11473638076E+02 -0.11289544133E+03  0.13893818267E+03  0.00000000000E+00 0. -1.
</event>
<event>
 7    1  0.2732144E-009  0.1011970E+03  0.7561462E-02  0.1277799E+00
         -1   -1    0    0    0  501 -0.00000000000E+00  0.00000000000E+00  0.10633027569E+03  0.10633027569E+03  0.00000000000E+00 0.  1.
          1   -1    0    0  501    0  0.00000000000E+00 -0.00000000000E+00 -0.17663188752E+03  0.17663188752E+03  0.00000000000E+00 0. -1.
         25    2    1    2    0    0 -0.49973938555E+02 -0.62874591065E+02 -0.13969819644E+02  0.14930788449E+03  0.12508828792E+03 0.  0.
          5    1    3    3  502    0 -0.59464767266E+01 -0.64311490048E+02  0.42603985092E+02  0.77484839055E+02  0.41800000000E+01 0.  1.
         -5    1    3    3    0  502 -0.44027461828E+02  0.14368989830E+01 -0.56573804736E+02  0.71823045438E+02  0.41800000000E+01 0.  1.
        -11    1    1    2    0    0  0.24103153511E+02 -0.13945421258E+01  0.19430410962E+02  0.30991089479E+02  0.00000000000E+00 0.  1.
         11    1    1    2    0    0  0.25870785043E+02  0.64269133191E+02 -0.75762203140E+02  0.10266318924E+03  0.00000000000E+00 0. -1.
</event>
<event>
 7    1  0.2732144E-009  0.1705791E+03  0.7561462E-02  0.1177245E+00
          2   -1    0    0  501    0  0.00000000000E+00  0.00000000000E+00  0.30110377550E+03  0.30110377550E+03  0.00000000000E+00 0. -1.
         -2   -1    0    0    0  501 -0.00000000000E+00 -0.00000000000E+00 -0.14635947459E+03  0.14635947459E+03  0.00000000000E+00 0.  1.
         25    2    1    2    0    0 -0.13844424818E+03  0.13293335657E+02 -0.39596759629E+02  0.19120492509E+03  0.12509155598E+03 0.  0.
          5    1    3    3  502    0 -0.28361811182E+02  0.60693568921E+02 -0.13274552767E+02  0.68423590910E+02  0.41800000000E+01 0. -1.
         -5    1    3    3    0  502 -0.11008243700E+03 -0.47400233264E+02 -0.26322206863E+02  0.12278133418E+03  0.41800000000E+01 0. -1.
        -11    1    1    2    0    0  0.40080632629E+02  0.26447077341E+02  0.19665992130E+02  0.51890810923E+02  0.00000000000E+00 0.  1.
         11    1    1    2    0    0  0.98363615550E+02 -0.39740412998E+02  0.17467506841E+03  0.20436751408E+03  0.00000000000E+00 0. -1.
</event>
<event>
 7    1  0.2732144E-009  0.1583044E+03  0.7561462E-02  0.1190624E+00
          1   -1    0    0  501    0  0.00000000000E+00  0.00000000000E+00  0.23435935508E+03  0.23435935508E+03  0.00000000000E+00 0. -1.
         -1   -1    0    0    0  501 -0.00000000000E+00 -0.00000000000E+00 -0.17766203393E+03  0.17766203393E+03  0.00000000000E+00 0.  1.
         25    2    1    2    0    0  0.14969397419E+03  0.66415603771E+01 -0.56321964075E+02  0.20315529731E+03  0.12509002740E+03 0.  0.
          5    1    3    3  502    0  0.14646269003E+03  0.21003918792E+02 -0.33936268350E+01  0.14805901958E+03  0.41800000000E+01 0. -1.
         -5    1    3    3    0  502  0.32312841531E+01 -0.14362358415E+02 -0.52928337240E+02  0.55096277728E+02  0.41800000000E+01 0. -1.
        -11    1    1    2    0    0 -0.22223750259E+02 -0.12836837825E+02 -0.13637862596E+02  0.29063220350E+02  0.00000000000E+00 0.  1.
         11    1    1    2    0    0 -0.12747022393E+03  0.61952774484E+01  0.12665714783E+03  0.17980287135E+03  0.00000000000E+00 0. -1.
</event>
<event>
 7    1  0.2732144E-009  0.8920084E+02  0.7561462E-02  0.1304799E+00
          1   -1    0    0  501    0  0.00000000000E+00  0.00000000000E+00  0.91701631273E+02  0.91701631273E+02  0.00000000000E+00 0. -1.
         -1   -1    0    0    0  501 -0.00000000000E+00 -0.00000000000E+00 -0.20979101581E+03  0.20979101581E+03  0.00000000000E+00 0.  1.
         25    2    1    2    0    0  0.36648289322E+02  0.41533348032E+01 -0.14263831391E+03  0.19327136589E+03  0.12509110671E+03 0.  0.
          5    1    3    3  502    0  0.66301125567E+02 -0.39145805622E+02 -0.75084064976E+02  0.10762584524E+03  0.41800000000E+01 0. -1.
         -5    1    3    3    0  502 -0.29652836245E+02  0.43299140425E+02 -0.67554248939E+02  0.85645520657E+02  0.41800000000E+01 0. -1.
        -11    1    1    2    0    0 -0.53909411505E+01 -0.14701166168E+02 -0.36006017521E+02  0.39263466873E+02  0.00000000000E+00 0.  1.
         11    1    1    2    0    0 -0.31257348171E+02  0.10547831364E+02  0.60554946900E+02  0.68957814316E+02  0.00000000000E+00 0. -1.
</event>
<event>
 7    1  0.2732144E-009  0.1368203E+03  0.7561462E-02  0.1217673E+00
         -3   -1    0    0    0  501 -0.00000000000E+00  0.00000000000E+00  0.27103712950E+03  0.27103712950E+03  0.00000000000E+00 0.  1.
          3   -1    0    0  501    0  0.00000000000E+00 -0.00000000000E+00 -0.14655134885E+03  0.14655134885E+03  0.00000000000E+00 0. -1.
         25    2    1    2    0    0 -0.10596729427E+03 -0.36964777474E+01  0.20386379522E+03  0.26163027296E+03  0.12508885373E+03 0.  0.
          5    1    3    3  502    0 -0.42395142981E+02  0.56420390255E+02  0.12576917293E+03  0.14427739201E+03  0.41800000000E+01 0. -1.
         -5    1    3    3    0  502 -0.63572151293E+02 -0.60116868003E+02  0.78094622289E+02  0.11735288096E+03  0.41800000000E+01 0. -1.
        -11    1    1    2    0    0  0.16497661550E+02 -0.16815972230E+02  0.12000182705E+02  0.26437740895E+02  0.00000000000E+00 0. -1.
         11    1    1    2    0    0  0.89469632724E+02  0.20512449977E+02 -0.91378197271E+02  0.12952046448E+03  0.00000000000E+00 0.  1.
</event>
<event>
 7    1  0.2732144E-009  0.2375003E+03  0.7561462E-02  0.1121469E+00
         -1   -1    0    0    0  501 -0.00000000000E+00  0.00000000000E+00  0.97749482188E+02  0.97749482188E+02  0.00000000000E+00 0.  1.
          1   -1    0    0  501    0  0.00000000000E+00 -0.00000000000E+00 -0.66025191632E+03  0.66025191632E+03  0.00000000000E+00 0. -1.
         25    2    1    2    0    0 -0.10470815897E+03 -0.20302425708E+03 -0.26129687565E+03  0.36892645060E+03  0.12509205095E+03 0.  0.
          5    1    3    3  502    0 -0.23049217221E+02 -0.73409888499E+02 -0.14484352943E+02  0.78406294544E+02  0.41800000000E+01 0. -1.
         -5    1    3    3    0  502 -0.81658941751E+02 -0.12961436858E+03 -0.24681252271E+03  0.29052015606E+03  0.41800000000E+01 0. -1.
        -11    1    1    2    0    0  0.12531583340E+00  0.92616834834E+02 -0.93076018404E+02  0.13130513699E+03  0.00000000000E+00 0.  1.
         11    1    1    2    0    0  0.10458284314E+03  0.11040742225E+03 -0.20812954008E+03  0.25776981092E+03  0.00000000000E+00 0. -1.
</event>
<event>
 7    1  0.2732144E-009  0.9869979E+02  0.7561462E-02  0.1283054E+00
          2   -1    0    0  501    0  0.00000000000E+00  0.00000000000E+00  0.46616569444E+02  0.46616569444E+02  0.00000000000E+00 0.  1.
         -2   -1    0    0    0  501 -0.00000000000E+00 -0.00000000000E+00 -0.46259177176E+03  0.46259177176E+03  0.00000000000E+00 0. -1.
         25    2    1    2    0    0  0.64198608983E+01  0.72138151088E+02 -0.10927776942E+03  0.18119353196E+03  0.12507732679E+03 0.  0.
          5    1    3    3  502    0 -0.51963146869E+01 -0.13846099436E+02  0.20135176602E+02  0.25330098553E+02  0.41800000000E+01 0.  1.
         -5    1    3    3    0  502  0.11616175585E+02  0.85984250524E+02 -0.12941294602E+03  0.15586343340E+03  0.41800000000E+01 0.  1.
        -11    1    1    2    0    0  0.27066630486E+02 -0.42823440192E+02 -0.65809990223E+02  0.83050613055E+02  0.00000000000E+00 0.  1.
         11    1    1    2    0    0 -0.33486491384E+02 -0.29314710896E+02 -0.24088744267E+03  0.24496419619E+03  0.00000000000E+00 0. -1.
</event>
<event>
 7    1  0.2732144E-009  0.9892357E+02  0.7561462E-02  0.1282576E+00
         -1   -1    0    0    0  501 -0.00000000000E+00  0.00000000000E+00  0.98631324129E+02  0.98631324129E+02  0.00000000000E+00 0.  1.
          1   -1    0    0  501    0  0.00000000000E+00 -0.00000000000E+00 -0.12198525818E+03  0.12198525818E+03  0.00000000000E+00 0. -1.
         25    2    1    2    0    0  0.99095121491E+00 -0.12053801486E+02  0.42449720170E+01  0.12580091956E+03  0.12514621632E+03 0.  0.
          5    1    3    3  502    0  0.46155998576E+02  0.36711830727E+02  0.13571343908E+01  0.59139233454E+02  0.41800000000E+01 0. -1.
         -5    1    3    3    0  502 -0.45165047361E+02 -0.48765632213E+02  0.28878376261E+01  0.66661686105E+02  0.41800000000E+01 0. -1.
        -11    1    1    2    0    0  0.32697435054E+02  0.18872204642E+02  0.14522803896E+02  0.40449897406E+02  0.00000000000E+00 0.  1.
         11    1    1    2    0    0 -0.33688386269E+02 -0.68184031556E+01 -0.42121709961E+02  0.54365765340E+02  0.00000000000E+00 0. -1.
</event>
<event>
 7    1  0.2732144E-009  0.1377798E+03  0.7561462E-02  0.1216348E+00
         -1   -1    0    0    0  501 -0.00000000000E+00  0.00000000000E+00  0.57031351678E+02  0.57031351678E+02  0.00000000000E+00 0.  1.
          1   -1    0    0  501    0  0.00000000000E+00 -0.00000000000E+00 -0.39237473144E+03  0.39237473144E+03  0.00000000000E+00 0. -1.
         25    2    1    2    0    0  0.62418057224E+02  0.59517884568E+02 -0.26290405081E+03  0.30365567967E+03  0.12509931820E+03 0.  0.
          5    1    3    3  502    0 -0.37664469340E+02  0.27233981507E+02 -0.77664363884E+02  0.90606444677E+02  0.41800000000E+01 0.  1.
         -5    1    3    3    0  502  0.10008252656E+03  0.32283903061E+02 -0.18523968693E+03  0.21304923500E+03  0.41800000000E+01 0.  1.
        -11    1    1    2    0    0 -0.28703510760E+02  0.21522018962E+02 -0.35657030112E+02  0.50581742028E+02  0.00000000000E+00 0. -1.
         11    1    1    2    0    0 -0.33714546463E+02 -0.81039903530E+02 -0.36782298837E+02  0.95168661413E+02  0.00000000000E+00 0.  1.
</event>
<event>
 7    1  0.2732144E-009  0.9737944E+02  0.7561462E-02  0.1285905E+00
          1   -1    0    0  501    0  0.00000000000E+00  0.00000000000E+00  0.54894898341E+03  0.54894898341E+03  0.00000000000E+00 0. -1.
         -1   -1    0    0    0  501 -0.00000000000E+00 -0.00000000000E+00 -0.43903626412E+02  0.43903626412E+02  0.00000000000E+00 0.  1.
         25    2    1    2    0    0  0.38871445010E+02  0.86662997283E+02  0.37500645765E+03  0.40655805429E+03  0.12505256455E+03 0.  0.
          5    1    3    3  502    0  0.32763930730E+02  0.66921111415E+02  0.74971757625E+02  0.10578349187E+03  0.41800000000E+01 0. -1.
         -5    1    3    3    0  502  0.61075142792E+01  0.19741885868E+02  0.30003470002E+03  0.30077456243E+03  0.41800000000E+01 0. -1.
        -11    1    1    2    0    0 -0.38924469234E+02 -0.54980343328E+02  0.13805492202E+03  0.15361352138E+03  0.00000000000E+00 0. -1.
         11    1    1    2    0    0  0.53024224546E-01 -0.31682653955E+02 -0.80160226696E+01  0.32681034143E+02  0.00000000000E+00 0.  1.
</event>
<event>
 7    1  0.2732144E-009  0.1029078E+03  0.7561462E-02  0.1274297E+00
         -1   -1    0    0    0  501 -0.00000000000E+00  0.00000000000E+00  0.22748237943E+03  0.22748237943E+03  0.00000000000E+00 0.  1.
          1   -1    0    0  501    0  0.00000000000E+00 -0.00000000000E+00 -0.77760735449E+02  0.77760735449E+02  0.00000000000E+00 0. -1.
         25    2    1    2    0    0  0.35921624452E+02  0.64507891218E+02  0.54395238744E+02  0.15510980950E+03  0.12509428393E+03 0.  0.
          5    1    3    3  502    0 -0.11406185359E+02  0.35252572983E+02 -0.34076672789E+02  0.50512740915E+02  0.41800000000E+01 0. -1.
         -5    1    3    3    0  502  0.47327809811E+02  0.29255318236E+02  0.88471911533E+02  0.10459706859E+03  0.41800000000E+01 0. -1.
        -11    1    1    2    0    0 -0.52196243580E+02 -0.66372983946E+01  0.27047244328E+02  0.59161262660E+02  0.00000000000E+00 0. -1.
         11    1    1    2    0    0  0.16274619128E+02 -0.57870592824E+02  0.68279160909E+02  0.90972042716E+02  0.00000000000E+00 0.  1.
</event>
<event>
 7    1  0.2732144E-009  0.1050166E+03  0.7561462E-02  0.1270087E+00
          1   -1    0    0  501    0  0.00000000000E+00  0.00000000000E+00  0.67088979079E+02  0.67088979079E+02  0.00000000000E+00 0. -1.
         -1   -1    0    0    0  501 -0.00000000000E+00 -0.00000000000E+00 -0.31094053654E+03  0.31094053654E+03  0.00000000000E+00 0.  1.
         25    2    1    2    0    0  0.29343089001E+02 -0.81944093077E+02 -0.83418024266E+02  0.17370596596E+03  0.12505736513E+03 0.  0.
          5    1    3    3  502    0  0.54306557248E+02 -0.81033858806E+02 -0.10282654512E+03  0.14179724685E+03  0.41800000000E+01 0.  1.
         -5    1    3    3    0  502 -0.24963468247E+02 -0.91023427112E+00  0.19408520853E+02  0.31908719107E+02  0.41800000000E+01 0.  1.
        -11    1    1    2    0    0 -0.79321761791E+01  0.25195937206E+02 -0.13664116142E+03  0.13917097997E+03  0.00000000000E+00 0.  1.
         11    1    1    2    0    0 -0.21410912822E+02  0.56748155871E+02 -0.23792371769E+02  0.65152569689E+02  0.00000000000E+00 0. -1.
</event>
<event>
 7    1  0.2732144E-009  0.1253987E+03  0.7561462E-02  0.1234448E+00
         -1   -1    0    0    0  501 -0.00000000000E+00  0.00000000000E+00  0.22654605263E+02  0.22654605263E+02  0.00000000000E+00 0.  1.
          1   -1    0    0  501    0  0.00000000000E+00 -0.00000000000E+00 -0.83675975837E+03  0.83675975837E+03  0.00000000000E+00 0. -1.
         25    2    1    2    0    0 -0.81162253616E+02 -0.47955614550E+01 -0.35994834168E+03  0.38964548771E+03  0.12510191281E+03 0.  0.
          5    1    3    3  502    0 -0.10492850370E+03 -0.11964770910E+02 -0.18638570324E+03  0.21426677158E+03  0.41800000000E+01 0. -1.
         -5    1    3    3    0  502  0.23766250080E+02  0.71692094551E+01 -0.17356263845E+03  0.17537871613E+03  0.41800000000E+01 0. -1.
        -11    1    1    2    0    0 -0.18814570349E+02 -0.50268643997E+01 -0.64981635828E+02  0.67837087334E+02  0.00000000000E+00 0.  1.
         11    1    1    2    0    0  0.99976823966E+02  0.98224258546E+01 -0.38917517559E+03  0.40193178859E+03  0.00000000000E+00 0. -1.
</event>
<event>
 7    1  0.2732144E-009  0.2181441E+03  0.7561462E-02  0.1135274E+00
         -2   -1    0    0    0  501 -0.00000000000E+00  0.00000000000E+00  0.93418213961E+02  0.93418213961E+02  0.00000000000E+00 0. -1.
          2   -1    0    0  501    0  0.00000000000E+00 -0.00000000000E+00 -0.53319413001E+03  0.53319413001E+03  0.00000000000E+00 0.  1.
         25    2    1    2    0    0 -0.59286359321E+02 -0.18357732438E+03 -0.19287458920E+03  0.30010590053E+03  0.12508971960E+03 0.  0.
          5    1    3    3  502    0 -0.56504881855E+02 -0.21058884820E+02 -0.22240189535E+02  0.64407893413E+02  0.41800000000E+01 0. -1.
         -5    1    3    3    0  502 -0.27814774656E+01 -0.16251843956E+03 -0.17063439966E+03  0.23569800712E+03  0.41800000000E+01 0. -1.
        -11    1    1    2    0    0 -0.24542707518E+02  0.37282655577E+02 -0.43781403343E+02  0.62523213112E+02  0.00000000000E+00 0.  1.
         11    1    1    2    0    0  0.83829066839E+02  0.14629466880E+03 -0.20311992351E+03  0.26398323032E+03  0.00000000000E+00 0. -1.
</event>
<event>
 7    1  0.2732144E-009  0.1122841E+03  0.7561462E-02  0.1256398E+00
          2   -1    0    0  501    0  0.00000000000E+00  0.00000000000E+00  0.20932308654E+03  0.20932308654E+03  0.00000000000E+00 0. -1.
         -2   -1    0    0    0  501 -0.00000000000E+00 -0.00000000000E+00 -0.11224425788E+03  0.11224425788E+03  0.00000000000E+00 0.  1.
         25    2    1    2    0    0 -0.47038580185E+02 -0.13929056466E+02  0.15298999180E+03  0.20362068636E+03  0.12509516251E+03 0.  0.
          5    1    3    3  502    0  0.26075316352E+02  0.34916194480E+02  0.70474920221E+02  0.82965351442E+02  0.41800000000E+01 0.  1.
         -5    1    3    3    0  502 -0.73113896537E+02 -0.48845250946E+02  0.82515071580E+02  0.12065533492E+03  0.41800000000E+01 0.  1.
        -11    1    1    2    0    0  0.46334077117E+02 -0.25795669014E+02 -0.57452221207E+02  0.78185810502E+02  0.00000000000E+00 0.  1.
         11    1    1    2    0    0  0.70450306750E+00  0.39724725480E+02  0.15410580670E+01  0.39760847564E+02  0.00000000000E+00 0. -1.
</event>
<event>
 7    1  0.2732144E-009  0.1073572E+03  0.7561462E-02  0.1265544E+00
          2   -1    0    0  501    0  0.00000000000E+00  0.00000000000E+00  0.50606718725E+03  0.50606718725E+03  0.00000000000E+00 0. -1.
         -2   -1    0    0    0  501 -0.00000000000E+00 -0.00000000000E+00 -0.39338871865E+02  0.39338871865E+02  0.00000000000E+00 0.  1.
         25    2    1    2    0    0  0.50202233927E+02 -0.27934094435E+02  0.39619174687E+03  0.41941394759E+03  0.12505831128E+03 0.  0.
          5    1    3    3  502    0  0.83433603674E+02  0.11464011010E+02  0.27538476241E+03  0.28800491235E+03  0.41800000000E+01 0. -1.
         -5    1    3    3    0  502 -0.33231369747E+02 -0.39398105445E+02  0.12080698446E+03  0.13140903524E+03  0.41800000000E+01 0. -1.
        -11    1    1    2    0    0  0.11243279181E+02  0.89515649146E+01 -0.13805748864E+02  0.19928385355E+02  0.00000000000E+00 0.  1.
         11    1    1    2    0    0 -0.61445513108E+02  0.18982529521E+02  0.84342317376E+02  0.10606372617E+03  0.00000000000E+00 0. -1.
</event>
<event>
 7    1  0.2732144E-009  0.1526399E+03  0.7561462E-02  0.1197266E+00
         -2   -1    0    0    0  501 -0.00000000000E+00  0.00000000000E+00  0.22306735313E+03  0.22306735313E+03  0.00000000000E+00 0.  1.
          2   -1    0    0  501    0  0.00000000000E+00 -0.00000000000E+00 -0.13775534707E+03  0.13775534707E+03  0.00000000000E+00 0. -1.
         25    2    1    2    0    0  0.13408711951E+03  0.78428549538E+01  0.70268133217E+02  0.19653533079E+03  0.12509060600E+03 0.  0.
          5    1    3    3  502    0  0.56742819672E+02  0.52174099890E+02  0.74373221136E+02  0.10719483526E+03  0.41800000000E+01 0. -1.
         -5    1    3    3    0  502  0.77344299840E+02 -0.44331244936E+02 -0.41050879187E+01  0.89340495534E+02  0.41800000000E+01 0. -1.
        -11    1    1    2    0    0 -0.10421787970E+03 -0.20808440678E+02  0.49187829424E+02  0.11710593587E+03  0.00000000000E+00 0.  1.
         11    1    1    2    0    0 -0.29869239810E+02  0.12965585724E+02 -0.34143956584E+02  0.47181433543E+02  0.00000000000E+00 0. -1.
</event>
<event>
 7    1  0.2732144E-009  0.3147885E+03  0.7561462E-02  0.1078073E+00
         -2   -1    0    0    0  501 -0.00000000000E+00  0.00000000000E+00  0.11041685828E+03  0.11041685828E+03  0.00000000000E+00 0.  1.
          2   -1    0    0  501    0  0.00000000000E+00 -0.00000000000E+00 -0.10335640876E+04  0.10335640876E+04  0.00000000000E+00 0. -1.
         25    2    1    2    0    0 -0.11608183592E+03 -0.24626545832E+03 -0.61401090887E+03  0.68321261573E+03  0.12509361889E+03 0.  0.
          5    1    3    3  502    0 -0.78280995832E+02 -0.24855318721E+03 -0.51667634931E+03  0.57868689593E+03  0.41800000000E+01 0. -1.
         -5    1    3    3    0  502 -0.37800840090E+02  0.22877288963E+01 -0.97334559559E+02  0.10452571980E+03  0.41800000000E+01 0. -1.
        -11    1    1    2    0    0  0.16846714163E+03  0.18365606896E+03 -0.27810716358E+03  0.37343583640E+03  0.00000000000E+00 0. -1.
         11    1    1    2    0    0 -0.52385305707E+02  0.62609389359E+02 -0.31029156893E+02  0.87332493766E+02  0.00000000000E+00 0.  1.
</event>
<event>
 7    1  0.2732144E-009  0.1599531E+03  0.7561462E-02  0.1188750E+00
         -2   -1    0    0    0  501 -0.00000000000E+00  0.00000000000E+00  0.93800804266E+03  0.93800804266E+03  0.00000000000E+00 0.  1.
          2   -1    0    0  501    0  0.00000000000E+00 -0.00000000000E+00 -0.35395852978E+02  0.35395852978E+02  0.00000000000E+00 0. -1.
         25    2    1    2    0    0  0.21183798616E+02 -0.13363772775E+03  0.33231414974E+03  0.37998337252E+03  0.12508746409E+03 0.  0.
          5    1    3    3  502    0 -0.12476278378E+02 -0.11787531532E+03  0.31890994530E+03  0.34025177898E+03  0.41800000000E+01 0. -1.
         -5    1    3    3    0  502  0.33660076994E+02 -0.15762412423E+02  0.13404204439E+02  0.39731593540E+02  0.41800000000E+01 0. -1.
        -11    1    1    2    0    0  0.27052133675E+02  0.63666321878E+01  0.87810808718E+02  0.92103691943E+02  0.00000000000E+00 0.  1.
         11    1    1    2    0    0 -0.48235932291E+02  0.12727109556E+03  0.48248723123E+03  0.50131683118E+03  0.00000000000E+00 0. -1.
</event>
<event>
 7    1  0.2732144E-009  0.8385918E+02  0.7561462E-02  0.1318443E+00
         -3   -1    0    0    0  501 -0.00000000000E+00  0.00000000000E+00  0.14058796470E+03  0.14058796470E+03  0.00000000000E+00 0.  1.
          3   -1    0    0  501    0  0.00000000000E+00 -0.00000000000E+00 -0.19186207809E+03  0.19186207809E+03  0.00000000000E+00 0. -1.
         25    2    1    2    0    0  0.19017776872E+02  0.20034188456E+02 -0.14903381557E+03  0.19650910195E+03  0.12506679984E+03 0.  0.
          5    1    3    3  502    0 -0.22801813336E+02 -0.59989034086E+01  0.12898427490E+02  0.27198370636E+02  0.41800000000E+01 0.  1.
         -5    1    3    3    0  502  0.41819590207E+02  0.26033091864E+02 -0.16193224306E+03  0.16931073132E+03  0.41800000000E+01 0.  1.
        -11    1    1    2    0    0 -0.54448178276E+02 -0.22288184519E+02  0.64339065574E+02  0.87183041044E+02  0.00000000000E+00 0.  1.
         11    1    1    2    0    0  0.35430401404E+02  0.22539960633E+01  0.33420636601E+02  0.48757899798E+02  0.00000000000E+00 0. -1.
</event>
<event>
 7    1  0.2732144E-009  0.9713493E+02  0.7561462E-02  0.1286439E+00
         -2   -1    0    0    0  501 -0.00000000000E+00  0.00000000000E+00  0.47963353852E+03  0.47963353852E+03  0.00000000000E+00 0.  1.
          2   -1    0    0  501    0  0.00000000000E+00 -0.00000000000E+00 -0.55492821290E+02  0.55492821290E+02  0.00000000000E+00 0. -1.
         25    2    1    2    0    0 -0.30978453464E+02  0.60250790305E+02  0.39287229419E+03  0.41783277494E+03  0.12508303626E+03 0.  0.
          5    1    3    3  502    0 -0.44071800560E+02  0.30576846813E+00  0.40074943076E+02  0.59715078176E+02  0.41800000000E+01 0.  1.
         -5    1    3    3    0  502  0.13093347096E+02  0.59945021837E+02  0.35279735112E+03  0.35811769677E+03  0.41800000000E+01 0.  1.
        -11    1    1    2    0    0 -0.16908582691E+02 -0.16838322091E+02 -0.22815651596E+02  0.33014893869E+02  0.00000000000E+00 0. -1.
         11    1    1    2    0    0  0.47887036155E+02 -0.43412468214E+02  0.54084074637E+02  0.84278691005E+02  0.00000000000E+00 0.  1.
</event>
<event>
 7    1  0.2732144E-009  0.1525560E+03  0.7561462E-02  0.1197367E+00
          1   -1    0    0  501    0  0.00000000000E+00  0.00000000000E+00  0.13182024422E+03  0.13182024422E+03  0.00000000000E+00 0. -1.
         -1   -1    0    0    0  501 -0.00000000000E+00 -0.00000000000E+00 -0.24574717177E+03  0.24574717177E+03  0.00000000000E+00 0.  1.
         25    2    1    2    0    0  0.13230431374E+03 -0.56118850528E+02 -0.65629468482E+02  0.20151509739E+03  0.12508937015E+03 0.  0.
          5    1    3    3  502    0  0.69807068920E+01  0.52932947064E+01 -0.61048859248E+02  0.61815733054E+02  0.41800000000E+01 0. -1.
         -5    1    3    3    0  502  0.12532360685E+03 -0.61412145235E+02 -0.45806092342E+01  0.13969936434E+03  0.41800000000E+01 0. -1.
        -11    1    1    2    0    0 -0.64449731778E+02  0.59673619568E+02 -0.60986293926E+02  0.10693005586E+03  0.00000000000E+00 0.  1.
         11    1    1    2    0    0 -0.67854581960E+02 -0.35547690399E+01  0.12688834864E+02  0.69122262739E+02  0.00000000000E+00 0. -1.
</event>
<event>
 7    1  0.2732144E-009  0.1260891E+03  0.7561462E-02  0.1233377E+00
          2   -1    0    0  501    0  0.00000000000E+00  0.00000000000E+00  0.24385859973E+03  0.24385859973E+03  0.00000000000E+00 0. -1.
         -2   -1    0    0    0  501 -0.00000000000E+00 -0.00000000000E+00 -0.82411350843E+02  0.82411350843E+02  0.00000000000E+00 0.  1.
         25    2    1    2    0    0 -0.29299676323E+02  0.59502163054E+02  0.16166368400E+02  0.14250546790E+03  0.12508988158E+03 0.  0.
          5    1    3    3  502    0 -0.27534324655E-01  0.94845965903E+02  0.48881855866E+01  0.95063793132E+02  0.41800000000E+01 0. -1.
         -5    1    3    3    0  502 -0.29272141998E+02 -0.35343802849E+02  0.11278182814E+02  0.47441674766E+02  0.41800000000E+01 0. -1.
        -11    1    1    2    0    0  0.60116399234E+02 -0.51894500729E+02  0.90089981497E+02  0.12009673363E+03  0.00000000000E+00 0.  1.
         11    1    1    2    0    0 -0.30816722911E+02 -0.76076623255E+01  0.55190898995E+02  0.63667749048E+02  0.00000000000E+00 0. -1.
</event>
<event>
 7    1  0.2732144E-009  0.1032487E+03  0.7561462E-02  0.1273609E+00
         -1   -1    0    0    0  501 -0.00000000000E+00  0.00000000000E+00  0.16033870138E+02  0.16033870138E+02  0.00000000000E+00 0. -1.
          1   -1    0    0  501    0  0.00000000000E+00 -0.00000000000E+00 -0.10718314580E+04  0.10718314580E+04  0.00000000000E+00 0.  1.
         25    2    1    2    0    0  0.28641177540E+02 -0.32125152975E+02 -0.83349747812E+03  0.84393029349E+03  0.12509177320E+03 0.  0.
          5    1    3    3  502    0 -0.25798699203E+02  0.36294115609E+02 -0.27356612544E+03  0.27719800341E+03  0.41800000000E+01 0.  1.
         -5    1    3    3    0  502  0.54439876743E+02 -0.68419268584E+02 -0.55993135268E+03  0.56673229007E+03  0.41800000000E+01 0.  1.
        -11    1    1    2    0    0 -0.43509381662E+02  0.38464952147E+02 -0.22008784585E+03  0.22762091013E+03  0.00000000000E+00 0.  1.
         11    1    1    2    0    0  0.14868204122E+02 -0.63397991715E+01 -0.22122638833E+01  0.16314124519E+02  0.00000000000E+00 0. -1.
</event>
<event>
 7    1  0.3192698E-009  0.8779816E+02  0.7561462E-02  0.1308273E+00
          1   -1    0    0  501    0  0.00000000000E+00  0.00000000000E+00  0.62348289002E+02  0.62348289002E+02  0.00000000000E+00 0. -1.
         -1   -1    0    0    0  501 -0.00000000000E+00 -0.00000000000E+00 -0.24184132842E+03  0.24184132842E+03  0.00000000000E+00 0.  1.
         25    2    1    2    0    0  0.39737218177E+02 -0.16983480748E+02 -0.14908627736E+03  0.19935789367E+03  0.12509742820E+03 0.  0.
          5    1    3    3  502    0 -0.28132539841E+02 -0.49400578385E+02 -0.62588828437E+02  0.84656309793E+02  0.41800000000E+01 0.  1.
         -5    1    3    3    0  502  0.67869758018E+02  0.32417097637E+02 -0.86497448926E+02  0.11470158387E+03  0.41800000000E+01 0.  1.
        -11    1    1    2    0    0 -0.23894365995E+02  0.91142104412E+01 -0.62864132126E+02  0.67866845118E+02  0.00000000000E+00 0.  1.
         11    1    1    2    0    0 -0.15842852183E+02  0.78692703068E+01  0.32457370072E+02  0.36964878634E+02  0.00000000000E+00 0. -1.
</event>
<event>
 7    1  0.2732144E-009  0.2023095E+03  0.7561462E-02  0.1147805E+00
          2   -1    0    0  501    0  0.00000000000E+00  0.00000000000E+00  0.25075163920E+03  0.25075163920E+03  0.00000000000E+00 0. -1.
         -2   -1    0    0    0  501 -0.00000000000E+00 -0.00000000000E+00 -0.18119286899E+03  0.18119286899E+03  0.00000000000E+00 0.  1.
         25    2    1    2    0    0  0.53506552289E+02 -0.17540276193E+03  0.16943563908E+02  0.22262993738E+03  0.12509166490E+03 0.  0.
          5    1    3    3  502    0 -0.17550901458E+02 -0.11300838571E+03 -0.28046714893E+02  0.11782622798E+03  0.41800000000E+01 0.  1.
         -5    1    3    3    0  502  0.71057453747E+02 -0.62394376219E+02  0.44990278802E+02  0.10480370940E+03  0.41800000000E+01 0.  1.
        -11    1    1    2    0    0 -0.67228817292E+02  0.11179313776E+03  0.85603573962E+01  0.13073140114E+03  0.00000000000E+00 0.  1.
         11    1    1    2    0    0  0.13722265003E+02  0.63609624171E+02  0.44054848908E+02  0.78583169676E+02  0.00000000000E+00 0. -1.
</event>
<event>
 7    1  0.2732144E-009  0.1281685E+03  0.7561462E-02  0.1230199E+00
          2   -1    0    0  501    0  0.00000000000E+00  0.00000000000E+00  0.39011505340E+03  0.39011505340E+03  0.00000000000E+00 0. -1.
         -2   -1    0    0    0  501 -0.00000000000E+00 -0.00000000000E+00 -0.62761635832E+02  0.62761635832E+02  0.00000000000E+00 0.  1.
         25    2    1    2    0    0 -0.69315382977E+02 -0.86499466701E+02  0.14955386851E+03  0.22426323906E+03  0.12506342690E+03 0.  0.
          5    1    3    3  502    0 -0.32438143797E+02  0.70635819534E+01  0.11190026498E+03  0.11679584353E+03  0.41800000000E+01 0. -1.
         -5    1    3    3    0  502 -0.36877239181E+02 -0.93563048655E+02  0.37653603538E+02  0.10746739553E+03  0.41800000000E+01 0.  1.
        -11    1    1    2    0    0  0.39782541180E+02  0.83554871532E+02  0.67908746436E+02  0.11478529950E+03  0.00000000000E+00 0.  1.
         11    1    1    2    0    0  0.29532841797E+02  0.29445951694E+01  0.10989080262E+03  0.11382815068E+03  0.00000000000E+00 0. -1.
</event>
<event>
 7    1  0.2732144E-009  0.1284950E+03  0.7561462E-02  0.1229706E+00
         -2   -1    0    0    0  501 -0.00000000000E+00  0.00000000000E+00  0.20957542733E+02  0.20957542733E+02  0.00000000000E+00 0.  1.
          2   -1    0    0  501    0  0.00000000000E+00 -0.00000000000E+00 -0.12870149705E+04  0.12870149705E+04  0.00000000000E+00 0. -1.
         25    2    1    2    0    0  0.61962785337E+02  0.95390517991E+02 -0.86564221362E+03  0.88200046603E+03  0.12509853072E+03 0.  0.
          5    1    3    3  502    0  0.11499819209E+02 -0.11919697168E+02 -0.13872231110E+02  0.22005367945E+02  0.41800000000E+01 0. -1.
         -5    1    3    3    0  502  0.50462966129E+02  0.10731021516E+03 -0.85176998251E+03  0.85999509809E+03  0.41800000000E+01 0. -1.
        -11    1    1    2    0    0 -0.10121397522E+02  0.25488730067E+01  0.70970160877E-01  0.10437647157E+02  0.00000000000E+00 0.  1.
         11    1    1    2    0    0 -0.51841387815E+02 -0.97939390998E+02 -0.40048618430E+03  0.41553440004E+03  0.00000000000E+00 0. -1.
</event>
<event>
 7    1  0.2732144E-009  0.7541662E+02  0.7561462E-02  0.1342586E+00
         -2   -1    0    0    0  501 -0.00000000000E+00  0.00000000000E+00  0.12756004045E+03  0.12756004045E+03  0.00000000000E+00 0.  1.
          2   -1    0    0  501    0  0.00000000000E+00 -0.00000000000E+00 -0.13321803546E+03  0.13321803546E+03  0.00000000000E+00 0. -1.
         25    2    1    2    0    0  0.28952657586E+01  0.89159851408E+01 -0.74717094749E+02  0.14601078488E+03  0.12509447510E+03 0.  0.
          5    1    3    3  502    0 -0.19561558975E+02  0.44576378961E+02 -0.88823122237E+02  0.10137419590E+03  0.41800000000E+01 0.  1.
         -5    1    3    3    0  502  0.22456824734E+02 -0.35660393820E+02  0.14106027488E+02  0.44636588982E+02  0.41800000000E+01 0.  1.
        -11    1    1    2    0    0  0.61662057745E+01  0.24364847437E+02  0.75592925199E+02  0.79661522860E+02  0.00000000000E+00 0.  1.
         11    1    1    2    0    0 -0.90614715332E+01 -0.33280832577E+02 -0.65338254585E+01  0.35105768166E+02  0.00000000000E+00 0. -1.
</event>
<event>
 7    1  0.2732144E-009  0.2003052E+03  0.7561462E-02  0.1149482E+00
         -2   -1    0    0    0  501 -0.00000000000E+00  0.00000000000E+00  0.78679701311E+02  0.78679701311E+02  0.00000000000E+00 0.  1.
          2   -1    0    0  501    0  0.00000000000E+00 -0.00000000000E+00 -0.63144903437E+03  0.63144903437E+03  0.00000000000E+00 0. -1.
         25    2    1    2    0    0  0.13408931417E+02  0.17443560176E+03 -0.42664710925E+03  0.47778867548E+03  0.12508670587E+03 0.  0.
          5    1    3    3  502    0  0.55849662626E+02  0.50870502095E+02 -0.22590346920E+03  0.23823694633E+03  0.41800000000E+01 0. -1.
         -5    1    3    3    0  502 -0.42440731209E+02  0.12356509967E+03 -0.20074364005E+03  0.23955172916E+03  0.41800000000E+01 0. -1.
        -11    1    1    2    0    0 -0.34603060206E+02 -0.23528160063E+02 -0.36661080582E+02  0.55632552710E+02  0.00000000000E+00 0. -1.
         11    1    1    2    0    0  0.21194128789E+02 -0.15090744170E+03 -0.89461143235E+02  0.17670750749E+03  0.00000000000E+00 0.  1.
</event>
<event>
 7    1  0.2732144E-009  0.9221387E+02  0.7561462E-02  0.1297577E+00
          2   -1    0    0  501    0  0.00000000000E+00  0.00000000000E+00  0.18180720735E+03  0.18180720735E+03  0.00000000000E+00 0. -1.
         -2   -1    0    0    0  501 -0.00000000000E+00 -0.00000000000E+00 -0.93071309921E+02  0.93071309921E+02  0.00000000000E+00 0.  1.
         25    2    1    2    0    0 -0.54559370984E+02 -0.39827261760E+02  0.29454168765E+02  0.14518215029E+03  0.12508945984E+03 0.  0.
          5    1    3    3  502    0 -0.16740277066E+02 -0.46377624795E+02 -0.41382676292E+02  0.64506738059E+02  0.41800000000E+01 0.  1.
         -5    1    3    3    0  502 -0.37819093918E+02  0.65503630355E+01  0.70836845057E+02  0.80675412229E+02  0.41800000000E+01 0.  1.
        -11    1    1    2    0    0 -0.15068176348E+02  0.17767891290E+02 -0.13217282649E+02  0.26785153723E+02  0.00000000000E+00 0.  1.
         11    1    1    2    0    0  0.69627547332E+02  0.22059370470E+02  0.72499011312E+02  0.10291121326E+03  0.00000000000E+00 0. -1.
</event>
<event>
 7    1  0.2732144E-009  0.9272844E+02  0.7561462E-02  0.1296376E+00
          1   -1    0    0  501    0  0.00000000000E+00  0.00000000000E+00  0.22913267082E+03  0.22913267082E+03  0.00000000000E+00 0. -1.
         -1   -1    0    0    0  501 -0.00000000000E+00 -0.00000000000E+00 -0.54419386122E+02  0.54419386122E+02  0.00000000000E+00 0.  1.
         25    2    1    2    0    0 -0.22536603857E+02  0.72279691536E+01  0.11898801359E+03  0.17425796685E+03  0.12509016581E+03 0.  0.
          5    1    3    3  502    0  0.51468841606E+02  0.83467256997E+01  0.39352415993E+02  0.65458341948E+02  0.41800000000E+01 0.  1.
         -5    1    3    3    0  502 -0.74005445463E+02 -0.11187565460E+01  0.79635597592E+02  0.10879962490E+03  0.41800000000E+01 0.  1.
        -11    1    1    2    0    0 -0.17582953446E+02 -0.69202807782E+01 -0.17527798938E+02  0.25773518843E+02  0.00000000000E+00 0.  1.
         11    1    1    2    0    0  0.40119557303E+02 -0.30768837543E+00  0.73253070054E+02  0.83520571255E+02  0.00000000000E+00 0. -1.
</event>
<event>
 7    1  0.2732144E-009  0.7425314E+02  0.7561462E-02  0.1346200E+00
          2   -1    0    0  501    0  0.00000000000E+00  0.00000000000E+00  0.15912948521E+03  0.15912948521E+03  0.00000000000E+00 0. -1.
         -2   -1    0    0    0  501 -0.00000000000E+00 -0.00000000000E+00 -0.12549430776E+03  0.12549430776E+03  0.00000000000E+00 0.  1.
         25    2    1    2    0    0  0.12173575558E+02  0.81514192292E+01 -0.75567419560E+02  0.14687538840E+03  0.12508918115E+03 0.  0.
          5    1    3    3  502    0  0.33463944290E+02 -0.14434569756E+02 -0.10040932227E+03  0.10690040585E+03  0.41800000000E+01 0. -1.
         -5    1    3    3    0  502 -0.21290368732E+02  0.22585988985E+02  0.24841902713E+02  0.39974982547E+02  0.41800000000E+01 0. -1.
        -11    1    1    2    0    0  0.33957713048E+02 -0.36767811618E+01  0.66351354079E+02  0.74626718964E+02  0.00000000000E+00 0. -1.
         11    1    1    2    0    0 -0.46131288606E+02 -0.44746380674E+01  0.42851242926E+02  0.63121685613E+02  0.00000000000E+00 0.  1.
</event>
<event>
 7    1  0.2732144E-009  0.1479174E+03  0.7561462E-02  0.1203056E+00
         -1   -1    0    0    0  501 -0.00000000000E+00  0.00000000000E+00  0.14129358328E+02  0.14129358328E+02  0.00000000000E+00 0.  1.
          1   -1    0    0  501    0  0.00000000000E+00 -0.00000000000E+00 -0.19853528629E+04  0.19853528629E+04  0.00000000000E+00 0. -1.
         25    2    1    2    0    0  0.83276639444E+02  0.76706531581E+02 -0.14043140247E+04  0.14144130099E+04  0.12508953571E+03 0.  0.
          5    1    3    3  502    0  0.50129596019E+02  0.10142455888E+03 -0.12306006682E+04  0.12357974731E+04  0.41800000000E+01 0.  1.
         -5    1    3    3    0  502  0.33147043426E+02 -0.24718027297E+02 -0.17371335653E+03  0.17861553684E+03  0.41800000000E+01 0.  1.
        -11    1    1    2    0    0 -0.97159055371E+02 -0.46281483962E+02 -0.36974389003E+03  0.38508752513E+03  0.00000000000E+00 0.  1.
         11    1    1    2    0    0  0.13882415927E+02 -0.30425047619E+02 -0.19716558976E+03  0.19998168611E+03  0.00000000000E+00 0. -1.
</event>
<event>
 7    1  0.2732144E-009  0.1005751E+03  0.7561462E-02  0.1279091E+00
         -2   -1    0    0    0  501 -0.00000000000E+00  0.00000000000E+00  0.13213795194E+02  0.13213795194E+02  0.00000000000E+00 0. -1.
          2   -1    0    0  501    0  0.00000000000E+00 -0.00000000000E+00 -0.12546316457E+04  0.12546316457E+04  0.00000000000E+00 0.  1.
         25    2    1    2    0    0  0.23124504525E+02  0.35725760823E+02 -0.97028587598E+03  0.97924148368E+03  0.12509248393E+03 0.  0.
          5    1    3    3  502    0  0.91750129821E+01  0.68238249246E+02 -0.29263644948E+03  0.30065628795E+03  0.41800000000E+01 0. -1.
         -5    1    3    3    0  502  0.13949491543E+02 -0.32512488423E+02 -0.67764942650E+03  0.67858519572E+03  0.41800000000E+01 0. -1.
        -11    1    1    2    0    0  0.39841956324E+01  0.27482744550E+02 -0.52254644658E+02  0.59175357634E+02  0.00000000000E+00 0. -1.
         11    1    1    2    0    0 -0.27108700157E+02 -0.63208505372E+02 -0.21887732986E+03  0.22942859957E+03  0.00000000000E+00 0.  1.
</event>
<event>
 7    1  0.3406671E-009  0.9052837E+02  0.7561462E-02  0.1301577E+00
         -2   -1    0    0    0  501 -0.00000000000E+00  0.00000000000E+00  0.79198027387E+02  0.79198027387E+02  0.00000000000E+00 0.  1.
          2   -1    0    0  501    0  0.00000000000E+00 -0.00000000000E+00 -0.16718329981E+03  0.16718329981E+03  0.00000000000E+00 0. -1.
         25    2    1    2    0    0 -0.17802574927E+02 -0.36151461926E+01 -0.14454421982E+02  0.12722445972E+03  0.12508849619E+03 0.  0.
          5    1    3    3  502    0  0.37103053130E+02 -0.28593543490E+02 -0.39850868762E+02  0.61642448216E+02  0.41800000000E+01 0. -1.
         -5    1    3    3    0  502 -0.54905628058E+02  0.24978397297E+02  0.25396446780E+02  0.65582011505E+02  0.41800000000E+01 0. -1.
        -11    1    1    2    0    0  0.34160659412E+02 -0.23803099932E+02 -0.30088732378E+01  0.41744359332E+02  0.00000000000E+00 0.  1.
         11    1    1    2    0    0 -0.16358084485E+02  0.27418246125E+02 -0.70521977200E+02  0.77412508142E+02  0.00000000000E+00 0. -1.
</event>
<event>
 7    1  0.2732144E-009  0.1157817E+03  0.7561462E-02  0.1250223E+00
         -2   -1    0    0    0  501 -0.00000000000E+00  0.00000000000E+00  0.38373140720E+03  0.38373140720E+03  0.00000000000E+00 0.  1.
          2   -1    0    0  501    0  0.00000000000E+00 -0.00000000000E+00 -0.41504222342E+02  0.41504222342E+02  0.00000000000E+00 0. -1.
         25    2    1    2    0    0 -0.46890962490E+02 -0.27657745384E+02  0.24629793382E+03  0.28156140143E+03  0.12510170794E+03 0.  0.
          5    1    3    3  502    0  0.39356755233E+02 -0.88512176618E+01  0.39234833282E+02  0.56428209073E+02  0.41800000000E+01 0. -1.
         -5    1    3    3    0  502 -0.86247717723E+02 -0.18806527722E+02  0.20706310054E+03  0.22513319236E+03  0.41800000000E+01 0. -1.
        -11    1    1    2    0    0  0.27549400572E+02  0.59392055947E+02  0.79641301122E+02  0.10309763637E+03  0.00000000000E+00 0. -1.
         11    1    1    2    0    0  0.19341561918E+02 -0.31734310563E+02  0.16287949916E+02  0.40576591734E+02  0.00000000000E+00 0.  1.
</event>
<event>
 7    1  0.2732144E-009  0.1078999E+03  0.7561462E-02  0.1264509E+00
         -2   -1    0    0    0  501 -0.00000000000E+00  0.00000000000E+00  0.38910604234E+02  0.38910604234E+02  0.00000000000E+00 0.  1.
          2   -1    0    0  501    0  0.00000000000E+00 -0.00000000000E+00 -0.36402933032E+03  0.36402933032E+03  0.00000000000E+00 0. -1.
         25    2    1    2    0    0 -0.92641762144E+01 -0.37181277967E+02 -0.23401311615E+03  0.26810037998E+03  0.12508957919E+03 0.  0.
          5    1    3    3  502    0  0.50201021802E+02 -0.40817022929E+02 -0.16232621394E+03  0.17479543496E+03  0.41800000000E+01 0. -1.
         -5    1    3    3    0  502 -0.59465198016E+02  0.36357449627E+01 -0.71686902214E+02  0.93304945022E+02  0.41800000000E+01 0. -1.
        -11    1    1    2    0    0 -0.36872885455E+02  0.12609849718E+02 -0.66474034830E+02  0.77054625418E+02  0.00000000000E+00 0.  1.
         11    1    1    2    0    0  0.46137061669E+02  0.24571428249E+02 -0.24631575108E+02  0.57784929159E+02  0.00000000000E+00 0. -1.
</event>
<event>
 7    1  0.2732144E-009  0.2209800E+03  0.7561462E-02  0.1133155E+00
          2   -1    0    0  501    0  0.00000000000E+00  0.00000000000E+00  0.36867302849E+03  0.36867302849E+03  0.00000000000E+00 0. -1.
         -2   -1    0    0    0  501 -0.00000000000E+00 -0.00000000000E+00 -0.15330393968E+03  0.15330393968E+03  0.00000000000E+00 0.  1.
         25    2    1    2    0    0 -0.16171043911E+03 -0.12958799354E+03  0.65528815444E+02  0.25077266939E+03  0.12509832881E+03 0.  0.
          5    1    3    3  502    0 -0.97043777067E+02 -0.11553946571E+03  0.94850177614E+02  0.17827195909E+03  0.41800000000E+01 0. -1.
         -5    1    3    3    0  502 -0.64666662046E+02 -0.14048527828E+02 -0.29321362171E+02  0.72500710298E+02  0.41800000000E+01 0. -1.
        -11    1    1    2    0    0  0.11971308108E+03  0.40776156147E+02  0.98869562652E+02  0.16052758987E+03  0.00000000000E+00 0. -1.
         11    1    1    2    0    0  0.41997358033E+02  0.88811837396E+02  0.50970710715E+02  0.11067670891E+03  0.00000000000E+00 0.  1.
</event>
<event>
 7    1  0.2732144E-009  0.1083587E+03  0.7561462E-02  0.1263640E+00
         -1   -1    0    0    0  501 -0.00000000000E+00  0.00000000000E+00  0.30576992829E+03  0.30576992829E+03  0.00000000000E+00 0.  1.
          1   -1    0    0  501    0  0.00000000000E+00 -0.00000000000E+00 -0.53461702778E+02  0.53461702778E+02  0.00000000000E+00 0. -1.
         25    2    1    2    0    0  0.52895594853E+02  0.11496785262E+02  0.85735715147E+02  0.16102954417E+03  0.12509908560E+03 0.  0.
          5    1    3    3  502    0  0.65462992081E+02 -0.25866107131E+02  0.96906393927E+02  0.11984481805E+03  0.41800000000E+01 0.  1.
         -5    1    3    3    0  502 -0.12567397228E+02  0.37362892393E+02 -0.11170678780E+02  0.41184726118E+02  0.41800000000E+01 0.  1.
        -11    1    1    2    0    0  0.26112383991E+02 -0.86414074944E+01  0.54536440709E+02  0.61079897563E+02  0.00000000000E+00 0.  1.
         11    1    1    2    0    0 -0.79007978844E+02 -0.28553777675E+01  0.11203606966E+03  0.13712218933E+03  0.00000000000E+00 0. -1.
</event>
<event>
 7    1  0.2732144E-009  0.1271496E+03  0.7561462E-02  0.1231748E+00
          1   -1    0    0  501    0  0.00000000000E+00  0.00000000000E+00  0.50268066006E+03  0.50268066006E+03  0.00000000000E+00 0. -1.
         -1   -1    0    0    0  501 -0.00000000000E+00 -0.00000000000E+00 -0.59356701915E+02  0.59356701915E+02  0.00000000000E+00 0.  1.
         25    2    1    2    0    0  0.28487309517E+02 -0.75580212650E+02  0.60430413526E+02  0.16069372824E+03  0.12508694603E+03 0.  0.
          5    1    3    3  502    0 -0.37332947372E+02  0.14982073270E+01 -0.78553425686E+01  0.38407973021E+02  0.41800000000E+01 0. -1.
         -5    1    3    3    0  502  0.65820256889E+02 -0.77078419977E+02  0.68285756095E+02  0.12228575522E+03  0.41800000000E+01 0. -1.
        -11    1    1    2    0    0 -0.55856658255E+02  0.33720571623E+02  0.27163278051E+03  0.27935892803E+03  0.00000000000E+00 0. -1.
         11    1    1    2    0    0  0.27369348738E+02  0.41859641027E+02  0.11126076411E+03  0.12198470571E+03  0.00000000000E+00 0.  1.
</event>
<event>
 7    1  0.2732144E-009  0.1124490E+03  0.7561462E-02  0.1256101E+00
         -2   -1    0    0    0  501 -0.00000000000E+00  0.00000000000E+00  0.71634097749E+02  0.71634097749E+02  0.00000000000E+00 0.  1.
          2   -1    0    0  501    0  0.00000000000E+00 -0.00000000000E+00 -0.28567229824E+03  0.28567229824E+03  0.00000000000E+00 0. -1.
         25    2    1    2    0    0 -0.44439950598E+02  0.52692895909E+02 -0.37613850142E+02  0.14769380217E+03  0.12508879641E+03 0.  0.
          5    1    3    3  502    0 -0.43974615594E+01 -0.26416892024E+02  0.26724706452E+02  0.38064053743E+02  0.41800000000E+01 0.  1.
         -5    1    3    3    0  502 -0.40042489039E+02  0.79109787934E+02 -0.64338556594E+02  0.10962974843E+03  0.41800000000E+01 0.  1.
        -11    1    1    2    0    0  0.55974979911E+02 -0.91636705194E+00 -0.62269372677E+02  0.83734776993E+02  0.00000000000E+00 0.  1.
         11    1    1    2    0    0 -0.11535029313E+02 -0.51776528858E+02 -0.11415497768E+03  0.12587781683E+03  0.00000000000E+00 0. -1.
</event>
<event>
 7    1  0.4370809E-009  0.1510026E+03  0.7561462E-02  0.1199246E+00
          1   -1    0    0  501    0  0.00000000000E+00  0.00000000000E+00  0.31533236594E+03  0.31533236594E+03  0.00000000000E+00 0. -1.
         -1   -1    0    0    0  501 -0.00000000000E+00 -0.00000000000E+00 -0.12566028234E+03  0.12566028234E+03  0.00000000000E+00 0.  1.
         25    2    1    2    0    0  0.13436673402E+03  0.44332002224E+02  0.19684343664E+03  0.27278978620E+03  0.12508870162E+03 0.  0.
          5    1    3    3  502    0  0.13429544196E+03  0.22809014944E+02  0.20762514915E+03  0.24835698471E+03  0.41800000000E+01 0.  1.
         -5    1    3    3    0  502  0.71292059680E-01  0.21522987281E+02 -0.10781712507E+02  0.24432801490E+02  0.41800000000E+01 0.  1.
        -11    1    1    2    0    0 -0.90425612090E+02 -0.16885702701E+02 -0.46579665304E+02  0.10310957035E+03  0.00000000000E+00 0.  1.
         11    1    1    2    0    0 -0.43941121932E+02 -0.27446299524E+02  0.39408312261E+02  0.65093291740E+02  0.00000000000E+00 0. -1.
</event>
<event>
 7    1  0.2732144E-009  0.1084221E+03  0.7561462E-02  0.1263520E+00
         -2   -1    0    0    0  501 -0.00000000000E+00  0.00000000000E+00  0.11594812844E+03  0.11594812844E+03  0.00000000000E+00 0.  1.
          2   -1    0    0  501    0  0.00000000000E+00 -0.00000000000E+00 -0.15715503031E+03  0.15715503031E+03  0.00000000000E+00 0. -1.
         25    2    1    2    0    0  0.69043438421E+01  0.75658006013E+02  0.55688901851E+01  0.14646115198E+03  0.12509217667E+03 0.  0.
          5    1    3    3  502    0  0.36347314360E+02  0.35153150365E+02 -0.50212728234E+02  0.71383903777E+02  0.41800000000E+01 0. -1.
         -5    1    3    3    0  502 -0.29442970518E+02  0.40504855648E+02  0.55781618419E+02  0.75077248201E+02  0.41800000000E+01 0. -1.
        -11    1    1    2    0    0 -0.43460202109E+02 -0.64238321544E+02 -0.41555466435E+02  0.87989817097E+02  0.00000000000E+00 0. -1.
         11    1    1    2    0    0  0.36555858267E+02 -0.11419684469E+02 -0.52203256150E+01  0.38652189673E+02  0.00000000000E+00 0.  1.
</event>
<event>
 7    1  0.2732144E-009  0.1199258E+03  0.7561462E-02  0.1243220E+00
         -1   -1    0    0    0  501 -0.00000000000E+00  0.00000000000E+00  0.13222349289E+03  0.13222349289E+03  0.00000000000E+00 0.  1.
          1   -1    0    0  501    0  0.00000000000E+00 -0.00000000000E+00 -0.21386326034E+03  0.21386326034E+03  0.00000000000E+00 0. -1.
         25    2    1    2    0    0 -0.49096999561E+02  0.25696485499E+02  0.75311785434E+02  0.15617543257E+03  0.12509226987E+03 0.  0.
          5    1    3    3  502    0  0.36434192387E+02 -0.13205177265E+02  0.39610397711E+02  0.55572323042E+02  0.41800000000E+01 0.  1.
         -5    1    3    3    0  502 -0.85531191948E+02  0.38901662764E+02  0.35701387724E+02  0.10060310953E+03  0.41800000000E+01 0.  1.
        -11    1    1    2    0    0  0.72802726549E+02 -0.13188563110E+01 -0.11085166318E+03  0.13262755221E+03  0.00000000000E+00 0.  1.
         11    1    1    2    0    0 -0.23705726988E+02 -0.24377629188E+02 -0.46099889708E+02  0.57283768451E+02  0.00000000000E+00 0. -1.
</event>
<event>
 7    1  0.2732144E-009  0.7018343E+02  0.7561462E-02  0.1359470E+00
          3   -1    0    0  501    0  0.00000000000E+00  0.00000000000E+00  0.28891093712E+02  0.28891093712E+02  0.00000000000E+00 0. -1.
         -3   -1    0    0    0  501 -0.00000000000E+00 -0.00000000000E+00 -0.51034224219E+03  0.51034224219E+03  0.00000000000E+00 0.  1.
         25    2    1    2    0    0  0.31072208055E+02 -0.38438333795E+02 -0.33274389192E+03  0.35889944355E+03  0.12508926952E+03 0.  0.
          5    1    3    3  502    0  0.10229319090E+01 -0.17806284003E+02 -0.31929913777E+03  0.31982420472E+03  0.41800000000E+01 0. -1.
         -5    1    3    3    0  502  0.30049276146E+02 -0.20632049792E+02 -0.13444754146E+02  0.39075238829E+02  0.41800000000E+01 0. -1.
        -11    1    1    2    0    0  0.20170801137E+02 -0.17349179177E+01 -0.91331463057E+02  0.93548422236E+02  0.00000000000E+00 0.  1.
         11    1    1    2    0    0 -0.51243009192E+02  0.40173251713E+02 -0.57375793506E+02  0.86785470124E+02  0.00000000000E+00 0. -1.
</event>
<event>
 7    1  0.2732144E-009  0.1240534E+03  0.7561462E-02  0.1236556E+00
          1   -1    0    0  501    0  0.00000000000E+00  0.00000000000E+00  0.18620731722E+04  0.18620731722E+04  0.00000000000E+00 0. -1.
         -1   -1    0    0    0  501 -0.00000000000E+00 -0.00000000000E+00 -0.14835917694E+02  0.14835917694E+02  0.00000000000E+00 0.  1.
         25    2    1    2    0    0 -0.45705103030E+02 -0.75340728189E+02  0.15031843123E+04  0.15109520350E+04  0.12509114144E+03 0.  0.
          5    1    3    3  502    0  0.12426481826E+02 -0.63559381837E+02  0.12131915460E+04  0.12149260933E+04  0.41800000000E+01 0. -1.
         -5    1    3    3    0  502 -0.58131584856E+02 -0.11781346352E+02  0.28999276624E+03  0.29602594169E+03  0.41800000000E+01 0. -1.
        -11    1    1    2    0    0  0.67338585731E+02  0.30421465274E+02  0.18269565050E+03  0.19707270585E+03  0.00000000000E+00 0.  1.
         11    1    1    2    0    0 -0.21633482701E+02  0.44919262914E+02  0.16135729169E+03  0.16888434900E+03  0.00000000000E+00 0. -1.
</event>
<event>
 7    1  0.2732144E-009  0.1083304E+03  0.7561462E-02  0.1263693E+00
          1   -1    0    0  501    0  0.00000000000E+00  0.00000000000E+00  0.48151549128E+02  0.48151549128E+02  0.00000000000E+00 0. -1.
         -1   -1    0    0    0  501 -0.00000000000E+00 -0.00000000000E+00 -0.31648505421E+03  0.31648505421E+03  0.00000000000E+00 0.  1.
         25    2    1    2    0    0 -0.26072844161E+02 -0.20981913899E+02 -0.77198676104E+02  0.15075159758E+03  0.12508546945E+03 0.  0.
          5    1    3    3  502    0  0.19951448177E+02 -0.60879174399E+02 -0.58611526912E+02  0.86931683791E+02  0.41800000000E+01 0.  1.
         -5    1    3    3    0  502 -0.46024292338E+02  0.39897260500E+02 -0.18587149192E+02  0.63819913786E+02  0.41800000000E+01 0.  1.
        -11    1    1    2    0    0 -0.31358783331E+02  0.10162777951E+02 -0.10289842289E+03  0.10804971440E+03  0.00000000000E+00 0.  1.
         11    1    1    2    0    0  0.57431627491E+02  0.10819135948E+02 -0.88236406085E+02  0.10583529136E+03  0.00000000000E+00 0. -1.
</event>
<event>
 7    1  0.2732144E-009  0.1372078E+03  0.7561462E-02  0.1217136E+00
         -2   -1    0    0    0  501 -0.00000000000E+00  0.00000000000E+00  0.52499174555E+02  0.52499174555E+02  0.00000000000E+00 0.  1.
          2   -1    0    0  501    0  0.00000000000E+00 -0.00000000000E+00 -0.53941171397E+03  0.53941171397E+03  0.00000000000E+00 0. -1.
         25    2    1    2    0    0  0.10055813350E+03  0.64538225739E+02 -0.18021306908E+03  0.24980310818E+03  0.12509085416E+03 0.  0.
          5    1    3    3  502    0 -0.11913861056E+02 -0.38734206376E+01  0.11292871418E+02  0.17376559428E+02  0.41800000000E+01 0.  1.
         -5    1    3    3    0  502  0.11247199456E+03  0.68411646377E+02 -0.19150594050E+03  0.23242654875E+03  0.41800000000E+01 0.  1.
        -11    1    1    2    0    0 -0.40440838107E+02 -0.55552638623E+02 -0.71439213525E+02  0.99121734619E+02  0.00000000000E+00 0.  1.
         11    1    1    2    0    0 -0.60117295396E+02 -0.89855871165E+01 -0.23526025681E+03  0.24298604572E+03  0.00000000000E+00 0. -1.
</event>
<event>
 7    1  0.2732144E-009  0.9759041E+02  0.7561462E-02  0.1285446E+00
          1   -1    0    0  501    0  0.00000000000E+00  0.00000000000E+00  0.20921576562E+03  0.20921576562E+03  0.00000000000E+00 0. -1.
         -1   -1    0    0    0  501 -0.00000000000E+00 -0.00000000000E+00 -0.69780849747E+02  0.69780849747E+02  0.00000000000E+00 0.  1.
         25    2    1    2    0    0 -0.52152758533E+02  0.52083185120E+01  0.62108076897E+02  0.14917305854E+03  0.12509257121E+03 0.  0.
          5    1    3    3  502    0  0.21485024304E+02 -0.18248319422E+02 -0.21157159353E+02  0.35492326254E+02  0.41800000000E+01 0.  1.
         -5    1    3    3    0  502 -0.73637782837E+02  0.23456637934E+02  0.83265236250E+02  0.11368073228E+03  0.41800000000E+01 0.  1.
        -11    1    1    2    0    0  0.65095885403E+02 -0.21432024784E+02  0.83638901559E+02  0.10813080892E+03  0.00000000000E+00 0. -1.
         11    1    1    2    0    0 -0.12943126869E+02  0.16223706272E+02 -0.63120625782E+01  0.21692747921E+02  0.00000000000E+00 0.  1.
</event>
<event>
 7    1  0.2732144E-009  0.1223823E+03  0.7561462E-02  0.1239218E+00
          2   -1    0    0  501    0  0.00000000000E+00  0.00000000000E+00  0.98261589816E+03  0.98261589816E+03  0.00000000000E+00 0. -1.
         -2   -1    0    0    0  501 -0.00000000000E+00 -0.00000000000E+00 -0.18552607060E+02  0.18552607060E+02  0.00000000000E+00 0.  1.
         25    2    1    2    0    0 -0.72789791993E+02  0.25638559654E+02  0.43425523763E+03  0.45845548414E+03  0.12509248568E+03 0.  0.
          5    1    3    3  502    0 -0.55920575843E+02 -0.41052914209E+02  0.29504327923E+03  0.30311790047E+03  0.41800000000E+01 0.  1.
         -5    1    3    3    0  502 -0.16869216149E+02  0.66691473863E+02  0.13921195840E+03  0.15533758367E+03  0.41800000000E+01 0.  1.
        -11    1    1    2    0    0 -0.10732782460E+02  0.10797207868E+02  0.21755818234E+02  0.26553492127E+02  0.00000000000E+00 0.  1.
         11    1    1    2    0    0  0.83522574453E+02 -0.36435767522E+02  0.50805223523E+03  0.51615952895E+03  0.00000000000E+00 0. -1.
</event>
<event>
 7    1  0.2732144E-009  0.1707990E+03  0.7561462E-02  0.1177017E+00
          1   -1    0    0  501    0  0.00000000000E+00  0.00000000000E+00  0.95725029302E+03  0.95725029302E+03  0.00000000000E+00 0. -1.
         -1   -1    0    0    0  501 -0.00000000000E+00 -0.00000000000E+00 -0.43179000319E+02  0.43179000319E+02  0.00000000000E+00 0.  1.
         25    2    1    2    0    0 -0.83120094546E+01 -0.15827697479E+03  0.31496811660E+03  0.37412961246E+03  0.12508941680E+03 0.  0.
          5    1    3    3  502    0  0.30023930933E+02 -0.51144480272E+02  0.21347676607E+03  0.22160098453E+03  0.41800000000E+01 0. -1.
         -5    1    3    3    0  502 -0.38335940387E+02 -0.10713249451E+03  0.10149135053E+03  0.15252862793E+03  0.41800000000E+01 0. -1.
        -11    1    1    2    0    0 -0.23796922215E+02  0.85248143213E+02  0.19151268601E+03  0.21097546856E+03  0.00000000000E+00 0. -1.
         11    1    1    2    0    0  0.32108931670E+02  0.73028831572E+02  0.40759049009E+03  0.41532421233E+03  0.00000000000E+00 0.  1.
</event>
<event>
 7    1  0.2732144E-009  0.1440557E+03  0.7561462E-02  0.1207974E+00
         -1   -1    0    0    0  501 -0.00000000000E+00  0.00000000000E+00  0.76907238045E+03  0.76907238045E+03  0.00000000000E+00 0.  1.
          1   -1    0    0  501    0  0.00000000000E+00 -0.00000000000E+00 -0.38063643027E+02  0.38063643027E+02  0.00000000000E+00 0. -1.
         25    2    1    2    0    0 -0.12352264206E+03 -0.24189536079E+02  0.29540753006E+03  0.34461009429E+03  0.12509009358E+03 0.  0.
          5    1    3    3  502    0 -0.84127089066E+02 -0.61656127375E+02  0.11127129515E+03  0.15257004516E+03  0.41800000000E+01 0.  1.
         -5    1    3    3    0  502 -0.39395552990E+02  0.37466591296E+02  0.18413623492E+03  0.19204004912E+03  0.41800000000E+01 0.  1.
        -11    1    1    2    0    0  0.90930568130E+02  0.30679495526E+02  0.40856776087E+03  0.41968704399E+03  0.00000000000E+00 0.  1.
         11    1    1    2    0    0  0.32592073926E+02 -0.64899594469E+01  0.27033446489E+02  0.42838885203E+02  0.00000000000E+00 0. -1.
</event>
<event>
 7    1  0.2732144E-009  0.1438320E+03  0.7561462E-02  0.1208264E+00
          2   -1    0    0  501    0  0.00000000000E+00  0.00000000000E+00  0.10830412255E+04  0.10830412255E+04  0.00000000000E+00 0. -1.
         -2   -1    0    0    0  501 -0.00000000000E+00 -0.00000000000E+00 -0.28400973416E+02  0.28400973416E+02  0.00000000000E+00 0.  1.
         25    2    1    2    0    0  0.50441044972E+02 -0.12483908597E+03  0.64715401153E+03  0.67274497766E+03  0.12509354071E+03 0.  0.
          5    1    3    3  502    0  0.14227470071E+02 -0.37963421216E+02  0.47289290034E+03  0.47464598370E+03  0.41800000000E+01 0.  1.
         -5    1    3    3    0  502  0.36213574901E+02 -0.86875664756E+02  0.17426111119E+03  0.19809899395E+03  0.41800000000E+01 0.  1.
        -11    1    1    2    0    0 -0.24306776194E+02  0.12419471325E+03  0.26297817532E+03  0.29184356574E+03  0.00000000000E+00 0.  1.
         11    1    1    2    0    0 -0.26134268778E+02  0.64437272179E+00  0.14450806528E+03  0.14685365556E+03  0.00000000000E+00 0. -1.
</event>
<event>
 7    1  0.2732144E-009  0.1106975E+03  0.7561462E-02  0.1259284E+00
         -3   -1    0    0    0  501 -0.00000000000E+00  0.00000000000E+00  0.22341373206E+02  0.22341373206E+02  0.00000000000E+00 0.  1.
          3   -1    0    0  501    0  0.00000000000E+00 -0.00000000000E+00 -0.88802953683E+03  0.88802953683E+03  0.00000000000E+00 0. -1.
         25    2    1    2    0    0 -0.48027865127E+02 -0.59459514444E+02 -0.64295381576E+03  0.65945367871E+03  0.12508970972E+03 0.  0.
          5    1    3    3  502    0 -0.56205592162E+02 -0.84851731007E+01 -0.55080375217E+03  0.55374480815E+03  0.41800000000E+01 0.  1.
         -5    1    3    3    0  502  0.81777270349E+01 -0.50974341343E+02 -0.92150063587E+02  0.10570887055E+03  0.41800000000E+01 0.  1.
        -11    1    1    2    0    0  0.67082956256E+02  0.64322406340E+02 -0.15848252489E+03  0.18372317674E+03  0.00000000000E+00 0. -1.
         11    1    1    2    0    0 -0.19055091129E+02 -0.48628918965E+01 -0.64251822978E+02  0.67194054585E+02  0.00000000000E+00 0.  1.
</event>
<event>
 7    1  0.2732144E-009  0.8282038E+02  0.7561462E-02  0.1321233E+00
         -1   -1    0    0    0  501 -0.00000000000E+00  0.00000000000E+00  0.20357920187E+02  0.20357920187E+02  0.00000000000E+00 0.  1.
          1   -1    0    0  501    0  0.00000000000E+00 -0.00000000000E+00 -0.63833929590E+03  0.63833929590E+03  0.00000000000E+00 0. -1.
         25    2    1    2    0    0  0.17327931846E+02  0.53101437387E+01 -0.44953120606E+03  0.46696291798E+03  0.12509039410E+03 0.  0.
          5    1    3    3  502    0  0.40985399414E+02 -0.13877782343E+02 -0.50023375745E+02  0.66273722763E+02  0.41800000000E+01 0. -1.
         -5    1    3    3    0  502 -0.23657467568E+02  0.19187926082E+02 -0.39950783031E+03  0.40068919521E+03  0.41800000000E+01 0. -1.
        -11    1    1    2    0    0 -0.35017330743E+02  0.33693220271E+02 -0.95107313521E+02  0.10680284467E+03  0.00000000000E+00 0. -1.
         11    1    1    2    0    0  0.17689398897E+02 -0.39003364010E+02 -0.73342856129E+02  0.84931453435E+02  0.00000000000E+00 0.  1.
</event>
<event>
 7    1  0.2732144E-009  0.1160039E+03  0.7561462E-02  0.1249839E+00
          1   -1    0    0  501    0  0.00000000000E+00  0.00000000000E+00  0.29522656775E+03  0.29522656775E+03  0.00000000000E+00 0. -1.
         -1   -1    0    0    0  501 -0.00000000000E+00 -0.00000000000E+00 -0.74768364964E+02  0.74768364964E+02  0.00000000000E+00 0.  1.
         25    2    1    2    0    0  0.57995602343E+02 -0.82162129225E+02  0.12842848777E+03  0.20556121775E+03  0.12508969742E+03 0.  0.
          5    1    3    3  502    0  0.65162744908E+02 -0.39106870755E+02  0.14075376150E+03  0.16001445072E+03  0.41800000000E+01 0. -1.
         -5    1    3    3    0  502 -0.71671425647E+01 -0.43055258470E+02 -0.12325273723E+02  0.45546767029E+02  0.41800000000E+01 0. -1.
        -11    1    1    2    0    0 -0.39572360687E+02  0.84664515631E+02  0.27705489876E+02  0.97476387431E+02  0.00000000000E+00 0.  1.
         11    1    1    2    0    0 -0.18423241656E+02 -0.25023864055E+01  0.64324225135E+02  0.66957327531E+02  0.00000000000E+00 0. -1.
</event>
<event>
 7    1  0.2732144E-009  0.9087716E+02  0.7561462E-02  0.1300741E+00
         -2   -1    0    0    0  501 -0.00000000000E+00  0.00000000000E+00  0.94228582289E+02  0.94228582289E+02  0.00000000000E+00 0.  1.
          2   -1    0    0  501    0  0.00000000000E+00 -0.00000000000E+00 -0.15677823234E+03  0.15677823234E+03  0.00000000000E+00 0. -1.
         25    2    1    2    0    0 -0.19571586230E+02 -0.50792430176E+02 -0.26210009764E+02  0.13891586061E+03  0.12509090201E+03 0.  0.
          5    1    3    3  502    0 -0.30726860884E+02 -0.67319983712E+02  0.29365240334E+02  0.79723960806E+02  0.41800000000E+01 0.  1.
         -5    1    3    3    0  502  0.11155274654E+02  0.16527553535E+02 -0.55575250098E+02  0.59191899800E+02  0.41800000000E+01 0.  1.
        -11    1    1    2    0    0  0.39973763167E+02  0.93242325492E+01 -0.49243968971E+02  0.64107811804E+02  0.00000000000E+00 0.  1.
         11    1    1    2    0    0 -0.20402176938E+02  0.41468197627E+02  0.12904328685E+02  0.47983142217E+02  0.00000000000E+00 0. -1.
</event>
<event>
 7    1  0.3844195E-009  0.1429050E+03  0.7561462E-02  0.1209473E+00
         -2   -1    0    0    0  501 -0.00000000000E+00  0.00000000000E+00  0.42991388403E+02  0.42991388403E+02  0.00000000000E+00 0.  1.
          2   -1    0    0  501    0  0.00000000000E+00 -0.00000000000E+00 -0.58078127573E+03  0.58078127573E+03  0.00000000000E+00 0. -1.
         25    2    1    2    0    0 -0.38196291217E+02 -0.10751375501E+03 -0.29261367720E+03  0.33806594007E+03  0.12509057348E+03 0.  0.
          5    1    3    3  502    0 -0.71460790455E+02 -0.10859287585E+03 -0.19116392704E+03  0.23121456844E+03  0.41800000000E+01 0. -1.
         -5    1    3    3    0  502  0.33264499238E+02  0.10791208455E+01 -0.10144975017E+03  0.10685137163E+03  0.41800000000E+01 0. -1.
        -11    1    1    2    0    0  0.41469746659E+02  0.51625119758E+02 -0.50888052636E+02  0.83513392813E+02  0.00000000000E+00 0.  1.
         11    1    1    2    0    0 -0.32734554421E+01  0.55888635249E+02 -0.19428815749E+03  0.20219333125E+03  0.00000000000E+00 0. -1.
</event>
<event>
 6    1  0.2732144E-009  0.1297173E+03  0.7561462E-02  0.1227876E+00
         -2   -1    0    0    0  501 -0.00000000000E+00  0.00000000000E+00  0.30826685138E+02  0.30826685138E+02  0.00000000000E+00 0. -1.
          2   -1    0    0  501    0  0.00000000000E+00 -0.00000000000E+00 -0.56119027674E+03  0.56119027674E+03  0.00000000000E+00 0.  1.
          5    1    1    2  502    0 -0.24432272031E+02  0.10261589606E+03 -0.23214413017E+03  0.25502024942E+03  0.41800000000E+01 0. -1.
         -5    1    1    2    0  502 -0.12877217514E+02 -0.37774317143E+02 -0.88059257515E+02  0.96771002891E+02  0.41800000000E+01 0. -1.
        -11    1    1    2    0    0  0.61874704302E+02 -0.64204455001E+02 -0.18319757242E+03  0.20374504071E+03  0.00000000000E+00 0.  1.
         11    1    1    2    0    0 -0.24565214756E+02 -0.63712391487E+00 -0.26962631497E+02  0.36480668856E+02  0.00000000000E+00 0. -1.
</event>
<event>
 7    1  0.2732144E-009  0.2105968E+03  0.7561462E-02  0.1141094E+00
         -1   -1    0    0    0  501 -0.00000000000E+00  0.00000000000E+00  0.43089149244E+02  0.43089149244E+02  0.00000000000E+00 0.  1.
          1   -1    0    0  501    0  0.00000000000E+00 -0.00000000000E+00 -0.11922783865E+04  0.11922783865E+04  0.00000000000E+00 0. -1.
         25    2    1    2    0    0 -0.19248660481E+02  0.19520790678E+03 -0.67084896442E+03  0.71004366784E+03  0.12508812644E+03 0.  0.
          5    1    3    3  502    0  0.44176938435E+02  0.66769938304E+02 -0.15300206024E+03  0.17273369500E+03  0.41800000000E+01 0. -1.
         -5    1    3    3    0  502 -0.63425598916E+02  0.12843796847E+03 -0.51784690417E+03  0.53730997283E+03  0.41800000000E+01 0. -1.
        -11    1    1    2    0    0  0.25254134044E+02 -0.16455421044E+03 -0.45977299484E+03  0.48898575260E+03  0.00000000000E+00 0.  1.
         11    1    1    2    0    0 -0.60054735630E+01 -0.30653696340E+02 -0.18567278000E+02  0.36338115311E+02  0.00000000000E+00 0. -1.
</event>
<event>
 7    1  0.2732144E-009  0.1040841E+03  0.7561462E-02  0.1271935E+00
         -1   -1    0    0    0  501 -0.00000000000E+00  0.00000000000E+00  0.32475139994E+03  0.32475139994E+03  0.00000000000E+00 0.  1.
          1   -1    0    0  501    0  0.00000000000E+00 -0.00000000000E+00 -0.54947309737E+02  0.54947309737E+02  0.00000000000E+00 0. -1.
         25    2    1    2    0    0 -0.20186537936E+02 -0.19949461437E+01  0.25578453974E+03  0.28545430185E+03  0.12508777538E+03 0.  0.
          5    1    3    3  502    0 -0.69107062295E+02 -0.23481722101E+02  0.14506221554E+03  0.16244290107E+03  0.41800000000E+01 0. -1.
         -5    1    3    3    0  502  0.48920524359E+02  0.21486775957E+02  0.11072232420E+03  0.12301140078E+03  0.41800000000E+01 0. -1.
        -11    1    1    2    0    0  0.29008285402E+02  0.36058914178E+02 -0.14984082921E+02  0.48644101951E+02  0.00000000000E+00 0. -1.
         11    1    1    2    0    0 -0.88217474652E+01 -0.34063968034E+02  0.29003633389E+02  0.45600305880E+02  0.00000000000E+00 0.  1.
</event>
<event>
 7    1  0.2732144E-009  0.8260040E+02  0.7561462E-02  0.1321830E+00
         -2   -1    0    0    0  501 -0.00000000000E+00  0.00000000000E+00  0.55796472269E+02  0.55796472269E+02  0.00000000000E+00 0.  1.
          2   -1    0    0  501    0  0.00000000000E+00 -0.00000000000E+00 -0.38006706338E+03  0.38006706338E+03  0.00000000000E+00 0. -1.
         25    2    1    2    0    0  0.71163251672E+02  0.26453029347E+01 -0.79752233840E+02  0.16455030848E+03  0.12508069076E+03 0.  0.
          5    1    3    3  502    0  0.13596080590E+00 -0.52096579191E+01  0.31531831908E+02  0.32231783141E+02  0.41800000000E+01 0.  1.
         -5    1    3    3    0  502  0.71027290866E+02  0.78549608538E+01 -0.11128406575E+03  0.13231852534E+03  0.41800000000E+01 0.  1.
        -11    1    1    2    0    0 -0.57824686227E+02 -0.23306522172E+02 -0.23777514872E+03  0.24581275325E+03  0.00000000000E+00 0. -1.
         11    1    1    2    0    0 -0.13338565445E+02  0.20661219237E+02 -0.67432085512E+01  0.25500473918E+02  0.00000000000E+00 0.  1.
</event>
<event>
 7    1  0.2811817E-009  0.1268976E+03  0.7561462E-02  0.1232133E+00
          2   -1    0    0  501    0  0.00000000000E+00  0.00000000000E+00  0.77694066547E+03  0.77694066547E+03  0.00000000000E+00 0. -1.
         -2   -1    0    0    0  501 -0.00000000000E+00 -0.00000000000E+00 -0.32451576188E+02  0.32451576188E+02  0.00000000000E+00 0.  1.
         25    2    1    2    0    0  0.65962882898E+02  0.88120505800E+02  0.30912904007E+03  0.35117460459E+03  0.12508602650E+03 0.  0.
          5    1    3    3  502    0  0.62378055604E+02  0.70692111155E+02  0.31738564725E+03  0.33111858582E+03  0.41800000000E+01 0.  1.
         -5    1    3    3    0  502  0.35848272945E+01  0.17428394644E+02 -0.82566071709E+01  0.20056018762E+02  0.41800000000E+01 0.  1.
        -11    1    1    2    0    0  0.22088140272E+02 -0.20372355233E+02  0.66157347465E+02  0.72661636522E+02  0.00000000000E+00 0.  1.
         11    1    1    2    0    0 -0.88051023171E+02 -0.67748150567E+02  0.36920270174E+03  0.38555600055E+03  0.00000000000E+00 0. -1.
</event>
<event>
 7    1  0.2732144E-009  0.1119586E+03  0.7561462E-02  0.1256985E+00
          2   -1    0    0  501    0  0.00000000000E+00  0.00000000000E+00  0.67510879731E+02  0.67510879731E+02  0.00000000000E+00 0. -1.
         -2   -1    0    0    0  501 -0.00000000000E+00 -0.00000000000E+00 -0.32367529889E+03  0.32367529889E+03  0.00000000000E+00 0.  1.
         25    2    1    2    0    0 -0.56619806004E+02  0.42053646539E+02 -0.23504780322E+03  0.27544381635E+03  0.12509002578E+03 0.  0.
          5    1    3    3  502    0  0.25105253327E+02 -0.26541182443E+02 -0.57008803468E+02  0.67839399930E+02  0.41800000000E+01 0. -1.
         -5    1    3    3    0  502 -0.81725059331E+02  0.68594828982E+02 -0.17803899975E+03  0.20760441642E+03  0.41800000000E+01 0. -1.
        -11    1    1    2    0    0  0.40818991207E+02 -0.63333668578E+01 -0.51670635715E+02  0.66152522054E+02  0.00000000000E+00 0.  1.
         11    1    1    2    0    0  0.15800814797E+02 -0.35720279681E+02  0.30554019771E+02  0.49589840219E+02  0.00000000000E+00 0. -1.
</event>
<event>
 7    1  0.2732144E-009  0.1019748E+03  0.7561462E-02  0.1276197E+00
         -2   -1    0    0    0  501 -0.00000000000E+00  0.00000000000E+00  0.11658715793E+03  0.11658715793E+03  0.00000000000E+00 0. -1.
          2   -1    0    0  501    0  0.00000000000E+00 -0.00000000000E+00 -0.10887977881E+03  0.10887977881E+03  0.00000000000E+00 0.  1.
         25    2    1    2    0    0 -0.76939342527E+00  0.30887966252E+02  0.14849424981E+02  0.12970206526E+03  0.12508981527E+03 0.  0.
          5    1    3    3  502    0  0.32587591186E+02 -0.34514917998E+02  0.27599976710E+02  0.55067792566E+02  0.41800000000E+01 0. -1.
         -5    1    3    3    0  502 -0.33356984612E+02  0.65402884250E+02 -0.12750551729E+02  0.74634272690E+02  0.41800000000E+01 0. -1.
        -11    1    1    2    0    0 -0.35999617700E+02 -0.20968243870E+01  0.20516857237E+02  0.41488680118E+02  0.00000000000E+00 0. -1.
         11    1    1    2    0    0  0.36769011125E+02 -0.28791141865E+02 -0.27658903094E+02  0.54276191368E+02  0.00000000000E+00 0.  1.
</event>
<event>
 7    1  0.2732144E-009  0.1192695E+03  0.7561462E-02  0.1244307E+00
          2   -1    0    0  501    0  0.00000000000E+00  0.00000000000E+00  0.93839518156E+02  0.93839518156E+02  0.00000000000E+00 0. -1.
         -2   -1    0    0    0  501 -0.00000000000E+00 -0.00000000000E+00 -0.16244192549E+03  0.16244192549E+03  0.00000000000E+00 0.  1.
         25    2    1    2    0    0 -0.16664485848E+02 -0.31887903551E+02 -0.64474001525E+02  0.14525539062E+03  0.12509071968E+03 0.  0.
          5    1    3    3  502    0 -0.44468760544E+02  0.35388481841E+02 -0.23729115129E+02  0.61728102320E+02  0.41800000000E+01 0. -1.
         -5    1    3    3    0  502  0.27804274696E+02 -0.67276385392E+02 -0.40744886397E+02  0.83527288297E+02  0.41800000000E+01 0. -1.
        -11    1    1    2    0    0 -0.31247777402E+02  0.48699480817E+02  0.90542836178E+01  0.58566569613E+02  0.00000000000E+00 0.  1.
         11    1    1    2    0    0  0.47912263249E+02 -0.16811577266E+02 -0.13182689428E+02  0.52459483417E+02  0.00000000000E+00 0. -1.
</event>
<event>
 7    1  0.2732144E-009  0.1457489E+03  0.7561462E-02  0.1205796E+00
         -2   -1    0    0    0  501 -0.00000000000E+00  0.00000000000E+00  0.94550714391E+02  0.94550714391E+02  0.00000000000E+00 0.  1.
          2   -1    0    0  501    0  0.00000000000E+00 -0.00000000000E+00 -0.22867251771E+03  0.22867251771E+03  0.00000000000E+00 0. -1.
         25    2    1    2    0    0  0.87242911043E+02 -0.43864782421E+02 -0.57002498733E+02  0.16861799211E+03  0.12508915915E+03 0.  0.
          5    1    3    3  502    0 -0.40313304193E+01  0.36072073423E+02 -0.64019127205E+01  0.37093166385E+02  0.41800000000E+01 0.  1.
         -5    1    3    3    0  502  0.91274241462E+02 -0.79936855844E+02 -0.50600586012E+02  0.13152482572E+03  0.41800000000E+01 0.  1.
        -11    1    1    2    0    0 -0.56784873532E+02  0.72271004390E+02 -0.47185510135E+02  0.10331549886E+03  0.00000000000E+00 0.  1.
         11    1    1    2    0    0 -0.30458037511E+02 -0.28406221969E+02 -0.29933794455E+02  0.51289741139E+02  0.00000000000E+00 0. -1.
</event>
<event>
 7    1  0.2732144E-009  0.1152448E+03  0.7561462E-02  0.1251154E+00
          4   -1    0    0  501    0  0.00000000000E+00  0.00000000000E+00  0.33761535969E+02  0.33761535969E+02  0.00000000000E+00 0. -1.
         -4   -1    0    0    0  501 -0.00000000000E+00 -0.00000000000E+00 -0.54549899001E+03  0.54549899001E+03  0.00000000000E+00 0.  1.
         25    2    1    2    0    0  0.58445842707E+02  0.49220840795E+02 -0.34156684247E+03  0.37169094167E+03  0.12509052942E+03 0.  0.
          5    1    3    3  502    0  0.58922244050E+02  0.78434700202E+02 -0.32109049521E+03  0.33576838975E+03  0.41800000000E+01 0. -1.
         -5    1    3    3    0  502 -0.47640134270E+00 -0.29213859408E+02 -0.20476347252E+02  0.35922551921E+02  0.41800000000E+01 0. -1.
        -11    1    1    2    0    0 -0.63376891475E+02 -0.62260950550E+02 -0.17192011442E+03  0.19351894501E+03  0.00000000000E+00 0.  1.
         11    1    1    2    0    0  0.49310487677E+01  0.13040109755E+02  0.17495028458E+01  0.14050639294E+02  0.00000000000E+00 0. -1.
</event>
<event>
 7    1  0.2732144E-009  0.1100070E+03  0.7561462E-02  0.1260557E+00
          3   -1    0    0  501    0  0.00000000000E+00  0.00000000000E+00  0.12772626696E+03  0.12772626696E+03  0.00000000000E+00 0. -1.
         -3   -1    0    0    0  501 -0.00000000000E+00 -0.00000000000E+00 -0.18026963714E+03  0.18026963714E+03  0.00000000000E+00 0.  1.
         25    2    1    2    0    0  0.73554564477E+02 -0.88923568715E+01  0.48602999180E+02  0.15329589031E+03  0.12509208804E+03 0.  0.
          5    1    3    3  502    0  0.66949948024E+02  0.50778499281E+02  0.19102257733E+02  0.86273519576E+02  0.41800000000E+01 0.  1.
         -5    1    3    3    0  502  0.66046164526E+01 -0.59670856152E+02  0.29500741447E+02  0.67022370730E+02  0.41800000000E+01 0.  1.
        -11    1    1    2    0    0 -0.38302856571E+02  0.12437621132E+02 -0.11087243061E+03  0.11795973513E+03  0.00000000000E+00 0.  1.
         11    1    1    2    0    0 -0.35251707905E+02 -0.35452642610E+01  0.97260612567E+01  0.36740278666E+02  0.00000000000E+00 0. -1.
</event>
<event>
 7    1  0.2732144E-009  0.1077032E+03  0.7561462E-02  0.1264883E+00
          1   -1    0    0  501    0  0.00000000000E+00  0.00000000000E+00  0.86981250351E+03  0.86981250351E+03  0.00000000000E+00 0. -1.
         -1   -1    0    0    0  501 -0.00000000000E+00 -0.00000000000E+00 -0.41334620562E+02  0.41334620562E+02  0.00000000000E+00 0.  1.
         25    2    1    2    0    0 -0.15979067209E+02 -0.75559481861E+02  0.76061279896E+03  0.77468975561E+03  0.12509125316E+03 0.  0.
          5    1    3    3  502    0 -0.38230739836E+02 -0.49715610923E+02  0.14399499045E+03  0.15711543881E+03  0.41800000000E+01 0. -1.
         -5    1    3    3    0  502  0.22251672626E+02 -0.25843870937E+02  0.61661780850E+03  0.61757431679E+03  0.41800000000E+01 0. -1.
        -11    1    1    2    0    0 -0.59200542973E+01  0.91130534658E+02  0.55630442186E+02  0.10693253709E+03  0.00000000000E+00 0.  1.
         11    1    1    2    0    0  0.21899121507E+02 -0.15571052797E+02  0.12234641809E+02  0.29524831383E+02  0.00000000000E+00 0. -1.
</event>
<event>
 7    1  0.2732144E-009  0.5940111E+02  0.7561462E-02  0.1400362E+00
         -1   -1    0    0    0  501 -0.00000000000E+00  0.00000000000E+00  0.43169798232E+02  0.43169798232E+02  0.00000000000E+00 0.  1.
          1   -1    0    0  501    0  0.00000000000E+00 -0.00000000000E+00 -0.30910797429E+03  0.30910797429E+03  0.00000000000E+00 0. -1.
         25    2    1    2    0    0 -0.80743653124E+01  0.50248401212E+01 -0.91164818657E+02  0.15507658844E+03  0.12508908716E+03 0.  0.
          5    1    3    3  502    0 -0.10734325620E+02 -0.96924055149E+01  0.29657880397E+02  0.33260047216E+02  0.41800000000E+01 0.  1.
         -5    1    3    3    0  502  0.26599603078E+01  0.14717245636E+02 -0.12082269905E+03  0.12181654122E+03  0.41800000000E+01 0.  1.
        -11    1    1    2    0    0 -0.15303440095E+02  0.37049642306E+02 -0.10539780970E+03  0.11276333430E+03  0.00000000000E+00 0. -1.
         11    1    1    2    0    0  0.23377805408E+02 -0.42074482427E+02 -0.69375547702E+02  0.84437849784E+02  0.00000000000E+00 0.  1.
</event>
<event>
 7    1  0.2732144E-009  0.1149889E+03  0.7561462E-02  0.1251600E+00
          2   -1    0    0  501    0  0.00000000000E+00  0.00000000000E+00  0.64272799682E+03  0.64272799682E+03  0.00000000000E+00 0. -1.
         -2   -1    0    0    0  501 -0.00000000000E+00 -0.00000000000E+00 -0.24844210727E+02  0.24844210727E+02  0.00000000000E+00 0.  1.
         25    2    1    2    0    0  0.32231141647E+02  0.36713341027E+02  0.23153223341E+03  0.26765862080E+03  0.12508895346E+03 0.  0.
          5    1    3    3  502    0  0.49050152656E+02  0.72116418734E+02  0.11338531000E+03  0.14310973499E+03  0.41800000000E+01 0. -1.
         -5    1    3    3    0  502 -0.16819011008E+02 -0.35403077707E+02  0.11814692341E+03  0.12454888580E+03  0.41800000000E+01 0. -1.
        -11    1    1    2    0    0  0.19972280208E+02 -0.46066125887E+02  0.19177886305E+03  0.19824255911E+03  0.00000000000E+00 0.  1.
         11    1    1    2    0    0 -0.52203421855E+02  0.93527848603E+01  0.19457268963E+03  0.20167102763E+03  0.00000000000E+00 0. -1.
</event>
<event>
 7    1  0.2732144E-009  0.1326153E+03  0.7561462E-02  0.1223626E+00
         -1   -1    0    0    0  501 -0.00000000000E+00  0.00000000000E+00  0.75564445265E+02  0.75564445265E+02  0.00000000000E+00 0.  1.
          1   -1    0    0  501    0  0.00000000000E+00 -0.00000000000E+00 -0.36591661847E+03  0.36591661847E+03  0.00000000000E+00 0. -1.
         25    2    1    2    0    0  0.78051649287E+02 -0.10847969479E+02 -0.24054315790E+02  0.14977398264E+03  0.12507556664E+03 0.  0.
          5    1    3    3  502    0  0.86784859367E+02 -0.54842482917E+02 -0.15193338751E+02  0.10386346658E+03  0.41800000000E+01 0.  1.
         -5    1    3    3    0  502 -0.87332100807E+01  0.43994513438E+02 -0.88609770389E+01  0.45910516062E+02  0.41800000000E+01 0.  1.
        -11    1    1    2    0    0  0.13647697185E+02 -0.16814580921E+02 -0.32542692891E+02  0.39089853295E+02  0.00000000000E+00 0.  1.
         11    1    1    2    0    0 -0.91699346472E+02  0.27662550400E+02 -0.23375516453E+03  0.25261722780E+03  0.00000000000E+00 0. -1.
</event>
<event>
 7    1  0.2732144E-009  0.1478328E+03  0.7561462E-02  0.1203162E+00
         -1   -1    0    0    0  501 -0.00000000000E+00  0.00000000000E+00  0.37520310295E+02  0.37520310295E+02  0.00000000000E+00 0.  1.
          1   -1    0    0  501    0  0.00000000000E+00 -0.00000000000E+00 -0.80487627570E+03  0.80487627570E+03  0.00000000000E+00 0. -1.
         25    2    1    2    0    0 -0.11689319413E+03 -0.61139816690E+02 -0.33792612834E+03  0.38372452749E+03  0.12509336020E+03 0.  0.
          5    1    3    3  502    0 -0.11259254045E+03 -0.52639186135E+02 -0.34781031720E+03  0.36937440793E+03  0.41800000000E+01 0. -1.
         -5    1    3    3    0  502 -0.43006536848E+01 -0.85006305556E+01  0.98841888644E+01  0.14350119563E+02  0.41800000000E+01 0. -1.
        -11    1    1    2    0    0  0.11312650029E+03  0.81990414885E+02 -0.38104436193E+03  0.40585075946E+03  0.00000000000E+00 0. -1.
         11    1    1    2    0    0  0.37666938379E+01 -0.20850598194E+02 -0.48385475138E+02  0.52821299036E+02  0.00000000000E+00 0.  1.
</event>
<event>
 7    1  0.2732144E-009  0.1345198E+03  0.7561462E-02  0.1220899E+00
         -2   -1    0    0    0  501 -0.00000000000E+00  0.00000000000E+00  0.28377262927E+02  0.28377262927E+02  0.00000000000E+00 0.  1.
          2   -1    0    0  501    0  0.00000000000E+00 -0.00000000000E+00 -0.78072983514E+03  0.78072983514E+03  0.00000000000E+00 0. -1.
         25    2    1    2    0    0 -0.43223032335E+02  0.52083594715E+02 -0.38358228029E+03  0.40910069761E+03  0.12508830348E+03 0.  0.
          5    1    3    3  502    0 -0.57444390767E+02 -0.10339905173E+02 -0.28864373753E+03  0.29451562147E+03  0.41800000000E+01 0.  1.
         -5    1    3    3    0  502  0.14221358432E+02  0.62423499888E+02 -0.94938542756E+02  0.11458507614E+03  0.41800000000E+01 0.  1.
        -11    1    1    2    0    0  0.89722713795E+02 -0.40515370368E+02 -0.30328178228E+03  0.31885968712E+03  0.00000000000E+00 0.  1.
         11    1    1    2    0    0 -0.46499681461E+02 -0.11568224347E+02 -0.65488509634E+02  0.81146713332E+02  0.00000000000E+00 0. -1.
</event>
<event>
 7    1  0.2732144E-009  0.8204122E+02  0.7561462E-02  0.1323357E+00
          2   -1    0    0  501    0  0.00000000000E+00  0.00000000000E+00  0.36362768180E+03  0.36362768180E+03  0.00000000000E+00 0. -1.
         -2   -1    0    0    0  501 -0.00000000000E+00 -0.00000000000E+00 -0.78932139084E+02  0.78932139084E+02  0.00000000000E+00 0.  1.
         25    2    1    2    0    0  0.24306373580E+02 -0.84151920928E+01  0.31647230041E+03  0.34126829466E+03  0.12509083403E+03 0.  0.
          5    1    3    3  502    0 -0.86521083877E+01 -0.46210257991E+02  0.26542280952E+03  0.26958669688E+03  0.41800000000E+01 0. -1.
         -5    1    3    3    0  502  0.32958481968E+02  0.37795065898E+02  0.51049490893E+02  0.71681597780E+02  0.41800000000E+01 0. -1.
        -11    1    1    2    0    0  0.96560281723E+01 -0.20046714737E+02 -0.48948767191E+02  0.53768870746E+02  0.00000000000E+00 0.  1.
         11    1    1    2    0    0 -0.33962401753E+02  0.28461906829E+02  0.17172009494E+02  0.47522655473E+02  0.00000000000E+00 0. -1.
</event>
<event>
 7    1  0.2732144E-009  0.1170426E+03  0.7561462E-02  0.1248057E+00
          1   -1    0    0  501    0  0.00000000000E+00  0.00000000000E+00  0.66962854122E+03  0.66962854122E+03  0.00000000000E+00 0. -1.
         -1   -1    0    0    0  501 -0.00000000000E+00 -0.00000000000E+00 -0.24230066560E+02  0.24230066560E+02  0.00000000000E+00 0.  1.
         25    2    1    2    0    0  0.33971262763E+01 -0.45100564506E+02  0.22644073731E+03  0.26261981880E+03  0.12509260702E+03 0.  0.
          5    1    3    3  502    0 -0.46157090943E+02  0.19603670507E+02  0.10310838370E+03  0.11473269861E+03  0.41800000000E+01 0. -1.
         -5    1    3    3    0  502  0.49554217219E+02 -0.64704235013E+02  0.12333235361E+03  0.14788712020E+03  0.41800000000E+01 0. -1.
        -11    1    1    2    0    0  0.43943696576E+02  0.26344044242E+02  0.21501299741E+03  0.22103313370E+03  0.00000000000E+00 0. -1.
         11    1    1    2    0    0 -0.47340822852E+02  0.18756520265E+02  0.20394473994E+03  0.21020565528E+03  0.00000000000E+00 0.  1.
</event>
<event>
 7    1  0.2732144E-009  0.2164804E+03  0.7561462E-02  0.1136535E+00
          1   -1    0    0  501    0  0.00000000000E+00  0.00000000000E+00  0.45466655507E+03  0.45466655507E+03  0.00000000000E+00 0. -1.
         -1   -1    0    0    0  501 -0.00000000000E+00 -0.00000000000E+00 -0.12621293217E+03  0.12621293217E+03  0.00000000000E+00 0.  1.
         25    2    1    2    0    0  0.19390392770E+03 -0.43667051525E+02  0.26093668285E+03  0.35105756841E+03  0.12509164365E+03 0.  0.
          5    1    3    3  502    0  0.23114140821E+02  0.34642221013E+02  0.22688185069E+02  0.47608540456E+02  0.41800000000E+01 0.  1.
         -5    1    3    3    0  502  0.17078978688E+03 -0.78309272538E+02  0.23824849778E+03  0.30344902795E+03  0.41800000000E+01 0.  1.
        -11    1    1    2    0    0 -0.49835476239E+02  0.30675075509E+02  0.61720647457E+02  0.85052767574E+02  0.00000000000E+00 0. -1.
         11    1    1    2    0    0 -0.14406845146E+03  0.12991976015E+02  0.57962926003E+01  0.14476915126E+03  0.00000000000E+00 0.  1.
</event>
<event>
 7    1  0.2732144E-009  0.1200499E+03  0.7561462E-02  0.1243015E+00
          4   -1    0    0  501    0  0.00000000000E+00  0.00000000000E+00  0.13926376586E+02  0.13926376586E+02  0.00000000000E+00 0. -1.
         -4   -1    0    0    0  501 -0.00000000000E+00 -0.00000000000E+00 -0.10589346530E+04  0.10589346530E+04  0.00000000000E+00 0.  1.
         25    2    1    2    0    0  0.50704834873E+02 -0.17932911122E+02 -0.52275411017E+03  0.54019604001E+03  0.12508929752E+03 0.  0.
          5    1    3    3  502    0  0.76527574725E+02  0.29309065643E+02 -0.30476890691E+03  0.31562168816E+03  0.41800000000E+01 0.  1.
         -5    1    3    3    0  502 -0.25822739852E+02 -0.47241976765E+02 -0.21798520327E+03  0.22457435184E+03  0.41800000000E+01 0.  1.
        -11    1    1    2    0    0  0.39612817879E+01  0.43510470944E+02 -0.18843111067E+03  0.19342992608E+03  0.00000000000E+00 0.  1.
         11    1    1    2    0    0 -0.54666116661E+02 -0.25577559822E+02 -0.33382305561E+03  0.33923506353E+03  0.00000000000E+00 0. -1.
</event>
<event>
 7    1  0.2732144E-009  0.1046442E+03  0.7561462E-02  0.1270822E+00
          1   -1    0    0  501    0  0.00000000000E+00  0.00000000000E+00  0.25509858868E+03  0.25509858868E+03  0.00000000000E+00 0. -1.
         -1   -1    0    0    0  501 -0.00000000000E+00 -0.00000000000E+00 -0.72037353110E+02  0.72037353110E+02  0.00000000000E+00 0.  1.
         25    2    1    2    0    0 -0.40899346649E+02  0.62233967504E+02  0.13822452089E+03  0.20074831431E+03  0.12509214305E+03 0.  0.
          5    1    3    3  502    0 -0.53209728645E+01 -0.17280705672E+02 -0.15386305024E+02  0.24106976647E+02  0.41800000000E+01 0. -1.
         -5    1    3    3    0  502 -0.35578373785E+02  0.79514673176E+02  0.15361082592E+03  0.17664133766E+03  0.41800000000E+01 0. -1.
        -11    1    1    2    0    0  0.58679624292E+02 -0.28165170631E+02  0.56538719642E+02  0.86216019175E+02  0.00000000000E+00 0. -1.
         11    1    1    2    0    0 -0.17780277642E+02 -0.34068796873E+02 -0.11702004970E+02  0.40171608304E+02  0.00000000000E+00 0.  1.
</event>
<event>
 7    1  0.3121690E-009  0.9899718E+02  0.7561462E-02  0.1282419E+00
          2   -1    0    0  501    0  0.00000000000E+00  0.00000000000E+00  0.13847872223E+03  0.13847872223E+03  0.00000000000E+00 0. -1.
         -2   -1    0    0    0  501 -0.00000000000E+00 -0.00000000000E+00 -0.11613491047E+03  0.11613491047E+03  0.00000000000E+00 0.  1.
         25    2    1    2    0    0  0.49097385677E+02 -0.25152511557E+02 -0.22922165794E+02  0.13861973844E+03  0.12508718593E+03 0.  0.
          5    1    3    3  502    0 -0.19862422772E+02 -0.23698117356E+02 -0.54378941849E+02  0.62694962487E+02  0.41800000000E+01 0.  1.
         -5    1    3    3    0  502  0.68959808449E+02 -0.14543942009E+01  0.31456776055E+02  0.75924775954E+02  0.41800000000E+01 0.  1.
        -11    1    1    2    0    0 -0.75490488163E+01  0.49138757526E+02 -0.46116405662E+00  0.49717384298E+02  0.00000000000E+00 0.  1.
         11    1    1    2    0    0 -0.41548336861E+02 -0.23986245969E+02  0.45727141612E+02  0.66276509953E+02  0.00000000000E+00 0. -1.
</event>
<event>
 7    1  0.2732144E-009  0.2037925E+03  0.7561462E-02  0.1146578E+00
          1   -1    0    0  501    0  0.00000000000E+00  0.00000000000E+00  0.37774550894E+03  0.37774550894E+03  0.00000000000E+00 0. -1.
         -1   -1    0    0    0  501 -0.00000000000E+00 -0.00000000000E+00 -0.14591998689E+03  0.14591998689E+03  0.00000000000E+00 0.  1.
         25    2    1    2    0    0 -0.94230278055E+01  0.19101583340E+03  0.29263852949E+02  0.23039018939E+03  0.12508966471E+03 0.  0.
          5    1    3    3  502    0 -0.21795201764E+02  0.17281265028E+03 -0.20871116753E+02  0.17547740262E+03  0.41800000000E+01 0.  1.
         -5    1    3    3    0  502  0.12372173958E+02  0.18203183118E+02  0.50134969702E+02  0.54912786772E+02  0.41800000000E+01 0.  1.
        -11    1    1    2    0    0 -0.39574175026E+02 -0.70371737024E+02  0.63060326920E+02  0.10244462666E+03  0.00000000000E+00 0.  1.
         11    1    1    2    0    0  0.48997202832E+02 -0.12064409637E+03  0.13950134218E+03  0.19083067978E+03  0.00000000000E+00 0. -1.
</event>
<event>
 7    1  0.2732144E-009  0.9033775E+02  0.7561462E-02  0.1302036E+00
          4   -1    0    0  501    0  0.00000000000E+00  0.00000000000E+00  0.48277735883E+03  0.48277735883E+03  0.00000000000E+00 0. -1.
         -4   -1    0    0    0  501 -0.00000000000E+00 -0.00000000000E+00 -0.31192815889E+02  0.31192815889E+02  0.00000000000E+00 0.  1.
         25    2    1    2    0    0  0.19711923611E+02  0.13175123641E+02  0.14298985651E+03  0.19146416642E+03  0.12510109568E+03 0.  0.
          5    1    3    3  502    0 -0.35947903456E+02  0.52374362002E+01 -0.12595086663E+01  0.36588813357E+02  0.41800000000E+01 0.  1.
         -5    1    3    3    0  502  0.55659827066E+02  0.79376874404E+01  0.14424936518E+03  0.15487535306E+03  0.41800000000E+01 0.  1.
        -11    1    1    2    0    0  0.26928785544E+02 -0.27943510000E+02  0.82399697695E+02  0.91080785143E+02  0.00000000000E+00 0.  1.
         11    1    1    2    0    0 -0.46640709155E+02  0.14768386360E+02  0.22619498873E+03  0.23142522316E+03  0.00000000000E+00 0. -1.
</event>
<event>
 7    1  0.2732144E-009  0.1351716E+03  0.7561462E-02  0.1219978E+00
         -2   -1    0    0    0  501 -0.00000000000E+00  0.00000000000E+00  0.88118608371E+02  0.88118608371E+02  0.00000000000E+00 0. -1.
          2   -1    0    0  501    0  0.00000000000E+00 -0.00000000000E+00 -0.37939261622E+03  0.37939261622E+03  0.00000000000E+00 0.  1.
         25    2    1    2    0    0 -0.83481785979E+02  0.37913504292E+02 -0.67512832262E+01  0.15522166078E+03  0.12506614951E+03 0.  0.
          5    1    3    3  502    0  0.26803994912E+02  0.29287095850E+02  0.14549501265E+02  0.42489392954E+02  0.41800000000E+01 0. -1.
         -5    1    3    3    0  502 -0.11028578089E+03  0.86264084416E+01 -0.21300784492E+02  0.11273226783E+03  0.41800000000E+01 0. -1.
        -11    1    1    2    0    0  0.60939954485E+02  0.14521162636E+02 -0.90652970127E+02  0.11019302705E+03  0.00000000000E+00 0. -1.
         11    1    1    2    0    0  0.22541831494E+02 -0.52434666928E+02 -0.19386975449E+03  0.20209653676E+03  0.00000000000E+00 0.  1.
</event>
<event>
 7    1  0.2732144E-009  0.1529542E+03  0.7561462E-02  0.1196889E+00
         -1   -1    0    0    0  501 -0.00000000000E+00  0.00000000000E+00  0.69417991974E+02  0.69417991974E+02  0.00000000000E+00 0.  1.
          1   -1    0    0  501    0  0.00000000000E+00 -0.00000000000E+00 -0.35178631074E+03  0.35178631074E+03  0.00000000000E+00 0. -1.
         25    2    1    2    0    0  0.13725856321E+01 -0.11182973143E+03 -0.16004974608E+03  0.23188572159E+03  0.12508914355E+03 0.  0.
          5    1    3    3  502    0  0.91946347032E+01  0.26736781886E+02 -0.33300371878E+02  0.43883755311E+02  0.41800000000E+01 0.  1.
         -5    1    3    3    0  502 -0.78220490711E+01 -0.13856651332E+03 -0.12674937420E+03  0.18800196628E+03  0.41800000000E+01 0.  1.
        -11    1    1    2    0    0 -0.13975392711E+02  0.12168115913E+03 -0.86073522728E+02  0.14970059253E+03  0.00000000000E+00 0.  1.
         11    1    1    2    0    0  0.12602807079E+02 -0.98514276996E+01 -0.36245049958E+02  0.39617988597E+02  0.00000000000E+00 0. -1.
</event>
<event>
 7    1  0.2732144E-009  0.9368149E+02  0.7561462E-02  0.1294174E+00
          2   -1    0    0  501    0  0.00000000000E+00  0.00000000000E+00  0.54582670257E+02  0.54582670257E+02  0.00000000000E+00 0. -1.
         -2   -1    0    0    0  501 -0.00000000000E+00 -0.00000000000E+00 -0.38580722281E+03  0.38580722281E+03  0.00000000000E+00 0.  1.
         25    2    1    2    0    0  0.72179374483E+00  0.11760887934E+02 -0.32440578272E+03  0.34788679523E+03  0.12508905213E+03 0.  0.
          5    1    3    3  502    0 -0.40809716970E+02 -0.30469077698E+02 -0.70144667216E+02  0.86784471156E+02  0.41800000000E+01 0. -1.
         -5    1    3    3    0  502  0.41531510715E+02  0.42229965632E+02 -0.25426111551E+03  0.26110232408E+03  0.41800000000E+01 0. -1.
        -11    1    1    2    0    0 -0.41247968227E-01  0.32559282268E+02 -0.28398298384E+02  0.43203841430E+02  0.00000000000E+00 0.  1.
         11    1    1    2    0    0 -0.68054577660E+00 -0.44320170202E+02  0.21579528555E+02  0.49299256403E+02  0.00000000000E+00 0. -1.
</event>
<event>
 7    1  0.2732144E-009  0.1821754E+03  0.7561462E-02  0.1165714E+00
         -1   -1    0    0    0  501 -0.00000000000E+00  0.00000000000E+00  0.94909007522E+02  0.94909007522E+02  0.00000000000E+00 0.  1.
          1   -1    0    0  501    0  0.00000000000E+00 -0.00000000000E+00 -0.68358169741E+03  0.68358169741E+03  0.00000000000E+00 0. -1.
         25    2    1    2    0    0  0.80028583783E+02 -0.13407190117E+03 -0.55640214455E+03  0.59127935123E+03  0.12509226927E+03 0.  0.
          5    1    3    3  502    0  0.14724494428E+02 -0.12910176236E+03 -0.30710876384E+03  0.33349264011E+03  0.41800000000E+01 0. -1.
         -5    1    3    3    0  502  0.65304089356E+02 -0.49701388071E+01 -0.24929338071E+03  0.25778671112E+03  0.41800000000E+01 0. -1.
        -11    1    1    2    0    0 -0.54376306204E+02  0.31189056690E+02  0.24059643083E+02  0.67144667390E+02  0.00000000000E+00 0.  1.
         11    1    1    2    0    0 -0.25652277579E+02  0.10288284448E+03 -0.56330188424E+02  0.12006668631E+03  0.00000000000E+00 0. -1.
</event>
<event>
 7    1  0.2732144E-009  0.1361381E+03  0.7561462E-02  0.1218622E+00
         -2   -1    0    0    0  501 -0.00000000000E+00  0.00000000000E+00  0.63681920836E+02  0.63681920836E+02  0.00000000000E+00 0.  1.
          2   -1    0    0  501    0  0.00000000000E+00 -0.00000000000E+00 -0.29532561505E+03  0.29532561505E+03  0.00000000000E+00 0. -1.
         25    2    1    2    0    0 -0.63908006878E+02 -0.50427340915E+02 -0.13281519501E+03  0.19978565043E+03  0.12508908840E+03 0.  0.
          5    1    3    3  502    0  0.29601170298E+02 -0.44690045224E+02 -0.34319785711E+02  0.63786750320E+02  0.41800000000E+01 0. -1.
         -5    1    3    3    0  502 -0.93509177176E+02 -0.57372956917E+01 -0.98495409301E+02  0.13599890011E+03  0.41800000000E+01 0. -1.
        -11    1    1    2    0    0  0.78242085848E+02  0.64857717412E+01 -0.58998565392E+02  0.98207535104E+02  0.00000000000E+00 0. -1.
         11    1    1    2    0    0 -0.14334078970E+02  0.43941569174E+02 -0.39829933808E+02  0.61014350349E+02  0.00000000000E+00 0.  1.
</event>
<event>
 7    1  0.2732144E-009  0.1410788E+03  0.7561462E-02  0.1211885E+00
          1   -1    0    0  501    0  0.00000000000E+00  0.00000000000E+00  0.40897791051E+02  0.40897791051E+02  0.00000000000E+00 0. -1.
         -1   -1    0    0    0  501 -0.00000000000E+00 -0.00000000000E+00 -0.51568160896E+03  0.51568160896E+03  0.00000000000E+00 0.  1.
         25    2    1    2    0    0 -0.92015058428E+02 -0.28553298365E+02 -0.26800841341E+03  0.31105927474E+03  0.12508917186E+03 0.  0.
          5    1    3    3  502    0 -0.10809959669E+03 -0.57184046920E+02 -0.23098157091E+03  0.26139146223E+03  0.41800000000E+01 0.  1.
         -5    1    3    3    0  502  0.16084538261E+02  0.28630748555E+02 -0.37026842501E+02  0.49667812509E+02  0.41800000000E+01 0.  1.
        -11    1    1    2    0    0  0.45624257511E+02  0.56429961984E+02 -0.15242956541E+03  0.16882146159E+03  0.00000000000E+00 0. -1.
         11    1    1    2    0    0  0.46390800917E+02 -0.27876663619E+02 -0.54345839094E+02  0.76698663685E+02  0.00000000000E+00 0.  1.
</event>
<event>
 7    1  0.2732144E-009  0.1106262E+03  0.7561462E-02  0.1259415E+00
          4   -1    0    0  501    0  0.00000000000E+00  0.00000000000E+00  0.11581673860E+03  0.11581673860E+03  0.00000000000E+00 0. -1.
         -4   -1    0    0    0  501 -0.00000000000E+00 -0.00000000000E+00 -0.10978793764E+03  0.10978793764E+03  0.00000000000E+00 0.  1.
         25    2    1    2    0    0 -0.29489549233E+02 -0.12718575673E+01  0.11838986786E+01  0.12853078182E+03  0.12509000409E+03 0.  0.
          5    1    3    3  502    0 -0.59387691739E+02 -0.43171105674E+02 -0.13659475050E+02  0.74797700191E+02  0.41800000000E+01 0. -1.
         -5    1    3    3    0  502  0.29898142507E+02  0.41899248106E+02  0.14843373729E+02  0.53733081625E+02  0.41800000000E+01 0. -1.
        -11    1    1    2    0    0  0.59396728619E+02  0.17661118939E+02  0.93710013800E+01  0.62671382303E+02  0.00000000000E+00 0.  1.
         11    1    1    2    0    0 -0.29907179387E+02 -0.16389261372E+02 -0.45260990998E+01  0.34402512121E+02  0.00000000000E+00 0. -1.
</event>
<event>
 7    1  0.2732144E-009  0.1774038E+03  0.7561462E-02  0.1170340E+00
         -2   -1    0    0    0  501 -0.00000000000E+00  0.00000000000E+00  0.49233135022E+02  0.49233135022E+02  0.00000000000E+00 0.  1.
          2   -1    0    0  501    0  0.00000000000E+00 -0.00000000000E+00 -0.82280976073E+03  0.82280976073E+03  0.00000000000E+00 0. -1.
         25    2    1    2    0    0 -0.16736423100E+03 -0.22962449419E+02 -0.37533539578E+03  0.43018921644E+03  0.12509213689E+03 0.  0.
          5    1    3    3  502    0 -0.17960100711E+02 -0.26616383294E+02 -0.18671834604E+03  0.18950517203E+03  0.41800000000E+01 0. -1.
         -5    1    3    3    0  502 -0.14940413029E+03  0.36539338745E+01 -0.18861704973E+03  0.24068404440E+03  0.41800000000E+01 0. -1.
        -11    1    1    2    0    0  0.13827458532E+03  0.32981520165E+02 -0.38084316504E+03  0.40650849680E+03  0.00000000000E+00 0. -1.
         11    1    1    2    0    0  0.29089645687E+02 -0.10019070746E+02 -0.17398064897E+02  0.35345182514E+02  0.00000000000E+00 0.  1.
</event>
<event>
 7    1  0.2732144E-009  0.1234554E+03  0.7561462E-02  0.1237503E+00
         -1   -1    0    0    0  501 -0.00000000000E+00  0.00000000000E+00  0.19548357888E+03  0.19548357888E+03  0.00000000000E+00 0.  1.
          1   -1    0    0  501    0  0.00000000000E+00 -0.00000000000E+00 -0.10949653859E+03  0.10949653859E+03  0.00000000000E+00 0. -1.
         25    2    1    2    0    0 -0.88970295279E+02  0.19636785170E+02  0.90769622777E+01  0.15500943334E+03  0.12507684201E+03 0.  0.
          5    1    3    3  502    0 -0.67748610458E+02  0.70380439918E+02 -0.55674098255E+01  0.97937474923E+02  0.41800000000E+01 0. -1.
         -5    1    3    3    0  502 -0.21221684821E+02 -0.50743654748E+02  0.14644372103E+02  0.57071958422E+02  0.41800000000E+01 0. -1.
        -11    1    1    2    0    0  0.35145991106E+02 -0.19401984592E+02  0.86440974751E+02  0.95308550575E+02  0.00000000000E+00 0.  1.
         11    1    1    2    0    0  0.53824304174E+02 -0.23480057848E+00 -0.95308967391E+01  0.54662133545E+02  0.00000000000E+00 0. -1.
</event>
<event>
 7    1  0.2732144E-009  0.1159042E+03  0.7561462E-02  0.1250011E+00
          2   -1    0    0  501    0  0.00000000000E+00  0.00000000000E+00  0.32833053408E+03  0.32833053408E+03  0.00000000000E+00 0. -1.
         -2   -1    0    0    0  501 -0.00000000000E+00 -0.00000000000E+00 -0.58117529180E+02  0.58117529180E+02  0.00000000000E+00 0.  1.
         25    2    1    2    0    0  0.39581981873E+02 -0.39699721589E+02  0.59100035036E+02  0.14928870809E+03  0.12510596724E+03 0.  0.
          5    1    3    3  502    0  0.79001215194E+02 -0.52171680090E+02  0.48238548272E+02  0.10633675820E+03  0.41800000000E+01 0. -1.
         -5    1    3    3    0  502 -0.39419233321E+02  0.12471958501E+02  0.10861486764E+02  0.42951949888E+02  0.41800000000E+01 0. -1.
        -11    1    1    2    0    0 -0.53320480483E+02 -0.16533324002E+00  0.17039401914E+03  0.17854193550E+03  0.00000000000E+00 0. -1.
         11    1    1    2    0    0  0.13738498610E+02  0.39865054829E+02  0.40718950729E+02  0.58617419672E+02  0.00000000000E+00 0.  1.
</event>
<event>
 7    1  0.2732144E-009  0.1258519E+03  0.7561462E-02  0.1233744E+00
          3   -1    0    0  501    0  0.00000000000E+00  0.00000000000E+00  0.18492607121E+02  0.18492607121E+02  0.00000000000E+00 0. -1.
         -3   -1    0    0    0  501 -0.00000000000E+00 -0.00000000000E+00 -0.99489744444E+03  0.99489744444E+03  0.00000000000E+00 0.  1.
         25    2    1    2    0    0 -0.10932508965E+02 -0.72677690741E+02 -0.41041653177E+03  0.43530521663E+03  0.12508931047E+03 0.  0.
          5    1    3    3  502    0  0.49270280586E+02 -0.14957878569E+02 -0.86089339373E+02  0.10039992746E+03  0.41800000000E+01 0.  1.
         -5    1    3    3    0  502 -0.60202789550E+02 -0.57719812172E+02 -0.32432719240E+03  0.33490528917E+03  0.41800000000E+01 0.  1.
        -11    1    1    2    0    0 -0.47834854531E+01 -0.21006032971E+02 -0.77104720534E+02  0.80057935789E+02  0.00000000000E+00 0.  1.
         11    1    1    2    0    0  0.15715994418E+02  0.93683723712E+02 -0.48888358501E+03  0.49802689913E+03  0.00000000000E+00 0. -1.
</event>
<event>
 7    1  0.2732144E-009  0.1071334E+03  0.7561462E-02  0.1265972E+00
         -2   -1    0    0    0  501 -0.00000000000E+00  0.00000000000E+00  0.20132173943E+02  0.20132173943E+02  0.00000000000E+00 0.  1.
          2   -1    0    0  501    0  0.00000000000E+00 -0.00000000000E+00 -0.93931708855E+03  0.93931708855E+03  0.00000000000E+00 0. -1.
         25    2    1    2    0    0  0.95332088156E+01  0.70037434360E+02 -0.69302040619E+03  0.70775746686E+03  0.12508886528E+03 0.  0.
          5    1    3    3  502    0  0.18473319572E+02  0.10422199096E+03 -0.56701348337E+03  0.57682341289E+03  0.41800000000E+01 0. -1.
         -5    1    3    3    0  502 -0.89401107562E+01 -0.34184556599E+02 -0.12600692282E+03  0.13093405397E+03  0.41800000000E+01 0. -1.
        -11    1    1    2    0    0 -0.13562887400E+02 -0.35793575668E+02 -0.21026816574E+03  0.21372373172E+03  0.00000000000E+00 0. -1.
         11    1    1    2    0    0  0.40296785840E+01 -0.34243858692E+02 -0.15896342684E+02  0.37968063927E+02  0.00000000000E+00 0.  1.
</event>
<event>
 7    1  0.2732144E-009  0.1782918E+03  0.7561462E-02  0.1169467E+00
          1   -1    0    0  501    0  0.00000000000E+00  0.00000000000E+00  0.30485070563E+03  0.30485070563E+03  0.00000000000E+00 0. -1.
         -1   -1    0    0    0  501 -0.00000000000E+00 -0.00000000000E+00 -0.18441093382E+03  0.18441093382E+03  0.00000000000E+00 0.  1.
         25    2    1    2    0    0  0.11772450936E+03 -0.10951946014E+03  0.20211402593E+03  0.28696776484E+03  0.12508735479E+03 0.  0.
          5    1    3    3  502    0  0.94574152526E+02 -0.11900655980E+03  0.21100313856E+03  0.26008965470E+03  0.41800000000E+01 0.  1.
         -5    1    3    3    0  502  0.23150356838E+02  0.94870996594E+01 -0.88891126268E+01  0.26878110145E+02  0.41800000000E+01 0.  1.
        -11    1    1    2    0    0 -0.77070251746E+02  0.18198414620E+02 -0.61622396601E+02  0.10034104724E+03  0.00000000000E+00 0.  1.
         11    1    1    2    0    0 -0.40654257619E+02  0.91321045516E+02 -0.20051857518E+02  0.10195282736E+03  0.00000000000E+00 0. -1.
</event>
<event>
 7    1  0.2732144E-009  0.2405974E+03  0.7561462E-02  0.1119395E+00
          2   -1    0    0  501    0  0.00000000000E+00  0.00000000000E+00  0.14528307863E+04  0.14528307863E+04  0.00000000000E+00 0. -1.
         -2   -1    0    0    0  501 -0.00000000000E+00 -0.00000000000E+00 -0.41769153288E+02  0.41769153288E+02  0.00000000000E+00 0.  1.
         25    2    1    2    0    0  0.38122830942E+02  0.21689626369E+03  0.69214416656E+03  0.73702559664E+03  0.12508334561E+03 0.  0.
          5    1    3    3  502    0  0.61965025819E+02  0.45009153152E+02  0.16315566863E+03  0.18028514331E+03  0.41800000000E+01 0.  1.
         -5    1    3    3    0  502 -0.23842194877E+02  0.17188711054E+03  0.52898849794E+03  0.55674045333E+03  0.41800000000E+01 0.  1.
        -11    1    1    2    0    0 -0.54686026618E+02 -0.11113591594E+03  0.28697270901E+03  0.31256213627E+03  0.00000000000E+00 0. -1.
         11    1    1    2    0    0  0.16563195676E+02 -0.10576034775E+03  0.43194475744E+03  0.44501220667E+03  0.00000000000E+00 0.  1.
</event>
<event>
 7    1  0.2732144E-009  0.2274994E+03  0.7561462E-02  0.1128412E+00
          3   -1    0    0  501    0  0.00000000000E+00  0.00000000000E+00  0.44834815537E+03  0.44834815537E+03  0.00000000000E+00 0. -1.
         -3   -1    0    0    0  501 -0.00000000000E+00 -0.00000000000E+00 -0.13680688960E+03  0.13680688960E+03  0.00000000000E+00 0.  1.
         25    2    1    2    0    0 -0.15390118649E+03  0.14936945293E+03  0.22449868946E+03  0.33472913461E+03  0.12508846195E+03 0.  0.
          5    1    3    3  502    0 -0.14466049663E+03  0.15924708506E+03  0.15857119560E+03  0.26729869034E+03  0.41800000000E+01 0. -1.
         -5    1    3    3    0  502 -0.92406898619E+01 -0.98776321365E+01  0.65927493869E+02  0.67430444264E+02  0.41800000000E+01 0. -1.
        -11    1    1    2    0    0  0.99454232285E+02 -0.47641808556E+02  0.79998319742E+01  0.11056619535E+03  0.00000000000E+00 0.  1.
         11    1    1    2    0    0  0.54446954210E+02 -0.10172764437E+03  0.79042744331E+02  0.13985971501E+03  0.00000000000E+00 0. -1.
</event>
<event>
 7    1  0.2732144E-009  0.2323334E+03  0.7561462E-02  0.1125008E+00
         -1   -1    0    0    0  501 -0.00000000000E+00  0.00000000000E+00  0.80616859378E+03  0.80616859378E+03  0.00000000000E+00 0.  1.
          1   -1    0    0  501    0  0.00000000000E+00 -0.00000000000E+00 -0.74997737241E+02  0.74997737241E+02  0.00000000000E+00 0. -1.
         25    2    1    2    0    0  0.21155981480E+03  0.59594823753E+02  0.40068683610E+03  0.47382160255E+03  0.12509145519E+03 0.  0.
          5    1    3    3  502    0  0.16512635131E+03  0.19326005286E+01  0.19720782424E+03  0.25725249305E+03  0.41800000000E+01 0. -1.
         -5    1    3    3    0  502  0.46433463489E+02  0.57662223225E+02  0.20347901186E+03  0.21656910950E+03  0.41800000000E+01 0. -1.
        -11    1    1    2    0    0 -0.54707196569E+02  0.65454228940E+01  0.14734944828E+03  0.15731363522E+03  0.00000000000E+00 0.  1.
         11    1    1    2    0    0 -0.15685261823E+03 -0.66140246648E+02  0.18313457215E+03  0.25003109325E+03  0.00000000000E+00 0. -1.
</event>
<event>
 7    1  0.2732144E-009  0.8611066E+02  0.7561462E-02  0.1312553E+00
          2   -1    0    0  501    0  0.00000000000E+00  0.00000000000E+00  0.21548828426E+04  0.21548828426E+04  0.00000000000E+00 0. -1.
         -2   -1    0    0    0  501 -0.00000000000E+00 -0.00000000000E+00 -0.73319035540E+01  0.73319035540E+01  0.00000000000E+00 0.  1.
         25    2    1    2    0    0  0.24596562833E+00  0.12803523783E+02  0.17269406135E+04  0.17315128243E+04  0.12509511431E+03 0.  0.
          5    1    3    3  502    0 -0.22736618563E+02  0.40164205406E+02  0.15623114921E+04  0.15629986526E+04  0.41800000000E+01 0.  1.
         -5    1    3    3    0  502  0.22982584191E+02 -0.27360681623E+02  0.16462912134E+03  0.16851417171E+03  0.41800000000E+01 0.  1.
        -11    1    1    2    0    0  0.44100602876E+02 -0.14414175638E+01  0.25904853727E+03  0.26277953787E+03  0.00000000000E+00 0. -1.
         11    1    1    2    0    0 -0.44346568504E+02 -0.11362106219E+02  0.16156178827E+03  0.16792238393E+03  0.00000000000E+00 0.  1.
</event>
<event>
 7    1  0.2732144E-009  0.1036213E+03  0.7561462E-02  0.1272860E+00
          2   -1    0    0  501    0  0.00000000000E+00  0.00000000000E+00  0.89048843485E+03  0.89048843485E+03  0.00000000000E+00 0. -1.
         -2   -1    0    0    0  501 -0.00000000000E+00 -0.00000000000E+00 -0.22316516205E+02  0.22316516205E+02  0.00000000000E+00 0.  1.
         25    2    1    2    0    0  0.66141622473E+02 -0.43862571491E+02  0.56207442019E+03  0.58126615781E+03  0.12507618869E+03 0.  0.
          5    1    3    3  502    0 -0.10334804594E+02 -0.30989365001E+02  0.40198988017E+03  0.40333668949E+03  0.41800000000E+01 0. -1.
         -5    1    3    3    0  502  0.76476427067E+02 -0.12873206490E+02  0.16008454002E+03  0.17792946832E+03  0.41800000000E+01 0. -1.
        -11    1    1    2    0    0 -0.41042704018E+02 -0.53606393064E+01  0.33079140917E+02  0.52985560021E+02  0.00000000000E+00 0.  1.
         11    1    1    2    0    0 -0.25098918454E+02  0.49223210797E+02  0.27301835753E+03  0.27855323322E+03  0.00000000000E+00 0. -1.
</event>
<event>
 7    1  0.2732144E-009  0.1223050E+03  0.7561462E-02  0.1239342E+00
          2   -1    0    0  501    0  0.00000000000E+00  0.00000000000E+00  0.26100895330E+03  0.26100895330E+03  0.00000000000E+00 0. -1.
         -2   -1    0    0    0  501 -0.00000000000E+00 -0.00000000000E+00 -0.10048774528E+03  0.10048774528E+03  0.00000000000E+00 0.  1.
         25    2    1    2    0    0 -0.62508217451E+02  0.55105252081E+02  0.18284410688E+03  0.23669198152E+03  0.12508901087E+03 0.  0.
          5    1    3    3  502    0 -0.92502364260E+02  0.43100777369E+02  0.82815395872E+02  0.13149230623E+03  0.41800000000E+01 0.  1.
         -5    1    3    3    0  502  0.29994146809E+02  0.12004474712E+02  0.10002871101E+03  0.10519967530E+03  0.41800000000E+01 0.  1.
        -11    1    1    2    0    0  0.42008062894E+02  0.86826619612E+01 -0.36496223363E+02  0.56320869015E+02  0.00000000000E+00 0.  1.
         11    1    1    2    0    0  0.20500154557E+02 -0.63787914042E+02  0.14173324501E+02  0.68483848038E+02  0.00000000000E+00 0. -1.
</event>
<event>
 7    1  0.2732144E-009  0.1077920E+03  0.7561462E-02  0.1264714E+00
          2   -1    0    0  501    0  0.00000000000E+00  0.00000000000E+00  0.15194437874E+02  0.15194437874E+02  0.00000000000E+00 0. -1.
         -2   -1    0    0    0  501 -0.00000000000E+00 -0.00000000000E+00 -0.95468334497E+03  0.95468334497E+03  0.00000000000E+00 0.  1.
         25    2    1    2    0    0  0.38556235693E+02 -0.29287818717E+02 -0.57012734908E+03  0.58569336703E+03  0.12508863410E+03 0.  0.
          5    1    3    3  502    0 -0.17721328157E+02 -0.54433215572E+02 -0.14248679670E+03  0.15361308558E+03  0.41800000000E+01 0. -1.
         -5    1    3    3    0  502  0.56277563849E+02  0.25145396855E+02 -0.42764055238E+03  0.43208028144E+03  0.41800000000E+01 0. -1.
        -11    1    1    2    0    0 -0.59292551375E+02  0.41469231378E+02 -0.33169415117E+03  0.33949420278E+03  0.00000000000E+00 0.  1.
         11    1    1    2    0    0  0.20736315682E+02 -0.12181412661E+02 -0.37667406853E+02  0.44690213039E+02  0.00000000000E+00 0. -1.
</event>
<event>
 7    1  0.2732144E-009  0.1027436E+03  0.7561462E-02  0.1274630E+00
         -1   -1    0    0    0  501 -0.00000000000E+00  0.00000000000E+00  0.40414383495E+02  0.40414383495E+02  0.00000000000E+00 0.  1.
          1   -1    0    0  501    0  0.00000000000E+00 -0.00000000000E+00 -0.36772545803E+03  0.36772545803E+03  0.00000000000E+00 0. -1.
         25    2    1    2    0    0  0.12568863066E+02 -0.16963860755E+02 -0.26118760909E+03  0.29036763654E+03  0.12509455751E+03 0.  0.
          5    1    3    3  502    0  0.61856661473E+02 -0.37375526634E+02 -0.16751787210E+03  0.18249078451E+03  0.41800000000E+01 0. -1.
         -5    1    3    3    0  502 -0.49287798407E+02  0.20411665878E+02 -0.93669736995E+02  0.10787685203E+03  0.41800000000E+01 0. -1.
        -11    1    1    2    0    0  0.12063738018E+02  0.42455235578E+02 -0.16147281099E+01  0.44165463315E+02  0.00000000000E+00 0.  1.
         11    1    1    2    0    0 -0.24632601084E+02 -0.25491374823E+02 -0.64508737336E+02  0.73606741669E+02  0.00000000000E+00 0. -1.
</event>
<event>
 7    1  0.2732144E-009  0.1867105E+03  0.7561462E-02  0.1161462E+00
         -1   -1    0    0    0  501 -0.00000000000E+00  0.00000000000E+00  0.96528297971E+02  0.96528297971E+02  0.00000000000E+00 0.  1.
          1   -1    0    0  501    0  0.00000000000E+00 -0.00000000000E+00 -0.43494717227E+03  0.43494717227E+03  0.00000000000E+00 0. -1.
         25    2    1    2    0    0  0.14121937869E+03 -0.55821716181E+02 -0.67665605856E+02  0.20803912945E+03  0.12507065304E+03 0.  0.
          5    1    3    3  502    0  0.13900341164E+03  0.15744616069E+01 -0.45477767164E+02  0.14632199795E+03  0.41800000000E+01 0. -1.
         -5    1    3    3    0  502  0.22159670417E+01 -0.57396177788E+02 -0.22187838692E+02  0.61717131498E+02  0.41800000000E+01 0. -1.
        -11    1    1    2    0    0 -0.37982563550E+02 -0.25147941655E+02 -0.76173341340E+02  0.88755123988E+02  0.00000000000E+00 0. -1.
         11    1    1    2    0    0 -0.10323681514E+03  0.80969657836E+02 -0.19457992711E+03  0.23468121681E+03  0.00000000000E+00 0.  1.
</event>
<event>
 7    1  0.2732144E-009  0.1307955E+03  0.7561462E-02  0.1226280E+00
          2   -1    0    0  501    0  0.00000000000E+00  0.00000000000E+00  0.15875117812E+02  0.15875117812E+02  0.00000000000E+00 0. -1.
         -2   -1    0    0    0  501 -0.00000000000E+00 -0.00000000000E+00 -0.11975136088E+04  0.11975136088E+04  0.00000000000E+00 0.  1.
         25    2    1    2    0    0 -0.81685353388E+02 -0.25330819749E+02 -0.71031484060E+03  0.72629817504E+03  0.12509084257E+03 0.  0.
          5    1    3    3  502    0  0.26174608693E+02 -0.17793817347E+02 -0.70410551482E+02  0.77310078489E+02  0.41800000000E+01 0. -1.
         -5    1    3    3    0  502 -0.10785996208E+03 -0.75370024016E+01 -0.63990428912E+03  0.64898809655E+03  0.41800000000E+01 0. -1.
        -11    1    1    2    0    0 -0.89088785708E+01 -0.18715683272E+02 -0.11257776018E+03  0.11447007035E+03  0.00000000000E+00 0.  1.
         11    1    1    2    0    0  0.90594231959E+02  0.44046503021E+02 -0.35874589018E+03  0.37262048121E+03  0.00000000000E+00 0. -1.
</event>
<event>
 7    1  0.2732144E-009  0.1199487E+03  0.7561462E-02  0.1243182E+00
         -2   -1    0    0    0  501 -0.00000000000E+00  0.00000000000E+00  0.25612198793E+02  0.25612198793E+02  0.00000000000E+00 0.  1.
          2   -1    0    0  501    0  0.00000000000E+00 -0.00000000000E+00 -0.69940639763E+03  0.69940639763E+03  0.00000000000E+00 0. -1.
         25    2    1    2    0    0  0.48035244641E+02  0.60597302471E+02 -0.33631394111E+03  0.36705883192E+03  0.12508277782E+03 0.  0.
          5    1    3    3  502    0 -0.35859238736E+01 -0.22859706191E+02 -0.18612290522E+03  0.18760232745E+03  0.41800000000E+01 0. -1.
         -5    1    3    3    0  502  0.51621168514E+02  0.83457008662E+02 -0.15019103589E+03  0.17945650447E+03  0.41800000000E+01 0. -1.
        -11    1    1    2    0    0 -0.65249380356E+02 -0.11655599247E+02 -0.16400018582E+03  0.17688808773E+03  0.00000000000E+00 0.  1.
         11    1    1    2    0    0  0.17214135715E+02 -0.48941703223E+02 -0.17348007190E+03  0.18107167678E+03  0.00000000000E+00 0. -1.
</event>
<event>
 7    1  0.2732144E-009  0.7459548E+02  0.7561462E-02  0.1345128E+00
          2   -1    0    0  501    0  0.00000000000E+00  0.00000000000E+00  0.72982699112E+02  0.72982699112E+02  0.00000000000E+00 0. -1.
         -2   -1    0    0    0  501 -0.00000000000E+00 -0.00000000000E+00 -0.22622618313E+03  0.22622618313E+03  0.00000000000E+00 0.  1.
         25    2    1    2    0    0  0.55454881454E+02  0.14470800914E+02 -0.13191769734E+03  0.19061580611E+03  0.12508980260E+03 0.  0.
          5    1    3    3  502    0  0.52842860753E+02  0.13450940694E+02 -0.15636662739E+03  0.16565412853E+03  0.41800000000E+01 0.  1.
         -5    1    3    3    0  502  0.26120207010E+01  0.10198602197E+01  0.24448930054E+02  0.24961677584E+02  0.41800000000E+01 0.  1.
        -11    1    1    2    0    0  0.15858238975E+02  0.27790335319E+01 -0.30661867676E+02  0.34631732560E+02  0.00000000000E+00 0.  1.
         11    1    1    2    0    0 -0.71313120429E+02 -0.17249834446E+02  0.93360809939E+01  0.73961343566E+02  0.00000000000E+00 0. -1.
</event>
<event>
 7    1  0.2732144E-009  0.1457185E+03  0.7561462E-02  0.1205835E+00
          4   -1    0    0  501    0  0.00000000000E+00  0.00000000000E+00  0.99400034910E+02  0.99400034910E+02  0.00000000000E+00 0. -1.
         -4   -1    0    0    0  501 -0.00000000000E+00 -0.00000000000E+00 -0.29826106922E+03  0.29826106922E+03  0.00000000000E+00 0.  1.
         25    2    1    2    0    0  0.25675798896E+02 -0.11200172521E+03 -0.67497840687E+02  0.18274096984E+03  0.12503867587E+03 0.  0.
          5    1    3    3  502    0  0.70029901390E+01 -0.11575555646E+03 -0.37777433106E+01  0.11610398127E+03  0.41800000000E+01 0. -1.
         -5    1    3    3    0  502  0.18672808757E+02  0.37538312528E+01 -0.63720097376E+02  0.66636988569E+02  0.41800000000E+01 0. -1.
        -11    1    1    2    0    0 -0.57913428089E+02  0.24938408697E+02 -0.12813316744E+02  0.64343379359E+02  0.00000000000E+00 0. -1.
         11    1    1    2    0    0  0.32237629193E+02  0.87063316510E+02 -0.11854987688E+03  0.15057675493E+03  0.00000000000E+00 0.  1.
</event>
<event>
 7    1  0.2732144E-009  0.1021586E+03  0.7561462E-02  0.1275821E+00
         -1   -1    0    0    0  501 -0.00000000000E+00  0.00000000000E+00  0.15898934068E+03  0.15898934068E+03  0.00000000000E+00 0.  1.
          1   -1    0    0  501    0  0.00000000000E+00 -0.00000000000E+00 -0.95823322509E+02  0.95823322509E+02  0.00000000000E+00 0. -1.
         25    2    1    2    0    0 -0.41096031642E+02  0.73540119287E+01  0.77091865943E+02  0.15276002766E+03  0.12509798139E+03 0.  0.
          5    1    3    3  502    0 -0.76544822751E+02  0.30767285883E+02  0.72353113168E+02  0.10980974982E+03  0.41800000000E+01 0.  1.
         -5    1    3    3    0  502  0.35448791110E+02 -0.23413273955E+02  0.47387527750E+01  0.42950277837E+02  0.41800000000E+01 0.  1.
        -11    1    1    2    0    0 -0.13186999749E+02 -0.19366832445E+02  0.24939001440E+02  0.34218780723E+02  0.00000000000E+00 0.  1.
         11    1    1    2    0    0  0.54283031391E+02  0.12012820517E+02 -0.38864849212E+02  0.67833854808E+02  0.00000000000E+00 0. -1.
</event>
<event>
 6    1  0.2732144E-009  0.1111190E+03  0.7561462E-02  0.1258512E+00
         -1   -1    0    0    0  501 -0.00000000000E+00  0.00000000000E+00  0.10295460375E+03  0.10295460375E+03  0.00000000000E+00 0.  1.
          1   -1    0    0  501    0  0.00000000000E+00 -0.00000000000E+00 -0.15937673013E+03  0.15937673013E+03  0.00000000000E+00 0. -1.
          5    1    1    2  502    0  0.57798656819E+02  0.81006759347E+02 -0.36486949869E+02  0.10607332229E+03  0.41800000000E+01 0. -1.
         -5    1    1    2    0  502 -0.12336913786E+02 -0.28883346366E+02  0.20657307639E+02  0.37823853558E+02  0.41800000000E+01 0. -1.
        -11    1    1    2    0    0 -0.32040485752E+02 -0.64927910707E+02 -0.58172359758E+02  0.92877606321E+02  0.00000000000E+00 0. -1.
         11    1    1    2    0    0 -0.13421257281E+02  0.12804497726E+02  0.17579875608E+02  0.25556551712E+02  0.00000000000E+00 0.  1.
</event>
<event>
 7    1  0.2732144E-009  0.1100187E+03  0.7561462E-02  0.1260535E+00
         -1   -1    0    0    0  501 -0.00000000000E+00  0.00000000000E+00  0.34315108851E+02  0.34315108851E+02  0.00000000000E+00 0.  1.
          1   -1    0    0  501    0  0.00000000000E+00 -0.00000000000E+00 -0.45594070458E+03  0.45594070458E+03  0.00000000000E+00 0. -1.
         25    2    1    2    0    0  0.41815140310E+02 -0.11698994301E+02 -0.13917739055E+03  0.19210246996E+03  0.12509052920E+03 0.  0.
          5    1    3    3  502    0 -0.20844051572E+02 -0.52744631228E+02 -0.51645867210E+02  0.76819519714E+02  0.41800000000E+01 0.  1.
         -5    1    3    3    0  502  0.62659191882E+02  0.41045636927E+02 -0.87531523342E+02  0.11528295024E+03  0.41800000000E+01 0.  1.
        -11    1    1    2    0    0 -0.70632789010E+00  0.38866063312E+02 -0.70034702791E+02  0.80099496699E+02  0.00000000000E+00 0.  1.
         11    1    1    2    0    0 -0.41108812420E+02 -0.27167069012E+02 -0.21241350239E+03  0.21805384677E+03  0.00000000000E+00 0. -1.
</event>
<event>
 7    1  0.2732144E-009  0.1987028E+03  0.7561462E-02  0.1150838E+00
         -1   -1    0    0    0  501 -0.00000000000E+00  0.00000000000E+00  0.31109151801E+03  0.31109151801E+03  0.00000000000E+00 0.  1.
          1   -1    0    0  501    0  0.00000000000E+00 -0.00000000000E+00 -0.15816340564E+03  0.15816340564E+03  0.00000000000E+00 0. -1.
         25    2    1    2    0    0 -0.14312736445E+03  0.10639916763E+03  0.15711138721E+03  0.26858440500E+03  0.12508944516E+03 0.  0.
          5    1    3    3  502    0 -0.19215333177E+02  0.89545138142E+02  0.79483405127E+02  0.12133690652E+03  0.41800000000E+01 0. -1.
         -5    1    3    3    0  502 -0.12391203128E+03  0.16854029490E+02  0.77627982080E+02  0.14724749847E+03  0.41800000000E+01 0. -1.
        -11    1    1    2    0    0  0.70785296505E+02 -0.70269207465E+02  0.41231545877E+02  0.10792756874E+03  0.00000000000E+00 0.  1.
         11    1    1    2    0    0  0.72342067948E+02 -0.36129960167E+02 -0.45414820717E+02  0.92742949907E+02  0.00000000000E+00 0. -1.
</event>
<event>
 7    1  0.2732144E-009  0.9609178E+02  0.7561462E-02  0.1288736E+00
          1   -1    0    0  501    0  0.00000000000E+00  0.00000000000E+00  0.56635039424E+03  0.56635039424E+03  0.00000000000E+00 0. -1.
         -1   -1    0    0    0  501 -0.00000000000E+00 -0.00000000000E+00 -0.26901185335E+02  0.26901185335E+02  0.00000000000E+00 0.  1.
         25    2    1    2    0    0  0.22849226171E+02 -0.45381595369E+02  0.40130615280E+03  0.42341065067E+03  0.12509346303E+03 0.  0.
          5    1    3    3  502    0 -0.17056229882E+02  0.15658933936E+02  0.10376562326E+02  0.25715027426E+02  0.41800000000E+01 0. -1.
         -5    1    3    3    0  502  0.39905456053E+02 -0.61040529305E+02  0.39092959048E+03  0.39769562325E+03  0.41800000000E+01 0. -1.
        -11    1    1    2    0    0  0.30627349771E+02  0.18074173753E+02  0.31751344647E+02  0.47674502595E+02  0.00000000000E+00 0.  1.
         11    1    1    2    0    0 -0.53476575942E+02  0.27307421616E+02  0.10639171146E+03  0.12216642631E+03  0.00000000000E+00 0. -1.
</event>
<event>
 7    1  0.2732144E-009  0.8023940E+02  0.7561462E-02  0.1328373E+00
          2   -1    0    0  501    0  0.00000000000E+00  0.00000000000E+00  0.34848149533E+03  0.34848149533E+03  0.00000000000E+00 0. -1.
         -2   -1    0    0    0  501 -0.00000000000E+00 -0.00000000000E+00 -0.39131690867E+02  0.39131690867E+02  0.00000000000E+00 0.  1.
         25    2    1    2    0    0  0.40953542937E+02 -0.13213448797E+02  0.20781600690E+03  0.24634899758E+03  0.12509415646E+03 0.  0.
          5    1    3    3  502    0  0.41561950521E+02 -0.39181761684E+02  0.26450126655E+02  0.63084766623E+02  0.41800000000E+01 0.  1.
         -5    1    3    3    0  502 -0.60840758395E+00  0.25968312887E+02  0.18136588024E+03  0.18326423096E+03  0.41800000000E+01 0.  1.
        -11    1    1    2    0    0 -0.57329687761E+02  0.17551535308E+02  0.28672753012E+02  0.66459583626E+02  0.00000000000E+00 0.  1.
         11    1    1    2    0    0  0.16376144824E+02 -0.43380865115E+01  0.72861044550E+02  0.74804604984E+02  0.00000000000E+00 0. -1.
</event>
<event>
 7    1  0.2732144E-009  0.7348761E+02  0.7561462E-02  0.1348619E+00
         -2   -1    0    0    0  501 -0.00000000000E+00  0.00000000000E+00  0.51135408714E+02  0.51135408714E+02  0.00000000000E+00 0. -1.
          2   -1    0    0  501    0  0.00000000000E+00 -0.00000000000E+00 -0.25590464675E+03  0.25590464675E+03  0.00000000000E+00 0.  1.
         25    2    1    2    0    0 -0.21292792700E+02  0.28878626172E+02 -0.10530520064E+03  0.16740417310E+03  0.12509042257E+03 0.  0.
          5    1    3    3  502    0 -0.56358000336E+02  0.11912496846E+02 -0.29757122570E+01  0.57831298156E+02  0.41800000000E+01 0.  1.
         -5    1    3    3    0  502  0.35065207636E+02  0.16966129327E+02 -0.10232948838E+03  0.10957287495E+03  0.41800000000E+01 0.  1.
        -11    1    1    2    0    0  0.28770273848E+02 -0.11245821812E+02 -0.11237139659E+03  0.11653981267E+03  0.00000000000E+00 0.  1.
         11    1    1    2    0    0 -0.74774811477E+01 -0.17632804360E+02  0.12907359195E+02  0.23096069694E+02  0.00000000000E+00 0. -1.
</event>
<event>
 7    1  0.2732144E-009  0.1060921E+03  0.7561462E-02  0.1267983E+00
          2   -1    0    0  501    0  0.00000000000E+00  0.00000000000E+00  0.52663133914E+02  0.52663133914E+02  0.00000000000E+00 0. -1.
         -2   -1    0    0    0  501 -0.00000000000E+00 -0.00000000000E+00 -0.23841984433E+03  0.23841984433E+03  0.00000000000E+00 0.  1.
         25    2    1    2    0    0 -0.19890119150E+02  0.69277384589E+01 -0.83308520046E+02  0.15176059842E+03  0.12508940531E+03 0.  0.
          5    1    3    3  502    0 -0.11156721159E+02 -0.57702616087E+02 -0.54788380522E+02  0.80456841664E+02  0.41800000000E+01 0. -1.
         -5    1    3    3    0  502 -0.87333979911E+01  0.64630354546E+02 -0.28520139524E+02  0.71303756757E+02  0.41800000000E+01 0. -1.
        -11    1    1    2    0    0  0.16381725078E+02  0.38765751859E+02 -0.74725769600E+02  0.85761792635E+02  0.00000000000E+00 0.  1.
         11    1    1    2    0    0  0.35083940714E+01 -0.45693490317E+02 -0.27722420768E+02  0.53560587185E+02  0.00000000000E+00 0. -1.
</event>
<event>
 7    1  0.2732144E-009  0.1816449E+03  0.7561462E-02  0.1166221E+00
         -2   -1    0    0    0  501 -0.00000000000E+00  0.00000000000E+00  0.23094593908E+02  0.23094593908E+02  0.00000000000E+00 0.  1.
          2   -1    0    0  501    0  0.00000000000E+00 -0.00000000000E+00 -0.21679343386E+04  0.21679343386E+04  0.00000000000E+00 0. -1.
         25    2    1    2    0    0  0.96553038905E+02  0.12796724291E+03 -0.16575444352E+04  0.16699699038E+04  0.12509124822E+03 0.  0.
          5    1    3    3  502    0 -0.29760278219E+02  0.33602084549E+02 -0.42105672020E+03  0.42346311324E+03  0.41800000000E+01 0.  1.
         -5    1    3    3    0  502  0.12631331712E+03  0.94365158359E+02 -0.12364877150E+04  0.12465067906E+04  0.41800000000E+01 0.  1.
        -11    1    1    2    0    0 -0.30514443670E+02 -0.34768163682E+02 -0.46065230290E+02  0.65283703326E+02  0.00000000000E+00 0.  1.
         11    1    1    2    0    0 -0.66038595235E+02 -0.93199079226E+02 -0.44123007924E+03  0.45577532541E+03  0.00000000000E+00 0. -1.
</event>
<event>
 7    1  0.2732144E-009  0.1069631E+03  0.7561462E-02  0.1266299E+00
          1   -1    0    0  501    0  0.00000000000E+00  0.00000000000E+00  0.33870110426E+03  0.33870110426E+03  0.00000000000E+00 0. -1.
         -1   -1    0    0    0  501 -0.00000000000E+00 -0.00000000000E+00 -0.50832440207E+02  0.50832440207E+02  0.00000000000E+00 0.  1.
         25    2    1    2    0    0  0.58515390973E+02  0.62869683769E+01  0.97852551257E+02  0.16937160977E+03  0.12509213987E+03 0.  0.
          5    1    3    3  502    0 -0.11690496823E+02 -0.47568820172E+02  0.28125711187E+02  0.56639106616E+02  0.41800000000E+01 0. -1.
         -5    1    3    3    0  502  0.70205887796E+02  0.53855788549E+02  0.69726840070E+02  0.11273250315E+03  0.41800000000E+01 0. -1.
        -11    1    1    2    0    0 -0.36856325421E+02  0.20150419633E+02  0.19600565159E+02  0.46353104421E+02  0.00000000000E+00 0.  1.
         11    1    1    2    0    0 -0.21659065551E+02 -0.26437388010E+02  0.17041554764E+03  0.17380883027E+03  0.00000000000E+00 0. -1.
</event>
<event>
 7    1  0.2732144E-009  0.1336514E+03  0.7561462E-02  0.1222136E+00
         -1   -1    0    0    0  501 -0.00000000000E+00  0.00000000000E+00  0.86057544223E+02  0.86057544223E+02  0.00000000000E+00 0.  1.
          1   -1    0    0  501    0  0.00000000000E+00 -0.00000000000E+00 -0.24596252569E+03  0.24596252569E+03  0.00000000000E+00 0. -1.
         25    2    1    2    0    0  0.65049948727E+02 -0.70524268415E+02 -0.72600241455E+02  0.17356144910E+03  0.12509042045E+03 0.  0.
          5    1    3    3  502    0  0.72490294812E+02 -0.86465327007E+00 -0.73574276946E+02  0.10337425741E+03  0.41800000000E+01 0.  1.
         -5    1    3    3    0  502 -0.74403460844E+01 -0.69659615145E+02  0.97403549136E+00  0.70187191688E+02  0.41800000000E+01 0.  1.
        -11    1    1    2    0    0 -0.40145611714E+02  0.86192694747E+02 -0.40888350030E+02  0.10350221223E+03  0.00000000000E+00 0.  1.
         11    1    1    2    0    0 -0.24904337013E+02 -0.15668426332E+02 -0.46416389982E+02  0.54956408587E+02  0.00000000000E+00 0. -1.
</event>
<event>
 7    1  0.2732144E-009  0.8499258E+02  0.7561462E-02  0.1315452E+00
          2   -1    0    0  501    0  0.00000000000E+00  0.00000000000E+00  0.56038011356E+03  0.56038011356E+03  0.00000000000E+00 0. -1.
         -2   -1    0    0    0  501 -0.00000000000E+00 -0.00000000000E+00 -0.62114762685E+02  0.62114762685E+02  0.00000000000E+00 0.  1.
         25    2    1    2    0    0 -0.18013971957E+02 -0.60481831698E+02  0.49280196866E+03  0.51233073362E+03  0.12508575117E+03 0.  0.
          5    1    3    3  502    0 -0.12225655008E+02 -0.61735636479E+02  0.49889185749E+03  0.50286311589E+03  0.41800000000E+01 0. -1.
         -5    1    3    3    0  502 -0.57883169492E+01  0.12538047809E+01 -0.60898888308E+01  0.94676177312E+01  0.41800000000E+01 0. -1.
        -11    1    1    2    0    0 -0.26191528090E+02  0.18814807774E+01 -0.19417106851E+02  0.32658232532E+02  0.00000000000E+00 0.  1.
         11    1    1    2    0    0  0.44205500047E+02  0.58600350921E+02  0.24880489060E+02  0.77505910086E+02  0.00000000000E+00 0. -1.
</event>
<event>
 7    1  0.2732144E-009  0.1021132E+03  0.7561462E-02  0.1275914E+00
          1   -1    0    0  501    0  0.00000000000E+00  0.00000000000E+00  0.34604707100E+03  0.34604707100E+03  0.00000000000E+00 0. -1.
         -1   -1    0    0    0  501 -0.00000000000E+00 -0.00000000000E+00 -0.64195388637E+02  0.64195388637E+02  0.00000000000E+00 0.  1.
         25    2    1    2    0    0  0.89724730100E+01 -0.75006708892E+02  0.43321799607E+02  0.15241695234E+03  0.12509051678E+03 0.  0.
          5    1    3    3  502    0 -0.30093739184E+02 -0.12014705240E+02 -0.32652970671E+02  0.46191721918E+02  0.41800000000E+01 0. -1.
         -5    1    3    3    0  502  0.39066212194E+02 -0.62992003652E+02  0.75974770278E+02  0.10622523042E+03  0.41800000000E+01 0. -1.
        -11    1    1    2    0    0  0.19123534606E+02  0.21698433781E+01  0.37071197900E+02  0.41769504544E+02  0.00000000000E+00 0.  1.
         11    1    1    2    0    0 -0.28096007616E+02  0.72836865514E+02  0.20145868485E+03  0.21605600275E+03  0.00000000000E+00 0. -1.
</event>
<event>
 7    1  0.2732144E-009  0.1009814E+03  0.7561462E-02  0.1278246E+00
         -2   -1    0    0    0  501 -0.00000000000E+00  0.00000000000E+00  0.37942689045E+02  0.37942689045E+02  0.00000000000E+00 0.  1.
          2   -1    0    0  501    0  0.00000000000E+00 -0.00000000000E+00 -0.47565266092E+03  0.47565266092E+03  0.00000000000E+00 0. -1.
         25    2    1    2    0    0  0.11081530446E+02 -0.73545675591E+02 -0.29699572688E+03  0.33073494804E+03  0.12508947738E+03 0.  0.
          5    1    3    3  502    0  0.22421244358E+02 -0.14412979391E+02  0.69360182654E+00  0.26988880247E+02  0.41800000000E+01 0. -1.
         -5    1    3    3    0  502 -0.11339713913E+02 -0.59132696200E+02 -0.29768932871E+03  0.30374606779E+03  0.41800000000E+01 0. -1.
        -11    1    1    2    0    0  0.25866878272E+02 -0.63214024442E+01 -0.19200105763E+02  0.32828335043E+02  0.00000000000E+00 0.  1.
         11    1    1    2    0    0 -0.36948408717E+02  0.79867078035E+02 -0.12151413922E+03  0.15003206688E+03  0.00000000000E+00 0. -1.
</event>
<event>
 7    1  0.2732144E-009  0.1209838E+03  0.7561462E-02  0.1241483E+00
          2   -1    0    0  501    0  0.00000000000E+00  0.00000000000E+00  0.52996021953E+03  0.52996021953E+03  0.00000000000E+00 0. -1.
         -2   -1    0    0    0  501 -0.00000000000E+00 -0.00000000000E+00 -0.28439045274E+02  0.28439045274E+02  0.00000000000E+00 0.  1.
         25    2    1    2    0    0  0.46727023341E+02 -0.28320898592E+02  0.23825278354E+03  0.27459086329E+03  0.12510102050E+03 0.  0.
          5    1    3    3  502    0  0.60366340261E+02 -0.69746206117E+02  0.17071221059E+03  0.19408441346E+03  0.41800000000E+01 0.  1.
         -5    1    3    3    0  502 -0.13639316920E+02  0.41425307525E+02  0.67540572953E+02  0.80506449831E+02  0.41800000000E+01 0.  1.
        -11    1    1    2    0    0  0.80739217336E+01  0.47177645899E+02  0.12750197632E+03  0.13618983975E+03  0.00000000000E+00 0. -1.
         11    1    1    2    0    0 -0.54800945075E+02 -0.18856747307E+02  0.13576641440E+03  0.14761856177E+03  0.00000000000E+00 0.  1.
</event>
<event>
 7    1  0.2732144E-009  0.1062719E+03  0.7561462E-02  0.1267634E+00
         -1   -1    0    0    0  501 -0.00000000000E+00  0.00000000000E+00  0.49987631240E+03  0.49987631240E+03  0.00000000000E+00 0.  1.
          1   -1    0    0  501    0  0.00000000000E+00 -0.00000000000E+00 -0.47970153823E+02  0.47970153823E+02  0.00000000000E+00 0. -1.
         25    2    1    2    0    0 -0.42689685335E+02  0.37827724270E+02  0.41088646968E+03  0.43327610928E+03  0.12508856843E+03 0.  0.
          5    1    3    3  502    0 -0.36423346009E+02  0.66565934997E+02  0.12819059803E+03  0.14902343997E+03  0.41800000000E+01 0. -1.
         -5    1    3    3    0  502 -0.62663393259E+01 -0.28738210727E+02  0.28269587165E+03  0.28425266931E+03  0.41800000000E+01 0. -1.
        -11    1    1    2    0    0  0.19459107958E+02 -0.66873665866E+02  0.29466638021E+02  0.75624247600E+02  0.00000000000E+00 0. -1.
         11    1    1    2    0    0  0.23230577376E+02  0.29045941596E+02  0.11553050879E+02  0.38946109344E+02  0.00000000000E+00 0.  1.
</event>
<event>
 7    1  0.2732144E-009  0.1826013E+03  0.7561462E-02  0.1165309E+00
          2   -1    0    0  501    0  0.00000000000E+00  0.00000000000E+00  0.76092978059E+03  0.76092978059E+03  0.00000000000E+00 0. -1.
         -2   -1    0    0    0  501 -0.00000000000E+00 -0.00000000000E+00 -0.13469122931E+03  0.13469122931E+03  0.00000000000E+00 0.  1.
         25    2    1    2    0    0  0.13544762939E+03  0.11734999420E+03 -0.19579892695E+02  0.21942939761E+03  0.12509519131E+03 0.  0.
          5    1    3    3  502    0  0.23421890812E+02  0.36344208978E+02  0.48638348789E+02  0.65212329113E+02  0.41800000000E+01 0.  1.
         -5    1    3    3    0  502  0.11202573858E+03  0.81005785217E+02 -0.68218241484E+02  0.15421706849E+03  0.41800000000E+01 0.  1.
        -11    1    1    2    0    0 -0.83241439505E+02 -0.46187871262E+02  0.19722069164E+03  0.21899419607E+03  0.00000000000E+00 0.  1.
         11    1    1    2    0    0 -0.52206189889E+02 -0.71162122933E+02  0.44859775233E+03  0.45719741622E+03  0.00000000000E+00 0. -1.
</event>
<event>
 7    1  0.2732144E-009  0.1108914E+03  0.7561462E-02  0.1258928E+00
         -1   -1    0    0    0  501 -0.00000000000E+00  0.00000000000E+00  0.54921314813E+03  0.54921314813E+03  0.00000000000E+00 0.  1.
          1   -1    0    0  501    0  0.00000000000E+00 -0.00000000000E+00 -0.47886465833E+02  0.47886465833E+02  0.00000000000E+00 0. -1.
         25    2    1    2    0    0 -0.76597784593E+02  0.27454746697E+02  0.43183799487E+03  0.45689720597E+03  0.12510003715E+03 0.  0.
          5    1    3    3  502    0 -0.63383778094E+02  0.65449799919E+02  0.17954263544E+03  0.20138075871E+03  0.41800000000E+01 0.  1.
         -5    1    3    3    0  502 -0.13214006499E+02 -0.37995053223E+02  0.25229535942E+03  0.25551644727E+03  0.41800000000E+01 0.  1.
        -11    1    1    2    0    0  0.87241688988E-01 -0.12094905993E+02 -0.18809052163E+02  0.22362352411E+02  0.00000000000E+00 0. -1.
         11    1    1    2    0    0  0.76510542904E+02 -0.15359840704E+02  0.88297739596E+02  0.11784005558E+03  0.00000000000E+00 0.  1.
</event>
<event>
 7    1  0.2732144E-009  0.1135051E+03  0.7561462E-02  0.1254213E+00
         -1   -1    0    0    0  501 -0.00000000000E+00  0.00000000000E+00  0.16665765508E+03  0.16665765508E+03  0.00000000000E+00 0.  1.
          1   -1    0    0  501    0  0.00000000000E+00 -0.00000000000E+00 -0.13870971771E+03  0.13870971771E+03  0.00000000000E+00 0. -1.
         25    2    1    2    0    0  0.68598282942E+02  0.71235151732E+02  0.53078930475E+02  0.16806247908E+03  0.12508977876E+03 0.  0.
          5    1    3    3  502    0  0.45973173078E+02  0.65174984260E+02  0.92381428823E+02  0.12211925322E+03  0.41800000000E+01 0. -1.
         -5    1    3    3    0  502  0.22625109864E+02  0.60601674719E+01 -0.39302498348E+02  0.45943225861E+02  0.41800000000E+01 0. -1.
        -11    1    1    2    0    0 -0.18716796767E+02 -0.71044298032E+02  0.12882663689E+02  0.74589367794E+02  0.00000000000E+00 0.  1.
         11    1    1    2    0    0 -0.49881486174E+02 -0.19085369958E+00 -0.38013656792E+02  0.62715525915E+02  0.00000000000E+00 0. -1.
</event>
<event>
 7    1  0.2732144E-009  0.1066332E+03  0.7561462E-02  0.1266935E+00
         -1   -1    0    0    0  501 -0.00000000000E+00  0.00000000000E+00  0.74710932232E+02  0.74710932232E+02  0.00000000000E+00 0.  1.
          1   -1    0    0  501    0  0.00000000000E+00 -0.00000000000E+00 -0.18917475754E+03  0.18917475754E+03  0.00000000000E+00 0. -1.
         25    2    1    2    0    0  0.39969868284E+02 -0.13513980947E+02 -0.10462193203E+03  0.16844302411E+03  0.12508831143E+03 0.  0.
          5    1    3    3  502    0  0.39959233532E+02 -0.61499267903E+02 -0.93682298622E+02  0.11904934175E+03  0.41800000000E+01 0.  1.
         -5    1    3    3    0  502  0.10634752515E-01  0.47985286956E+02 -0.10939633409E+02  0.49393682354E+02  0.41800000000E+01 0.  1.
        -11    1    1    2    0    0 -0.64454946334E+02  0.17602480190E+02  0.41551199946E+01  0.66944398107E+02  0.00000000000E+00 0.  1.
         11    1    1    2    0    0  0.24485078050E+02 -0.40884992427E+01 -0.13997013272E+02  0.28498267556E+02  0.00000000000E+00 0. -1.
</event>
<event>
 7    1  0.2732144E-009  0.1083556E+03  0.7561462E-02  0.1263646E+00
         -2   -1    0    0    0  501 -0.00000000000E+00  0.00000000000E+00  0.45073010713E+03  0.45073010713E+03  0.00000000000E+00 0.  1.
          2   -1    0    0  501    0  0.00000000000E+00 -0.00000000000E+00 -0.26711239766E+02  0.26711239766E+02  0.00000000000E+00 0. -1.
         25    2    1    2    0    0  0.15691110287E+02  0.27401607184E+01  0.21285073096E+03  0.24739884874E+03  0.12508811800E+03 0.  0.
          5    1    3    3  502    0 -0.27720901939E+02 -0.50064162890E+02  0.89581308704E+02  0.10638210413E+03  0.41800000000E+01 0.  1.
         -5    1    3    3    0  502  0.43412012226E+02  0.52804323608E+02  0.12326942225E+03  0.14101674461E+03  0.41800000000E+01 0.  1.
        -11    1    1    2    0    0  0.25913146460E+02  0.28722742721E+02  0.10082580207E+03  0.10799226579E+03  0.00000000000E+00 0.  1.
         11    1    1    2    0    0 -0.41604256747E+02 -0.31462903439E+02  0.11034233434E+03  0.12205023237E+03  0.00000000000E+00 0. -1.
</event>
<event>
 7    1  0.2732144E-009  0.1349890E+03  0.7561462E-02  0.1220235E+00
         -3   -1    0    0    0  501 -0.00000000000E+00  0.00000000000E+00  0.55549151612E+02  0.55549151612E+02  0.00000000000E+00 0.  1.
          3   -1    0    0  501    0  0.00000000000E+00 -0.00000000000E+00 -0.52774905842E+03  0.52774905842E+03  0.00000000000E+00 0. -1.
         25    2    1    2    0    0  0.15568619325E+02  0.11409017156E+03 -0.36716123530E+03  0.40461741995E+03  0.12509570202E+03 0.  0.
          5    1    3    3  502    0 -0.22264001002E+02 -0.43182458215E+01 -0.16963394650E+03  0.17119427909E+03  0.41800000000E+01 0. -1.
         -5    1    3    3    0  502  0.37832620328E+02  0.11840841738E+03 -0.19752728880E+03  0.23342314086E+03  0.41800000000E+01 0. -1.
        -11    1    1    2    0    0 -0.29649907031E+02 -0.64457687041E+02 -0.10543919196E+03  0.12708789717E+03  0.00000000000E+00 0. -1.
         11    1    1    2    0    0  0.14081287705E+02 -0.49632484517E+02  0.40052045396E+00  0.51592892915E+02  0.00000000000E+00 0.  1.
</event>
<event>
 7    1  0.2732144E-009  0.1302008E+03  0.7561462E-02  0.1227158E+00
          1   -1    0    0  501    0  0.00000000000E+00  0.00000000000E+00  0.20808899310E+03  0.20808899310E+03  0.00000000000E+00 0. -1.
         -1   -1    0    0    0  501 -0.00000000000E+00 -0.00000000000E+00 -0.86414391692E+02  0.86414391692E+02  0.00000000000E+00 0.  1.
         25    2    1    2    0    0  0.60628708415E+02  0.43179636851E+02  0.94444687878E+02  0.17351894386E+03  0.12509477801E+03 0.  0.
          5    1    3    3  502    0 -0.28228967060E+02 -0.20192967126E+02  0.13091762860E+02  0.37329574835E+02  0.41800000000E+01 0. -1.
         -5    1    3    3    0  502  0.88857675474E+02  0.63372603977E+02  0.81352925018E+02  0.13618936902E+03  0.41800000000E+01 0. -1.
        -11    1    1    2    0    0  0.47986154929E+01  0.22801723743E+02  0.13846415479E+02  0.27104769652E+02  0.00000000000E+00 0.  1.
         11    1    1    2    0    0 -0.65427323907E+02 -0.65981360594E+02  0.13383498048E+02  0.93879671279E+02  0.00000000000E+00 0. -1.
</event>
<event>
 7    1  0.2732144E-009  0.6498847E+02  0.7561462E-02  0.1378015E+00
         -3   -1    0    0    0  501 -0.00000000000E+00  0.00000000000E+00  0.16089410160E+02  0.16089410160E+02  0.00000000000E+00 0.  1.
          3   -1    0    0  501    0  0.00000000000E+00 -0.00000000000E+00 -0.75329245249E+03  0.75329245249E+03  0.00000000000E+00 0. -1.
         25    2    1    2    0    0 -0.69173571010E+01 -0.12386599482E+02 -0.47984462879E+03  0.49608501989E+03  0.12509277158E+03 0.  0.
          5    1    3    3  502    0 -0.43809692033E+01 -0.24370810424E+02 -0.11600033188E+02  0.27661570127E+02  0.41800000000E+01 0. -1.
         -5    1    3    3    0  502 -0.25363878977E+01  0.11984210942E+02 -0.46824459560E+03  0.46842344976E+03  0.41800000000E+01 0. -1.
        -11    1    1    2    0    0 -0.30070870744E+02  0.36860050516E+02 -0.12893562680E+03  0.13743113348E+03  0.00000000000E+00 0.  1.
         11    1    1    2    0    0  0.36988227845E+02 -0.24473451034E+02 -0.12842278674E+03  0.13586570928E+03  0.00000000000E+00 0. -1.
</event>
<event>
 7    1  0.2732144E-009  0.7359445E+02  0.7561462E-02  0.1348280E+00
         -2   -1    0    0    0  501 -0.00000000000E+00  0.00000000000E+00  0.34439728992E+02  0.34439728992E+02  0.00000000000E+00 0.  1.
          2   -1    0    0  501    0  0.00000000000E+00 -0.00000000000E+00 -0.39165888637E+03  0.39165888637E+03  0.00000000000E+00 0. -1.
         25    2    1    2    0    0 -0.30118110178E+02  0.15110967861E+02 -0.15325191815E+03  0.20067224224E+03  0.12509099280E+03 0.  0.
          5    1    3    3  502    0 -0.17008503357E+02  0.27617018054E+02 -0.17151765415E+03  0.17460746535E+03  0.41800000000E+01 0. -1.
         -5    1    3    3    0  502 -0.13109606821E+02 -0.12506050194E+02  0.18265736001E+02  0.26064776886E+02  0.41800000000E+01 0. -1.
        -11    1    1    2    0    0 -0.25782634344E+02  0.17513077196E+02 -0.61564815867E+02  0.69004917646E+02  0.00000000000E+00 0. -1.
         11    1    1    2    0    0  0.55900744523E+02 -0.32624045057E+02 -0.14240242337E+03  0.15642145548E+03  0.00000000000E+00 0.  1.
</event>
<event>
 7    1  0.2827111E-009  0.9193738E+02  0.7561462E-02  0.1298227E+00
         -1   -1    0    0    0  501 -0.00000000000E+00  0.00000000000E+00  0.10464814393E+03  0.10464814393E+03  0.00000000000E+00 0.  1.
          1   -1    0    0  501    0  0.00000000000E+00 -0.00000000000E+00 -0.16609457244E+03  0.16609457244E+03  0.00000000000E+00 0. -1.
         25    2    1    2    0    0 -0.78715780221E+00  0.31789254138E+02  0.35241631563E+02  0.13381236312E+03  0.12511034982E+03 0.  0.
          5    1    3    3  502    0  0.49478699250E+02 -0.22850916378E+02  0.17045089582E+02  0.57256558905E+02  0.41800000000E+01 0.  1.
         -5    1    3    3    0  502 -0.50265857052E+02  0.54640170516E+02  0.18196541980E+02  0.76555804217E+02  0.41800000000E+01 0.  1.
        -11    1    1    2    0    0  0.20789353297E+02 -0.49342604591E+01 -0.10093936699E+03  0.10317606285E+03  0.00000000000E+00 0. -1.
         11    1    1    2    0    0 -0.20002195495E+02 -0.26854993679E+02  0.42513069175E+01  0.33754290404E+02  0.00000000000E+00 0.  1.
</event>
<event>
 7    1  0.2732144E-009  0.1233839E+03  0.7561462E-02  0.1237617E+00
          3   -1    0    0  501    0  0.00000000000E+00  0.00000000000E+00  0.49789220230E+03  0.49789220230E+03  0.00000000000E+00 0. -1.
         -3   -1    0    0    0  501 -0.00000000000E+00 -0.00000000000E+00 -0.34546155881E+02  0.34546155881E+02  0.00000000000E+00 0.  1.
         25    2    1    2    0    0 -0.73979970061E+02  0.48264651989E+01  0.27766106156E+03  0.31343166549E+03  0.12508962022E+03 0.  0.
          5    1    3    3  502    0 -0.10263432306E+03  0.16699654674E+02  0.25306018946E+03  0.27362312517E+03  0.41800000000E+01 0.  1.
         -5    1    3    3    0  502  0.28654353002E+02 -0.11873189475E+02  0.24600872105E+02  0.39808540323E+02  0.41800000000E+01 0.  1.
        -11    1    1    2    0    0  0.54215523424E+01 -0.35774280820E+02  0.92012625255E+02  0.98871207155E+02  0.00000000000E+00 0. -1.
         11    1    1    2    0    0  0.68558417719E+02  0.30947815621E+02  0.93672359599E+02  0.12013548553E+03  0.00000000000E+00 0.  1.
</event>
<event>
 7    1  0.2732144E-009  0.1018615E+03  0.7561462E-02  0.1276429E+00
         -1   -1    0    0    0  501 -0.00000000000E+00  0.00000000000E+00  0.53735723237E+02  0.53735723237E+02  0.00000000000E+00 0.  1.
          1   -1    0    0  501    0  0.00000000000E+00 -0.00000000000E+00 -0.34620652504E+03  0.34620652504E+03  0.00000000000E+00 0. -1.
         25    2    1    2    0    0 -0.51069362247E+02  0.62324990705E+02 -0.14324073912E+03  0.20653879570E+03  0.12509148875E+03 0.  0.
          5    1    3    3  502    0 -0.51063182373E+02  0.62751655293E+02 -0.16529963515E+03  0.18408329804E+03  0.41800000000E+01 0. -1.
         -5    1    3    3    0  502 -0.61798746704E-02 -0.42666458777E+00  0.22058896031E+02  0.22455497655E+02  0.41800000000E+01 0. -1.
        -11    1    1    2    0    0  0.71457029259E+02 -0.66598222870E+02 -0.99244904122E+02  0.13925150381E+03  0.00000000000E+00 0.  1.
         11    1    1    2    0    0 -0.20387667012E+02  0.42732321651E+01 -0.49985158560E+02  0.54151948770E+02  0.00000000000E+00 0. -1.
</event>
<event>
 7    1  0.2732144E-009  0.3181947E+03  0.7561462E-02  0.1076483E+00
         -1   -1    0    0    0  501 -0.00000000000E+00  0.00000000000E+00  0.93137093387E+02  0.93137093387E+02  0.00000000000E+00 0.  1.
          1   -1    0    0  501    0  0.00000000000E+00 -0.00000000000E+00 -0.12075658931E+04  0.12075658931E+04  0.00000000000E+00 0. -1.
         25    2    1    2    0    0 -0.18578090899E+03 -0.24183780037E+03 -0.40055373538E+03  0.51874081447E+03  0.12509464350E+03 0.  0.
          5    1    3    3  502    0 -0.15535976899E+03 -0.13090836799E+03 -0.31689533552E+03  0.37644891380E+03  0.41800000000E+01 0. -1.
         -5    1    3    3    0  502 -0.30421140007E+02 -0.11092943238E+03 -0.83658399859E+02  0.14229190066E+03  0.41800000000E+01 0. -1.
        -11    1    1    2    0    0  0.12390263105E+03  0.87154443650E+02 -0.30844693597E+03  0.34363828561E+03  0.00000000000E+00 0.  1.
         11    1    1    2    0    0  0.61878277944E+02  0.15468335672E+03 -0.40542812840E+03  0.43832388645E+03  0.00000000000E+00 0. -1.
</event>
<event>
 7    1  0.2732144E-009  0.1057342E+03  0.7561462E-02  0.1268680E+00
         -1   -1    0    0    0  501 -0.00000000000E+00  0.00000000000E+00  0.39497289995E+03  0.39497289995E+03  0.00000000000E+00 0.  1.
          1   -1    0    0  501    0  0.00000000000E+00 -0.00000000000E+00 -0.39189050172E+02  0.39189050172E+02  0.00000000000E+00 0. -1.
         25    2    1    2    0    0  0.59682569864E+02  0.94963382980E+01  0.20520627040E+03  0.24780945860E+03  0.12509086606E+03 0.  0.
          5    1    3    3  502    0  0.12469807913E+02  0.46279488418E+02  0.17330514879E+03  0.17985948447E+03  0.41800000000E+01 0.  1.
         -5    1    3    3    0  502  0.47212761950E+02 -0.36783150120E+02  0.31901121618E+02  0.67949974129E+02  0.41800000000E+01 0.  1.
        -11    1    1    2    0    0 -0.10428422143E+02  0.35284024720E+02  0.25827777756E+02  0.44953181118E+02  0.00000000000E+00 0. -1.
         11    1    1    2    0    0 -0.49254147720E+02 -0.44780363018E+02  0.12474980162E+03  0.14139931041E+03  0.00000000000E+00 0.  1.
</event>
<event>
 7    1  0.2732144E-009  0.8037054E+02  0.7561462E-02  0.1328003E+00
          1   -1    0    0  501    0  0.00000000000E+00  0.00000000000E+00  0.11800303144E+03  0.11800303144E+03  0.00000000000E+00 0. -1.
         -1   -1    0    0    0  501 -0.00000000000E+00 -0.00000000000E+00 -0.12792052519E+03  0.12792052519E+03  0.00000000000E+00 0.  1.
         25    2    1    2    0    0 -0.44486723735E+02  0.45896731117E+01 -0.34377421672E+02  0.13724187858E+03  0.12511351817E+03 0.  0.
          5    1    3    3  502    0 -0.44917426956E+02 -0.44130227049E+02  0.17961262603E+02  0.65613501188E+02  0.41800000000E+01 0. -1.
         -5    1    3    3    0  502  0.43070322119E+00  0.48719900161E+02 -0.52338684275E+02  0.71628377397E+02  0.41800000000E+01 0. -1.
        -11    1    1    2    0    0  0.15113404785E+02  0.76169754850E+01  0.59204273040E+02  0.61575800977E+02  0.00000000000E+00 0. -1.
         11    1    1    2    0    0  0.29373318950E+02 -0.12206648597E+02 -0.34744345127E+02  0.47105877069E+02  0.00000000000E+00 0.  1.
</event>
<event>
 7    1  0.2732144E-009  0.2885883E+03  0.7561462E-02  0.1091089E+00
          1   -1    0    0  501    0  0.00000000000E+00  0.00000000000E+00  0.12624454815E+04  0.12624454815E+04  0.00000000000E+00 0. -1.
         -1   -1    0    0    0  501 -0.00000000000E+00 -0.00000000000E+00 -0.75198663943E+02  0.75198663943E+02  0.00000000000E+00 0.  1.
         25    2    1    2    0    0 -0.63325155010E+02  0.27088828339E+03  0.44353314870E+03  0.53829503495E+03  0.12509737536E+03 0.  0.
          5    1    3    3  502    0 -0.83886646456E+02  0.12894868818E+03  0.16927038806E+03  0.22876772131E+03  0.41800000000E+01 0.  1.
         -5    1    3    3    0  502  0.20561491447E+02  0.14193959520E+03  0.27426276064E+03  0.30952731364E+03  0.41800000000E+01 0.  1.
        -11    1    1    2    0    0  0.59710671432E+02 -0.19754482589E+03  0.42729310779E+03  0.47451946481E+03  0.00000000000E+00 0. -1.
         11    1    1    2    0    0  0.36144835779E+01 -0.73343457498E+02  0.31642056110E+03  0.32482964571E+03  0.00000000000E+00 0.  1.
</event>
<event>
 7    1  0.2732144E-009  0.2473078E+03  0.7561462E-02  0.1115018E+00
         -1   -1    0    0    0  501 -0.00000000000E+00  0.00000000000E+00  0.38948598589E+03  0.38948598589E+03  0.00000000000E+00 0.  1.
          1   -1    0    0  501    0  0.00000000000E+00 -0.00000000000E+00 -0.16662212871E+03  0.16662212871E+03  0.00000000000E+00 0. -1.
         25    2    1    2    0    0 -0.18119642018E+03 -0.14144315859E+03  0.12842786827E+03  0.29151486086E+03  0.12509551134E+03 0.  0.
          5    1    3    3  502    0 -0.16988539216E+03 -0.16396621396E+03  0.11663342513E+03  0.26337576587E+03  0.41800000000E+01 0.  1.
         -5    1    3    3    0  502 -0.11311028021E+02  0.22523055369E+02  0.11794443140E+02  0.28139094993E+02  0.41800000000E+01 0.  1.
        -11    1    1    2    0    0  0.30006917234E+02  0.74830408223E+01  0.48364823209E+02  0.57407030108E+02  0.00000000000E+00 0.  1.
         11    1    1    2    0    0  0.15118950294E+03  0.13396011777E+03  0.46071165699E+02  0.20718622363E+03  0.00000000000E+00 0. -1.
</event>
<event>
 7    1  0.2732144E-009  0.1335567E+03  0.7561462E-02  0.1222272E+00
         -2   -1    0    0    0  501 -0.00000000000E+00  0.00000000000E+00  0.10773373302E+04  0.10773373302E+04  0.00000000000E+00 0.  1.
          2   -1    0    0  501    0  0.00000000000E+00 -0.00000000000E+00 -0.24868899898E+02  0.24868899898E+02  0.00000000000E+00 0. -1.
         25    2    1    2    0    0 -0.10894935875E+03  0.20516858753E+02  0.73441152337E+03  0.75318997275E+03  0.12507575756E+03 0.  0.
          5    1    3    3  502    0 -0.59149738237E+02 -0.33827042258E+02  0.55498265978E+03  0.55916561534E+03  0.41800000000E+01 0.  1.
         -5    1    3    3    0  502 -0.49799620509E+02  0.54343901011E+02  0.17942886359E+03  0.19402435742E+03  0.41800000000E+01 0.  1.
        -11    1    1    2    0    0  0.53591548969E+02 -0.39411787510E+02  0.25268591536E+03  0.26129583797E+03  0.00000000000E+00 0.  1.
         11    1    1    2    0    0  0.55357809777E+02  0.18894928758E+02  0.65370991537E+02  0.87720419349E+02  0.00000000000E+00 0. -1.
</event>
<event>
 7    1  0.2732144E-009  0.8709298E+02  0.7561462E-02  0.1310048E+00
          1   -1    0    0  501    0  0.00000000000E+00  0.00000000000E+00  0.31182917812E+03  0.31182917812E+03  0.00000000000E+00 0. -1.
         -1   -1    0    0    0  501 -0.00000000000E+00 -0.00000000000E+00 -0.45842705105E+02  0.45842705105E+02  0.00000000000E+00 0.  1.
         25    2    1    2    0    0  0.15846639730E+02 -0.45683485935E+02  0.17652588107E+03  0.22168478397E+03  0.12507861480E+03 0.  0.
          5    1    3    3  502    0  0.34673947373E+02 -0.19504241899E+02  0.18401890545E+03  0.18831656338E+03  0.41800000000E+01 0. -1.
         -5    1    3    3    0  502 -0.18827307643E+02 -0.26179244036E+02 -0.74930243799E+01  0.33368220596E+02  0.41800000000E+01 0. -1.
        -11    1    1    2    0    0 -0.89200416138E+01  0.72971363949E+02  0.71757997946E+02  0.10273070314E+03  0.00000000000E+00 0.  1.
         11    1    1    2    0    0 -0.69265981163E+01 -0.27287878014E+02  0.17702593997E+02  0.33256396110E+02  0.00000000000E+00 0. -1.
</event>
<event>
 6    1  0.2732144E-009  0.9039980E+02  0.7561462E-02  0.1301886E+00
         -2   -1    0    0    0  501 -0.00000000000E+00  0.00000000000E+00  0.50031337246E+02  0.50031337246E+02  0.00000000000E+00 0.  1.
          2   -1    0    0  501    0  0.00000000000E+00 -0.00000000000E+00 -0.26872477594E+03  0.26872477594E+03  0.00000000000E+00 0. -1.
          5    1    1    2  502    0  0.19964644812E+01  0.28731790096E+02 -0.13523864110E+03  0.13833460912E+03  0.41800000000E+01 0. -1.
         -5    1    1    2    0  502 -0.44640986899E+02 -0.30184783945E+02 -0.50411478492E+01  0.54284661413E+02  0.41800000000E+01 0. -1.
        -11    1    1    2    0    0  0.70043078861E+02 -0.17260084057E+01 -0.64549119035E+02  0.95265947587E+02  0.00000000000E+00 0. -1.
         11    1    1    2    0    0 -0.27398556444E+02  0.31790022543E+01 -0.13864530704E+02  0.30870895066E+02  0.00000000000E+00 0.  1.
</event>
<event>
 7    1  0.2732144E-009  0.9258350E+02  0.7561462E-02  0.1296713E+00
          2   -1    0    0  501    0  0.00000000000E+00  0.00000000000E+00  0.25118123791E+03  0.25118123791E+03  0.00000000000E+00 0. -1.
         -2   -1    0    0    0  501 -0.00000000000E+00 -0.00000000000E+00 -0.65752070467E+02  0.65752070467E+02  0.00000000000E+00 0.  1.
         25    2    1    2    0    0 -0.40309335647E+02  0.24219461193E+02  0.40316728938E+02  0.13958588198E+03  0.12508938794E+03 0.  0.
          5    1    3    3  502    0 -0.29259463463E+02 -0.26975714976E+02 -0.31271834905E+02  0.50785878538E+02  0.41800000000E+01 0.  1.
         -5    1    3    3    0  502 -0.11049872184E+02  0.51195176169E+02  0.71588563843E+02  0.88800003442E+02  0.41800000000E+01 0.  1.
        -11    1    1    2    0    0  0.61195388643E+02 -0.33489292006E+02  0.13580434857E+03  0.15267360401E+03  0.00000000000E+00 0.  1.
         11    1    1    2    0    0 -0.20886052997E+02  0.92698308127E+01  0.93080899362E+01  0.24673822390E+02  0.00000000000E+00 0. -1.
</event>
<event>
 7    1  0.2732144E-009  0.1977667E+03  0.7561462E-02  0.1151637E+00
          2   -1    0    0  501    0  0.00000000000E+00  0.00000000000E+00  0.10382924421E+04  0.10382924421E+04  0.00000000000E+00 0.  1.
         -2   -1    0    0    0  501 -0.00000000000E+00 -0.00000000000E+00 -0.48175524888E+02  0.48175524888E+02  0.00000000000E+00 0. -1.
         25    2    1    2    0    0 -0.17460356288E+03  0.53673511146E+02  0.67651550930E+03  0.71182040313E+03  0.12509117483E+03 0.  0.
          5    1    3    3  502    0  0.31918573617E+01  0.23399862599E+02  0.21444116735E+03  0.21577819208E+03  0.41800000000E+01 0.  1.
         -5    1    3    3    0  502 -0.17779542025E+03  0.30273648547E+02  0.46207434195E+03  0.49604221106E+03  0.41800000000E+01 0.  1.
        -11    1    1    2    0    0  0.13251372468E+03 -0.64946716804E+02  0.28927638865E+03  0.32474419515E+03  0.00000000000E+00 0.  1.
         11    1    1    2    0    0  0.42089838201E+02  0.11273205657E+02  0.24325019252E+02  0.49903368696E+02  0.00000000000E+00 0. -1.
</event>
<event>
 7    1  0.2732144E-009  0.5912909E+02  0.7561462E-02  0.1401523E+00
          1   -1    0    0  501    0  0.00000000000E+00  0.00000000000E+00  0.10313250771E+03  0.10313250771E+03  0.00000000000E+00 0. -1.
         -1   -1    0    0    0  501 -0.00000000000E+00 -0.00000000000E+00 -0.11875889507E+03  0.11875889507E+03  0.00000000000E+00 0.  1.
         25    2    1    2    0    0 -0.94659514175E+01  0.10247592429E+02 -0.96117651065E+01  0.12623423212E+03  0.12509227771E+03 0.  0.
          5    1    3    3  502    0  0.10461879229E+02  0.24862204093E+02 -0.62229210443E+02  0.67952388786E+02  0.41800000000E+01 0. -1.
         -5    1    3    3    0  502 -0.19927830647E+02 -0.14614611664E+02  0.52617445337E+02  0.58281843332E+02  0.41800000000E+01 0. -1.
        -11    1    1    2    0    0 -0.15572778643E+02 -0.30136582215E+02  0.31549455408E+02  0.46325944770E+02  0.00000000000E+00 0.  1.
         11    1    1    2    0    0  0.25038730061E+02  0.19888989786E+02 -0.37564077658E+02  0.49331225893E+02  0.00000000000E+00 0. -1.
</event>
<event>
 7    1  0.2732144E-009  0.1231300E+03  0.7561462E-02  0.1238021E+00
          1   -1    0    0  501    0  0.00000000000E+00  0.00000000000E+00  0.95929787106E+02  0.95929787106E+02  0.00000000000E+00 0. -1.
         -1   -1    0    0    0  501 -0.00000000000E+00 -0.00000000000E+00 -0.29594560788E+03  0.29594560788E+03  0.00000000000E+00 0.  1.
         25    2    1    2    0    0  0.10557546172E+03 -0.44752428972E+02 -0.38443532515E+02  0.17399642696E+03  0.12509154003E+03 0.  0.
          5    1    3    3  502    0  0.10075155267E+02 -0.18970987394E+02  0.41385476906E+02  0.46814925132E+02  0.41800000000E+01 0. -1.
         -5    1    3    3    0  502  0.95500306456E+02 -0.25781441578E+02 -0.79829009421E+02  0.12718150183E+03  0.41800000000E+01 0. -1.
        -11    1    1    2    0    0 -0.63184605917E+02  0.52654318373E+02 -0.45365824510E+02  0.93929919098E+02  0.00000000000E+00 0. -1.
         11    1    1    2    0    0 -0.42390855806E+02 -0.79018894009E+01 -0.11620646375E+03  0.12394904892E+03  0.00000000000E+00 0.  1.
</event>
<event>
 7    1  0.2732144E-009  0.1706313E+03  0.7561462E-02  0.1177191E+00
         -2   -1    0    0    0  501 -0.00000000000E+00  0.00000000000E+00  0.84922585925E+02  0.84922585925E+02  0.00000000000E+00 0.  1.
          2   -1    0    0  501    0  0.00000000000E+00 -0.00000000000E+00 -0.50024990086E+03  0.50024990086E+03  0.00000000000E+00 0. -1.
         25    2    1    2    0    0  0.15177059259E+03  0.61105782596E+02 -0.30154600030E+03  0.36516479597E+03  0.12508840262E+03 0.  0.
          5    1    3    3  502    0  0.65914250427E+02  0.25373508606E+02 -0.27790728911E+02  0.76015132453E+02  0.41800000000E+01 0.  1.
         -5    1    3    3    0  502  0.85856342167E+02  0.35732273989E+02 -0.27375527139E+03  0.28914966351E+03  0.41800000000E+01 0.  1.
        -11    1    1    2    0    0 -0.13286863539E+03 -0.76256138649E+02 -0.12045525338E+03  0.19488083800E+03  0.00000000000E+00 0. -1.
         11    1    1    2    0    0 -0.18901957201E+02  0.15150356053E+02  0.66739387407E+01  0.25126852825E+02  0.00000000000E+00 0.  1.
</event>
<event>
 7    1  0.2732144E-009  0.3118419E+03  0.7561462E-02  0.1079466E+00
         -2   -1    0    0    0  501 -0.00000000000E+00  0.00000000000E+00  0.58919511941E+02  0.58919511941E+02  0.00000000000E+00 0.  1.
          2   -1    0    0  501    0  0.00000000000E+00 -0.00000000000E+00 -0.20153677138E+04  0.20153677138E+04  0.00000000000E+00 0. -1.
         25    2    1    2    0    0  0.14832881721E+03  0.26704530181E+03 -0.13450383066E+04  0.13849512077E+04  0.12508864948E+03 0.  0.
          5    1    3    3  502    0  0.50996323724E+02  0.30837520273E+02 -0.45691090752E+03  0.46079998644E+03  0.41800000000E+01 0.  1.
         -5    1    3    3    0  502  0.97332493487E+02  0.23620778153E+03 -0.88812739904E+03  0.92415122121E+03  0.41800000000E+01 0.  1.
        -11    1    1    2    0    0  0.19065211039E+01 -0.14154206012E+02 -0.86104527386E+02  0.87280960162E+02  0.00000000000E+00 0. -1.
         11    1    1    2    0    0 -0.15023533832E+03 -0.25289109579E+03 -0.52530536788E+03  0.60205505789E+03  0.00000000000E+00 0.  1.
</event>
<event>
 7    1  0.2732144E-009  0.1548197E+03  0.7561462E-02  0.1194673E+00
          2   -1    0    0  501    0  0.00000000000E+00  0.00000000000E+00  0.31218946063E+03  0.31218946063E+03  0.00000000000E+00 0. -1.
         -2   -1    0    0    0  501 -0.00000000000E+00 -0.00000000000E+00 -0.10541625463E+03  0.10541625463E+03  0.00000000000E+00 0.  1.
         25    2    1    2    0    0 -0.69274976331E+02  0.99149282054E+02  0.20012512513E+03  0.26519172246E+03  0.12508789500E+03 0.  0.
          5    1    3    3  502    0 -0.90146154254E+02  0.11072709627E+03  0.19265881382E+03  0.23983684020E+03  0.41800000000E+01 0.  1.
         -5    1    3    3    0  502  0.20871177923E+02 -0.11577814212E+02  0.74663113108E+01  0.25354882260E+02  0.41800000000E+01 0.  1.
        -11    1    1    2    0    0  0.25236128615E+02  0.81990081998E+01 -0.20163019920E+02  0.33326165324E+02  0.00000000000E+00 0.  1.
         11    1    1    2    0    0  0.44038847716E+02 -0.10734829025E+03  0.26811100787E+02  0.11908782748E+03  0.00000000000E+00 0. -1.
</event>
<event>
 7    1  0.2732144E-009  0.1086682E+03  0.7561462E-02  0.1263056E+00
         -1   -1    0    0    0  501 -0.00000000000E+00  0.00000000000E+00  0.53159113155E+02  0.53159113155E+02  0.00000000000E+00 0.  1.
          1   -1    0    0  501    0  0.00000000000E+00 -0.00000000000E+00 -0.30134993451E+03  0.30134993451E+03  0.00000000000E+00 0. -1.
         25    2    1    2    0    0 -0.55228120815E+02 -0.18321959433E+02 -0.12001480774E+03  0.18285705052E+03  0.12508919746E+03 0.  0.
          5    1    3    3  502    0  0.17759285911E+02 -0.49560917331E+02 -0.23473293255E+02  0.57793984626E+02  0.41800000000E+01 0. -1.
         -5    1    3    3    0  502 -0.72987406726E+02  0.31238957898E+02 -0.96541514486E+02  0.12506306589E+03  0.41800000000E+01 0. -1.
        -11    1    1    2    0    0  0.17274729154E+02  0.38384583996E+02 -0.64580132612E+01  0.42585190985E+02  0.00000000000E+00 0.  1.
         11    1    1    2    0    0  0.37953391661E+02 -0.20062624563E+02 -0.12171800036E+03  0.12906680617E+03  0.00000000000E+00 0. -1.
</event>
<event>
 7    1  0.2732144E-009  0.8998258E+02  0.7561462E-02  0.1302894E+00
          1   -1    0    0  501    0  0.00000000000E+00  0.00000000000E+00  0.24259675300E+03  0.24259675300E+03  0.00000000000E+00 0. -1.
         -1   -1    0    0    0  501 -0.00000000000E+00 -0.00000000000E+00 -0.68769377314E+02  0.68769377314E+02  0.00000000000E+00 0.  1.
         25    2    1    2    0    0  0.28131576970E+01 -0.41727264221E+01  0.17563276702E+03  0.21568390832E+03  0.12508938386E+03 0.  0.
          5    1    3    3  502    0 -0.17120409478E+02  0.37671732977E+02  0.88384843869E+01  0.42518926285E+02  0.41800000000E+01 0.  1.
         -5    1    3    3    0  502  0.19933567175E+02 -0.41844459399E+02  0.16679428264E+03  0.17316498203E+03  0.41800000000E+01 0.  1.
        -11    1    1    2    0    0  0.23715277234E+02  0.40453306268E+02 -0.14315609070E+02  0.49028777522E+02  0.00000000000E+00 0.  1.
         11    1    1    2    0    0 -0.26528434931E+02 -0.36280579845E+02  0.12510217739E+02  0.46653444478E+02  0.00000000000E+00 0. -1.
</event>
<event>
 7    1  0.2732144E-009  0.9335079E+02  0.7561462E-02  0.1294934E+00
         -1   -1    0    0    0  501 -0.00000000000E+00  0.00000000000E+00  0.30892382590E+02  0.30892382590E+02  0.00000000000E+00 0. -1.
          1   -1    0    0  501    0  0.00000000000E+00 -0.00000000000E+00 -0.38914435402E+03  0.38914435402E+03  0.00000000000E+00 0.  1.
         25    2    1    2    0    0  0.28242720356E+01  0.11702408800E+02 -0.18829153105E+03  0.22637845187E+03  0.12509428412E+03 0.  0.
          5    1    3    3  502    0  0.49048335087E+02  0.11292782095E+02 -0.16852521414E+03  0.17593034503E+03  0.41800000000E+01 0.  1.
         -5    1    3    3    0  502 -0.46224063051E+02  0.40962670442E+00 -0.19766316909E+02  0.50448106834E+02  0.41800000000E+01 0.  1.
        -11    1    1    2    0    0  0.34051987930E+02 -0.32814760604E+02 -0.64662325714E+02  0.80109692062E+02  0.00000000000E+00 0. -1.
         11    1    1    2    0    0 -0.36876259966E+02  0.21112351804E+02 -0.10529811466E+03  0.11354859268E+03  0.00000000000E+00 0.  1.
</event>
<event>
 7    1  0.3012006E-009  0.9165960E+02  0.7561462E-02  0.1298882E+00
         -2   -1    0    0    0  501 -0.00000000000E+00  0.00000000000E+00  0.67367846865E+02  0.67367846865E+02  0.00000000000E+00 0.  1.
          2   -1    0    0  501    0  0.00000000000E+00 -0.00000000000E+00 -0.19195061241E+03  0.19195061241E+03  0.00000000000E+00 0. -1.
         25    2    1    2    0    0  0.10725867412E+02  0.27179687057E+02 -0.93259980888E+02  0.15872981999E+03  0.12507578542E+03 0.  0.
          5    1    3    3  502    0 -0.66906464699E+01 -0.47626197530E+02 -0.53782220589E+02  0.72270457954E+02  0.41800000000E+01 0. -1.
         -5    1    3    3    0  502  0.17416513882E+02  0.74805884588E+02 -0.39477760298E+02  0.86459362032E+02  0.41800000000E+01 0. -1.
        -11    1    1    2    0    0 -0.31045839450E+02 -0.15822710806E+02  0.22820643843E+02  0.41653140455E+02  0.00000000000E+00 0.  1.
         11    1    1    2    0    0  0.20319972038E+02 -0.11356976251E+02 -0.54143428503E+02  0.58935498837E+02  0.00000000000E+00 0. -1.
</event>
<event>
 7    1  0.2732144E-009  0.1197796E+03  0.7561462E-02  0.1243461E+00
         -2   -1    0    0    0  501 -0.00000000000E+00  0.00000000000E+00  0.13555880255E+03  0.13555880255E+03  0.00000000000E+00 0.  1.
          2   -1    0    0  501    0  0.00000000000E+00 -0.00000000000E+00 -0.15932449627E+03  0.15932449627E+03  0.00000000000E+00 0. -1.
         25    2    1    2    0    0  0.90630339732E+02  0.34906216550E+02  0.12640436790E+01  0.15836770493E+03  0.12508568953E+03 0.  0.
          5    1    3    3  502    0 -0.49404971989E+01 -0.49972541520E+01 -0.44369029451E+02  0.45116119470E+02  0.41800000000E+01 0. -1.
         -5    1    3    3    0  502  0.95570836931E+02  0.39903470702E+02  0.45633073130E+02  0.11325158546E+03  0.41800000000E+01 0. -1.
        -11    1    1    2    0    0 -0.33507900742E+02 -0.57298603382E+02 -0.33883925800E+02  0.74525363395E+02  0.00000000000E+00 0.  1.
         11    1    1    2    0    0 -0.57122438990E+02  0.22392386832E+02  0.88541884048E+01  0.61990230492E+02  0.00000000000E+00 0. -1.
</event>
<event>
 7    1  0.2732144E-009  0.1368099E+03  0.7561462E-02  0.1217687E+00
          2   -1    0    0  501    0  0.00000000000E+00  0.00000000000E+00  0.59378057629E+03  0.59378057629E+03  0.00000000000E+00 0.  1.
         -2   -1    0    0    0  501 -0.00000000000E+00 -0.00000000000E+00 -0.42599758952E+02  0.42599758952E+02  0.00000000000E+00 0. -1.
         25    2    1    2    0    0 -0.39649265227E+02  0.92554202505E+02  0.40552739629E+03  0.43616280002E+03  0.12508866593E+03 0.  0.
          5    1    3    3  502    0  0.35886841623E+02  0.70246835899E+02  0.16299388768E+03  0.18112692560E+03  0.41800000000E+01 0.  1.
         -5    1    3    3    0  502 -0.75536106849E+02  0.22307366606E+02  0.24253350861E+03  0.25503587442E+03  0.41800000000E+01 0.  1.
        -11    1    1    2    0    0  0.19574187137E+02 -0.93626377844E+02  0.15159989847E+03  0.17925282884E+03  0.00000000000E+00 0.  1.
         11    1    1    2    0    0  0.20075078090E+02  0.10721753385E+01 -0.59464774196E+01  0.20964706389E+02  0.00000000000E+00 0. -1.
</event>
<event>
 7    1  0.2732144E-009  0.8588679E+02  0.7561462E-02  0.1313130E+00
          2   -1    0    0  501    0  0.00000000000E+00  0.00000000000E+00  0.28973356826E+03  0.28973356826E+03  0.00000000000E+00 0. -1.
         -2   -1    0    0    0  501 -0.00000000000E+00 -0.00000000000E+00 -0.54814997435E+02  0.54814997435E+02  0.00000000000E+00 0.  1.
         25    2    1    2    0    0 -0.39375716933E+02 -0.23027175612E+02  0.19559178043E+03  0.23660707882E+03  0.12508424072E+03 0.  0.
          5    1    3    3  502    0 -0.80798895792E+02 -0.62639898724E+01  0.15971600313E+03  0.17914902508E+03  0.41800000000E+01 0. -1.
         -5    1    3    3    0  502  0.41423178860E+02 -0.16763185740E+02  0.35875777297E+02  0.57458053740E+02  0.41800000000E+01 0. -1.
        -11    1    1    2    0    0  0.26502502135E+02  0.13609632072E+02 -0.26705650637E+02  0.40009954768E+02  0.00000000000E+00 0.  1.
         11    1    1    2    0    0  0.12873214798E+02  0.94175435410E+01  0.66032441032E+02  0.67931532106E+02  0.00000000000E+00 0. -1.
</event>
<event>
 7    1  0.2732144E-009  0.1916658E+03  0.7561462E-02  0.1156967E+00
         -1   -1    0    0    0  501 -0.00000000000E+00  0.00000000000E+00  0.48806614230E+02  0.48806614230E+02  0.00000000000E+00 0.  1.
          1   -1    0    0  501    0  0.00000000000E+00 -0.00000000000E+00 -0.89296798152E+03  0.89296798152E+03  0.00000000000E+00 0. -1.
         25    2    1    2    0    0  0.10687753536E+03  0.13043166256E+03 -0.30939732192E+03  0.37391033038E+03  0.12508799380E+03 0.  0.
          5    1    3    3  502    0  0.10201046468E+03  0.15420724718E+03 -0.26524786317E+03  0.32335725027E+03  0.41800000000E+01 0. -1.
         -5    1    3    3    0  502  0.48670706800E+01 -0.23775584619E+02 -0.44149458753E+02  0.50553080116E+02  0.41800000000E+01 0. -1.
        -11    1    1    2    0    0 -0.40226106034E+02 -0.20360024391E+02 -0.54865199037E+02  0.71013099251E+02  0.00000000000E+00 0.  1.
         11    1    1    2    0    0 -0.66651429324E+02 -0.11007163817E+03 -0.47989884633E+03  0.49685116611E+03  0.00000000000E+00 0. -1.
</event>
<event>
 7    1  0.2732144E-009  0.1277360E+03  0.7561462E-02  0.1230854E+00
         -2   -1    0    0    0  501 -0.00000000000E+00  0.00000000000E+00  0.41973257646E+02  0.41973257646E+02  0.00000000000E+00 0.  1.
          2   -1    0    0  501    0  0.00000000000E+00 -0.00000000000E+00 -0.46267666756E+03  0.46267666756E+03  0.00000000000E+00 0. -1.
         25    2    1    2    0    0 -0.53365139878E+02  0.50747713622E+02 -0.31660366497E+03  0.34829235481E+03  0.12508603102E+03 0.  0.
          5    1    3    3  502    0 -0.52186163685E+02 -0.31967781002E+02 -0.15503466873E+03  0.16672898851E+03  0.41800000000E+01 0.  1.
         -5    1    3    3    0  502 -0.11789761931E+01  0.82715494624E+02 -0.16156899624E+03  0.18156336630E+03  0.41800000000E+01 0.  1.
        -11    1    1    2    0    0 -0.16720058257E+02 -0.35982173329E+02 -0.15913151591E+02  0.42749333786E+02  0.00000000000E+00 0.  1.
         11    1    1    2    0    0  0.70085198136E+02 -0.14765540293E+02 -0.88186593350E+02  0.11360823660E+03  0.00000000000E+00 0. -1.
</event>
<event>
 7    1  0.2732144E-009  0.8892029E+02  0.7561462E-02  0.1305488E+00
         -4   -1    0    0    0  501 -0.00000000000E+00  0.00000000000E+00  0.20863641590E+02  0.20863641590E+02  0.00000000000E+00 0.  1.
          4   -1    0    0  501    0  0.00000000000E+00 -0.00000000000E+00 -0.62351519700E+03  0.62351519700E+03  0.00000000000E+00 0. -1.
         25    2    1    2    0    0 -0.14582725040E+02 -0.28851418932E+02 -0.37780422518E+03  0.39928577564E+03  0.12509211733E+03 0.  0.
          5    1    3    3  502    0 -0.14994404464E+02 -0.69673126118E+02 -0.32313928296E+03  0.33093148122E+03  0.41800000000E+01 0.  1.
         -5    1    3    3    0  502  0.41167942444E+00  0.40821707187E+02 -0.54664942220E+02  0.68354294419E+02  0.41800000000E+01 0.  1.
        -11    1    1    2    0    0  0.36641493981E+02  0.17565806098E+02 -0.21437616486E+03  0.21819325536E+03  0.00000000000E+00 0. -1.
         11    1    1    2    0    0 -0.22058768941E+02  0.11285612834E+02 -0.10471165367E+02  0.26899807590E+02  0.00000000000E+00 0.  1.
</event>
<event>
 7    1  0.2732144E-009  0.7481669E+02  0.7561462E-02  0.1344440E+00
          1   -1    0    0  501    0  0.00000000000E+00  0.00000000000E+00  0.44664647389E+03  0.44664647389E+03  0.00000000000E+00 0. -1.
         -1   -1    0    0    0  501 -0.00000000000E+00 -0.00000000000E+00 -0.28718671259E+02  0.28718671259E+02  0.00000000000E+00 0.  1.
         25    2    1    2    0    0 -0.39164456823E+01  0.15124009621E+02  0.17107580461E+03  0.21250563439E+03  0.12509052526E+03 0.  0.
          5    1    3    3  502    0  0.21812746272E+02  0.38782319170E+02  0.17157504000E+03  0.17730011543E+03  0.41800000000E+01 0. -1.
         -5    1    3    3    0  502 -0.25729191955E+02 -0.23658309550E+02 -0.49923538909E+00  0.35205518962E+02  0.41800000000E+01 0. -1.
        -11    1    1    2    0    0 -0.31433698214E+02 -0.37419976864E+00  0.32893776973E+02  0.45499648048E+02  0.00000000000E+00 0.  1.
         11    1    1    2    0    0  0.35350143897E+02 -0.14749809852E+02  0.21395822105E+03  0.21735986271E+03  0.00000000000E+00 0. -1.
</event>
<event>
 7    1  0.2732144E-009  0.9286593E+02  0.7561462E-02  0.1296056E+00
          1   -1    0    0  501    0  0.00000000000E+00  0.00000000000E+00  0.54679365854E+03  0.54679365854E+03  0.00000000000E+00 0. -1.
         -1   -1    0    0    0  501 -0.00000000000E+00 -0.00000000000E+00 -0.30387986837E+02  0.30387986837E+02  0.00000000000E+00 0.  1.
         25    2    1    2    0    0  0.20912973815E+02 -0.50512243455E+02  0.38978104625E+03  0.41298439508E+03  0.12505201857E+03 0.  0.
          5    1    3    3  502    0 -0.19799679478E+02 -0.70745743010E+02  0.13139466248E+03  0.15059554174E+03  0.41800000000E+01 0. -1.
         -5    1    3    3    0  502  0.40712653293E+02  0.20233499555E+02  0.25838638376E+03  0.26238885334E+03  0.41800000000E+01 0. -1.
        -11    1    1    2    0    0  0.10888498435E+02  0.17835902884E+02 -0.77573612382E+01  0.22290255343E+02  0.00000000000E+00 0.  1.
         11    1    1    2    0    0 -0.31801472250E+02  0.32676340572E+02  0.13438198670E+03  0.14190699496E+03  0.00000000000E+00 0. -1.
</event>
<event>
 7    1  0.2732144E-009  0.1521774E+03  0.7561462E-02  0.1197823E+00
         -3   -1    0    0    0  501 -0.00000000000E+00  0.00000000000E+00  0.28095122030E+03  0.28095122030E+03  0.00000000000E+00 0.  1.
          3   -1    0    0  501    0  0.00000000000E+00 -0.00000000000E+00 -0.90408951835E+02  0.90408951835E+02  0.00000000000E+00 0. -1.
         25    2    1    2    0    0  0.11430482942E+03 -0.21455277534E+02  0.99914889747E+02  0.19788007637E+03  0.12509043316E+03 0.  0.
          5    1    3    3  502    0  0.16417534181E+01  0.40560557136E+02  0.34995539303E+02  0.53758853416E+02  0.41800000000E+01 0. -1.
         -5    1    3    3    0  502  0.11266307600E+03 -0.62015834669E+02  0.64919350444E+02  0.14412122295E+03  0.41800000000E+01 0. -1.
        -11    1    1    2    0    0  0.84604100194E+01  0.75229838641E+01  0.37173742593E+02  0.38859502857E+02  0.00000000000E+00 0.  1.
         11    1    1    2    0    0 -0.12276523944E+03  0.13932293669E+02  0.53453636128E+02  0.13462059291E+03  0.00000000000E+00 0. -1.
</event>
<event>
 7    1  0.2732144E-009  0.8705973E+02  0.7561462E-02  0.1310132E+00
         -1   -1    0    0    0  501 -0.00000000000E+00  0.00000000000E+00  0.16678186054E+03  0.16678186054E+03  0.00000000000E+00 0.  1.
          1   -1    0    0  501    0  0.00000000000E+00 -0.00000000000E+00 -0.74106144409E+02  0.74106144409E+02  0.00000000000E+00 0. -1.
         25    2    1    2    0    0  0.24837180440E+02 -0.23535442150E+02  0.50598467958E+02  0.13920559265E+03  0.12508872649E+03 0.  0.
          5    1    3    3  502    0  0.58785953607E+02  0.40184569527E+00 -0.15578551080E+02  0.60959933359E+02  0.41800000000E+01 0.  1.
         -5    1    3    3    0  502 -0.33948773167E+02 -0.23937287845E+02  0.66177019037E+02  0.78245659289E+02  0.41800000000E+01 0.  1.
        -11    1    1    2    0    0 -0.47195521857E+02  0.16459039252E+02  0.55476990114E+02  0.74672710468E+02  0.00000000000E+00 0.  1.
         11    1    1    2    0    0  0.22358341418E+02  0.70764028980E+01 -0.13399741942E+02  0.27009701832E+02  0.00000000000E+00 0. -1.
</event>
<event>
 7    1  0.2732144E-009  0.8242698E+02  0.7561462E-02  0.1322302E+00
         -4   -1    0    0    0  501 -0.00000000000E+00  0.00000000000E+00  0.47350517648E+03  0.47350517648E+03  0.00000000000E+00 0.  1.
          4   -1    0    0  501    0  0.00000000000E+00 -0.00000000000E+00 -0.33741970532E+02  0.33741970532E+02  0.00000000000E+00 0. -1.
         25    2    1    2    0    0  0.53977920520E+02 -0.36551812926E+02  0.23620805417E+03  0.27511715174E+03  0.12508217855E+03 0.  0.
          5    1    3    3  502    0  0.43643108057E+02 -0.17588476393E+02  0.24638991216E+03  0.25087753307E+03  0.41800000000E+01 0.  1.
         -5    1    3    3    0  502  0.10334812463E+02 -0.18963336533E+02 -0.10181857989E+02  0.24239618669E+02  0.41800000000E+01 0.  1.
        -11    1    1    2    0    0 -0.12780172374E+02 -0.21153707367E+02  0.12012619334E+03  0.12264222139E+03  0.00000000000E+00 0.  1.
         11    1    1    2    0    0 -0.41197748146E+02  0.57705520293E+02  0.83428958429E+02  0.10948777388E+03  0.00000000000E+00 0. -1.
</event>
<event>
 7    1  0.2732144E-009  0.9829367E+02  0.7561462E-02  0.1283926E+00
          1   -1    0    0  501    0  0.00000000000E+00  0.00000000000E+00  0.20818055253E+03  0.20818055253E+03  0.00000000000E+00 0. -1.
         -1   -1    0    0    0  501 -0.00000000000E+00 -0.00000000000E+00 -0.59572976847E+02  0.59572976847E+02  0.00000000000E+00 0.  1.
         25    2    1    2    0    0  0.17752315758E+02  0.85017819407E+00  0.10720421868E+03  0.16569900684E+03  0.12509016287E+03 0.  0.
          5    1    3    3  502    0  0.60638767648E+02  0.84608099273E+01  0.14309845778E+02  0.63014994507E+02  0.41800000000E+01 0.  1.
         -5    1    3    3    0  502 -0.42886451890E+02 -0.76106317332E+01  0.92894372903E+02  0.10268401233E+03  0.41800000000E+01 0.  1.
        -11    1    1    2    0    0 -0.14601900185E+02  0.44072780727E+02  0.10985152494E+02  0.47710576033E+02  0.00000000000E+00 0.  1.
         11    1    1    2    0    0 -0.31504155729E+01 -0.44922958922E+02  0.30418204507E+02  0.54343946507E+02  0.00000000000E+00 0. -1.
</event>
<event>
 7    1  0.2732144E-009  0.1042393E+03  0.7561462E-02  0.1271626E+00
          2   -1    0    0  501    0  0.00000000000E+00  0.00000000000E+00  0.66411728689E+02  0.66411728689E+02  0.00000000000E+00 0. -1.
         -2   -1    0    0    0  501 -0.00000000000E+00 -0.00000000000E+00 -0.22510953363E+03  0.22510953363E+03  0.00000000000E+00 0.  1.
         25    2    1    2    0    0  0.17184801019E+02  0.36788598912E+02 -0.13285665208E+03  0.18693430784E+03  0.12507928305E+03 0.  0.
          5    1    3    3  502    0 -0.36688628966E+02  0.58141501993E+02 -0.95915522426E+02  0.11808365506E+03  0.41800000000E+01 0. -1.
         -5    1    3    3    0  502  0.53873429984E+02 -0.21352903081E+02 -0.36941129653E+02  0.68850652781E+02  0.41800000000E+01 0. -1.
        -11    1    1    2    0    0 -0.41311166748E+02 -0.39582131710E+02 -0.45691576172E+02  0.73219381191E+02  0.00000000000E+00 0.  1.
         11    1    1    2    0    0  0.24126365730E+02  0.27935327984E+01  0.19850423308E+02  0.31367573294E+02  0.00000000000E+00 0. -1.
</event>
<event>
 7    1  0.2732144E-009  0.1167765E+03  0.7561462E-02  0.1248512E+00
         -1   -1    0    0    0  501 -0.00000000000E+00  0.00000000000E+00  0.34754546474E+02  0.34754546474E+02  0.00000000000E+00 0.  1.
          1   -1    0    0  501    0  0.00000000000E+00 -0.00000000000E+00 -0.68964343256E+03  0.68964343256E+03  0.00000000000E+00 0. -1.
         25    2    1    2    0    0  0.43324594309E+02 -0.79405265082E+02 -0.20301734323E+03  0.25504031966E+03  0.12508919381E+03 0.  0.
          5    1    3    3  502    0 -0.32711924794E+02 -0.37890829384E+02 -0.13736702138E+03  0.14626331030E+03  0.41800000000E+01 0.  1.
         -5    1    3    3    0  502  0.76036519103E+02 -0.41514435698E+02 -0.65650321843E+02  0.10877700937E+03  0.41800000000E+01 0.  1.
        -11    1    1    2    0    0 -0.19265685322E+02  0.73451488118E+01 -0.13947318945E+02  0.24892680606E+02  0.00000000000E+00 0.  1.
         11    1    1    2    0    0 -0.24058908987E+02  0.72060116271E+02 -0.43792422392E+03  0.44446497877E+03  0.00000000000E+00 0. -1.
</event>
<event>
 7    1  0.2732144E-009  0.1630243E+03  0.7561462E-02  0.1185324E+00
          4   -1    0    0  501    0  0.00000000000E+00  0.00000000000E+00  0.37557146276E+03  0.37557146276E+03  0.00000000000E+00 0.  1.
         -4   -1    0    0    0  501 -0.00000000000E+00 -0.00000000000E+00 -0.82862777522E+02  0.82862777522E+02  0.00000000000E+00 0. -1.
         25    2    1    2    0    0 -0.92139671739E+02 -0.10264828258E+03  0.13557778280E+03  0.23033717350E+03  0.12508992479E+03 0.  0.
          5    1    3    3  502    0 -0.10564396491E+03 -0.11007638607E+03  0.79621477742E+02  0.17214676939E+03  0.41800000000E+01 0.  1.
         -5    1    3    3    0  502  0.13504293171E+02  0.74281034951E+01  0.55956305056E+02  0.58190404115E+02  0.41800000000E+01 0.  1.
        -11    1    1    2    0    0  0.21305444156E+02  0.80447330200E+02  0.47874317187E+02  0.96008568019E+02  0.00000000000E+00 0. -1.
         11    1    1    2    0    0  0.70834227583E+02  0.22200952377E+02  0.10925658525E+03  0.13208849876E+03  0.00000000000E+00 0.  1.
</event>
<event>
 7    1  0.2732144E-009  0.1378650E+03  0.7561462E-02  0.1216231E+00
          1   -1    0    0  501    0  0.00000000000E+00  0.00000000000E+00  0.35642826937E+02  0.35642826937E+02  0.00000000000E+00 0. -1.
         -1   -1    0    0    0  501 -0.00000000000E+00 -0.00000000000E+00 -0.10867688090E+04  0.10867688090E+04  0.00000000000E+00 0.  1.
         25    2    1    2    0    0 -0.42617631388E+02 -0.86791075523E+02 -0.92631570537E+03  0.93971113770E+03  0.12508910027E+03 0.  0.
          5    1    3    3  502    0  0.30122192455E+02  0.80288102152E+01 -0.33187642589E+03  0.33336352940E+03  0.41800000000E+01 0. -1.
         -5    1    3    3    0  502 -0.72739823843E+02 -0.94819885738E+02 -0.59443927948E+03  0.60634760830E+03  0.41800000000E+01 0. -1.
        -11    1    1    2    0    0  0.64423331685E+02  0.48523507212E+02 -0.10965516296E+03  0.13612182478E+03  0.00000000000E+00 0.  1.
         11    1    1    2    0    0 -0.21805700297E+02  0.38267568311E+02 -0.15155113754E+02  0.46578673476E+02  0.00000000000E+00 0. -1.
</event>
<event>
 7    1  0.2732144E-009  0.1143602E+03  0.7561462E-02  0.1252702E+00
         -2   -1    0    0    0  501 -0.00000000000E+00  0.00000000000E+00  0.56701842954E+02  0.56701842954E+02  0.00000000000E+00 0.  1.
          2   -1    0    0  501    0  0.00000000000E+00 -0.00000000000E+00 -0.25537573907E+03  0.25537573907E+03  0.00000000000E+00 0. -1.
         25    2    1    2    0    0 -0.34068589315E+02  0.40229188166E+02 -0.10500667396E+03  0.17161850777E+03  0.12508978486E+03 0.  0.
          5    1    3    3  502    0 -0.66803624453E+02  0.59062689882E+02 -0.43451790432E+02  0.99280693329E+02  0.41800000000E+01 0. -1.
         -5    1    3    3    0  502  0.32735035138E+02 -0.18833501716E+02 -0.61554883530E+02  0.72337814445E+02  0.41800000000E+01 0. -1.
        -11    1    1    2    0    0 -0.29149199601E+02 -0.67484943346E+01 -0.44621482233E+02  0.53724246759E+02  0.00000000000E+00 0. -1.
         11    1    1    2    0    0  0.63217788916E+02 -0.33480693832E+02 -0.49045739917E+02  0.86734827486E+02  0.00000000000E+00 0.  1.
</event>
<event>
 7    1  0.2732144E-009  0.1400920E+03  0.7561462E-02  0.1213205E+00
          4   -1    0    0  501    0  0.00000000000E+00  0.00000000000E+00  0.25170477343E+03  0.25170477343E+03  0.00000000000E+00 0. -1.
         -4   -1    0    0    0  501 -0.00000000000E+00 -0.00000000000E+00 -0.87674277849E+02  0.87674277849E+02  0.00000000000E+00 0.  1.
         25    2    1    2    0    0 -0.97706041561E+02 -0.78267697020E+01  0.69157382827E+02  0.17331183970E+03  0.12508605557E+03 0.  0.
          5    1    3    3  502    0  0.21186766413E+02  0.25420340464E+02  0.38234026955E+01  0.33573257044E+02  0.41800000000E+01 0.  1.
         -5    1    3    3    0  502 -0.11889280797E+03 -0.33247110166E+02  0.65333980132E+02  0.13973858265E+03  0.41800000000E+01 0.  1.
        -11    1    1    2    0    0  0.11002423789E+03  0.29725637274E+01  0.10282511030E+03  0.15062261572E+03  0.00000000000E+00 0. -1.
         11    1    1    2    0    0 -0.12318196331E+02  0.48542059747E+01 -0.79519975412E+01  0.15444595864E+02  0.00000000000E+00 0.  1.
</event>
<event>
 6    1  0.2732144E-009  0.1962329E+03  0.7561462E-02  0.1152957E+00
          2   -1    0    0  501    0  0.00000000000E+00  0.00000000000E+00  0.77569251328E+03  0.77569251328E+03  0.00000000000E+00 0. -1.
         -2   -1    0    0    0  501 -0.00000000000E+00 -0.00000000000E+00 -0.58572534793E+02  0.58572534793E+02  0.00000000000E+00 0.  1.
          5    1    1    2  502    0 -0.14757976600E+02 -0.22693283323E+02  0.10082041204E+02  0.29187376315E+02  0.41800000000E+01 0.  1.
         -5    1    1    2    0  502 -0.16108579592E+03  0.73349928965E+02  0.38635590990E+03  0.42499083195E+03  0.41800000000E+01 0.  1.
        -11    1    1    2    0    0  0.62437270206E+02  0.31202121391E+01  0.18489895846E+03  0.19518138557E+03  0.00000000000E+00 0. -1.
         11    1    1    2    0    0  0.11340650231E+03 -0.53776857782E+02  0.13578306892E+03  0.18490545424E+03  0.00000000000E+00 0.  1.
</event>
<event>
 6    1  0.2732144E-009  0.1131980E+03  0.7561462E-02  0.1254760E+00
          1   -1    0    0  501    0  0.00000000000E+00  0.00000000000E+00  0.24942493807E+03  0.24942493807E+03  0.00000000000E+00 0. -1.
         -1   -1    0    0    0  501 -0.00000000000E+00 -0.00000000000E+00 -0.57432331045E+02  0.57432331045E+02  0.00000000000E+00 0.  1.
          5    1    1    2  502    0  0.89127637850E+01  0.48023199899E+02  0.40770539092E+02  0.63760288148E+02  0.41800000000E+01 0.  1.
         -5    1    1    2    0  502 -0.55494209034E+02 -0.65009251793E+02  0.65241635734E+02  0.10760926302E+03  0.41800000000E+01 0.  1.
        -11    1    1    2    0    0  0.61636396193E+02 -0.84777798165E+01  0.23770826279E+02  0.66603080021E+02  0.00000000000E+00 0.  1.
         11    1    1    2    0    0 -0.15054950944E+02  0.25463831711E+02  0.62209605921E+02  0.68884637926E+02  0.00000000000E+00 0. -1.
</event>
<event>
 7    1  0.2732144E-009  0.1439708E+03  0.7561462E-02  0.1208084E+00
          1   -1    0    0  501    0  0.00000000000E+00  0.00000000000E+00  0.98993729521E+03  0.98993729521E+03  0.00000000000E+00 0. -1.
         -1   -1    0    0    0  501 -0.00000000000E+00 -0.00000000000E+00 -0.28808487661E+02  0.28808487661E+02  0.00000000000E+00 0.  1.
         25    2    1    2    0    0 -0.35334256866E+02 -0.10151335988E+03  0.72911107426E+03  0.74753130026E+03  0.12508642740E+03 0.  0.
          5    1    3    3  502    0  0.35344350402E+02 -0.42864654339E+02  0.13041675988E+03  0.14181891748E+03  0.41800000000E+01 0.  1.
         -5    1    3    3    0  502 -0.70678607268E+02 -0.58648705539E+02  0.59869431438E+03  0.60571238279E+03  0.41800000000E+01 0.  1.
        -11    1    1    2    0    0  0.59822715205E+02  0.34765365447E+02  0.10803308147E+03  0.12829082033E+03  0.00000000000E+00 0. -1.
         11    1    1    2    0    0 -0.24488458339E+02  0.66747994432E+02  0.12398465181E+03  0.14292366227E+03  0.00000000000E+00 0.  1.
</event>
<event>
 7    1  0.2732144E-009  0.2481485E+03  0.7561462E-02  0.1114481E+00
          2   -1    0    0  501    0  0.00000000000E+00  0.00000000000E+00  0.33071037728E+03  0.33071037728E+03  0.00000000000E+00 0. -1.
         -2   -1    0    0    0  501 -0.00000000000E+00 -0.00000000000E+00 -0.22096040332E+03  0.22096040332E+03  0.00000000000E+00 0.  1.
         25    2    1    2    0    0  0.18268828982E+03  0.12970676645E+03 -0.50534712131E+02  0.26153565247E+03  0.12509310085E+03 0.  0.
          5    1    3    3  502    0  0.60808082944E+01  0.66890389634E+02 -0.27244052166E+02  0.72601730236E+02  0.41800000000E+01 0. -1.
         -5    1    3    3    0  502  0.17660748153E+03  0.62816376821E+02 -0.23290659966E+02  0.18893392223E+03  0.41800000000E+01 0. -1.
        -11    1    1    2    0    0 -0.13394899676E+03 -0.40641191935E+02  0.85349596608E+02  0.16394692390E+03  0.00000000000E+00 0.  1.
         11    1    1    2    0    0 -0.48739293065E+02 -0.89065574520E+02  0.74935089484E+02  0.12618820424E+03  0.00000000000E+00 0. -1.
</event>
<event>
 7    1  0.2732144E-009  0.1319288E+03  0.7561462E-02  0.1224622E+00
         -2   -1    0    0    0  501 -0.00000000000E+00  0.00000000000E+00  0.26925694580E+02  0.26925694580E+02  0.00000000000E+00 0. -1.
          2   -1    0    0  501    0  0.00000000000E+00 -0.00000000000E+00 -0.65270023373E+03  0.65270023373E+03  0.00000000000E+00 0.  1.
         25    2    1    2    0    0 -0.73804523804E+02  0.20115294612E+01 -0.32819823656E+03  0.35890375540E+03  0.12508664665E+03 0.  0.
          5    1    3    3  502    0 -0.72229060938E+02 -0.53207676931E+02 -0.19872940946E+03  0.21808013370E+03  0.41800000000E+01 0.  1.
         -5    1    3    3    0  502 -0.15754628661E+01  0.55219206392E+02 -0.12946882710E+03  0.14082362170E+03  0.41800000000E+01 0.  1.
        -11    1    1    2    0    0  0.41941444722E+02  0.45219417472E+02 -0.17504999239E+03  0.18559736080E+03  0.00000000000E+00 0.  1.
         11    1    1    2    0    0  0.31863079083E+02 -0.47230946933E+02 -0.12252631020E+03  0.13512481211E+03  0.00000000000E+00 0. -1.
</event>
<event>
 7    1  0.2732144E-009  0.1269247E+03  0.7561462E-02  0.1232092E+00
         -2   -1    0    0    0  501 -0.00000000000E+00  0.00000000000E+00  0.36838390441E+02  0.36838390441E+02  0.00000000000E+00 0.  1.
          2   -1    0    0  501    0  0.00000000000E+00 -0.00000000000E+00 -0.57794231738E+03  0.57794231738E+03  0.00000000000E+00 0. -1.
         25    2    1    2    0    0  0.87618285954E+02 -0.86102302685E+01 -0.38025107664E+03  0.40986496031E+03  0.12508918542E+03 0.  0.
          5    1    3    3  502    0  0.63775687742E+02 -0.58720036414E+02 -0.29930256708E+03  0.31163260434E+03  0.41800000000E+01 0.  1.
         -5    1    3    3    0  502  0.23842598213E+02  0.50109806145E+02 -0.80948509552E+02  0.98232355974E+02  0.41800000000E+01 0.  1.
        -11    1    1    2    0    0 -0.88079178828E+02 -0.13660190303E+02 -0.75833493519E+02  0.11702675455E+03  0.00000000000E+00 0.  1.
         11    1    1    2    0    0  0.46089287416E+00  0.22270420571E+02 -0.85019356782E+02  0.87888992953E+02  0.00000000000E+00 0. -1.
</event>
<event>
 7    1  0.2732144E-009  0.1438995E+03  0.7561462E-02  0.1208176E+00
          2   -1    0    0  501    0  0.00000000000E+00  0.00000000000E+00  0.47581427620E+03  0.47581427620E+03  0.00000000000E+00 0. -1.
         -2   -1    0    0    0  501 -0.00000000000E+00 -0.00000000000E+00 -0.76401059674E+02  0.76401059674E+02  0.00000000000E+00 0.  1.
         25    2    1    2    0    0  0.19987982285E+01  0.11831177315E+03  0.63084841712E+02  0.18338240319E+03  0.12509091768E+03 0.  0.
          5    1    3    3  502    0  0.46731914572E+02  0.10835688856E+03  0.18891016206E+02  0.11958022425E+03  0.41800000000E+01 0. -1.
         -5    1    3    3    0  502 -0.44733116343E+02  0.99548845858E+01  0.44193825506E+02  0.63802178942E+02  0.41800000000E+01 0. -1.
        -11    1    1    2    0    0 -0.13721296080E+02 -0.10529606341E+03  0.33481633556E+03  0.35125135373E+03  0.00000000000E+00 0. -1.
         11    1    1    2    0    0  0.11722497852E+02 -0.13015709734E+02  0.15120392493E+01  0.17581578952E+02  0.00000000000E+00 0.  1.
</event>
<event>
 7    1  0.2732144E-009  0.1650225E+03  0.7561462E-02  0.1183140E+00
         -2   -1    0    0    0  501 -0.00000000000E+00  0.00000000000E+00  0.82146781031E+02  0.82146781031E+02  0.00000000000E+00 0.  1.
          2   -1    0    0  501    0  0.00000000000E+00 -0.00000000000E+00 -0.44910192892E+03  0.44910192892E+03  0.00000000000E+00 0. -1.
         25    2    1    2    0    0 -0.12654189589E+03  0.13571033194E+01 -0.59977300729E+02  0.18778839593E+03  0.12510999919E+03 0.  0.
          5    1    3    3  502    0 -0.13929966841E+03  0.31831653276E+02 -0.58490120107E+02  0.15445458335E+03  0.41800000000E+01 0. -1.
         -5    1    3    3    0  502  0.12757772518E+02 -0.30474549957E+02 -0.14871806221E+01  0.33333812577E+02  0.41800000000E+01 0. -1.
        -11    1    1    2    0    0  0.10875164711E+03  0.34226111202E+02 -0.23591826200E+03  0.26202246809E+03  0.00000000000E+00 0.  1.
         11    1    1    2    0    0  0.17790248779E+02 -0.35583214521E+02 -0.71059585157E+02  0.81437845931E+02  0.00000000000E+00 0. -1.
</event>
<event>
 7    1  0.2732144E-009  0.1351350E+03  0.7561462E-02  0.1220029E+00
         -2   -1    0    0    0  501 -0.00000000000E+00  0.00000000000E+00  0.11688511953E+02  0.11688511953E+02  0.00000000000E+00 0.  1.
          2   -1    0    0  501    0  0.00000000000E+00 -0.00000000000E+00 -0.27113948475E+04  0.27113948475E+04  0.00000000000E+00 0. -1.
         25    2    1    2    0    0 -0.56015697823E+02 -0.85211320789E+02 -0.21708734783E+04  0.21768638694E+04  0.12508365027E+03 0.  0.
          5    1    3    3  502    0 -0.27924658673E+02  0.21609229143E+02 -0.21937890891E+03  0.22224158796E+03  0.41800000000E+01 0. -1.
         -5    1    3    3    0  502 -0.28091039150E+02 -0.10682054993E+03 -0.19514945694E+04  0.19546222814E+04  0.41800000000E+01 0. -1.
        -11    1    1    2    0    0  0.27250579368E+02  0.90868397431E+02 -0.47981983014E+03  0.48910809554E+03  0.00000000000E+00 0.  1.
         11    1    1    2    0    0  0.28765118455E+02 -0.56570766419E+01 -0.49013027118E+02  0.57111394512E+02  0.00000000000E+00 0. -1.
</event>
<event>
 7    1  0.2732144E-009  0.1247255E+03  0.7561462E-02  0.1235499E+00
          1   -1    0    0  501    0  0.00000000000E+00  0.00000000000E+00  0.87588293746E+03  0.87588293746E+03  0.00000000000E+00 0. -1.
         -1   -1    0    0    0  501 -0.00000000000E+00 -0.00000000000E+00 -0.23984919864E+02  0.23984919864E+02  0.00000000000E+00 0.  1.
         25    2    1    2    0    0  0.94469315787E+02 -0.12471341233E+02  0.40877709365E+03  0.43799004952E+03  0.12512627704E+03 0.  0.
          5    1    3    3  502    0  0.37465531427E+02  0.30700268061E+02  0.32116488013E+03  0.32482383707E+03  0.41800000000E+01 0.  1.
         -5    1    3    3    0  502  0.57003784360E+02 -0.43171609294E+02  0.87612213519E+02  0.11316621244E+03  0.41800000000E+01 0.  1.
        -11    1    1    2    0    0  0.12210887457E+02  0.18710307102E+02  0.10164008449E+03  0.10406674848E+03  0.00000000000E+00 0.  1.
         11    1    1    2    0    0 -0.10668020324E+03 -0.62389658691E+01  0.34148083945E+03  0.35781105932E+03  0.00000000000E+00 0. -1.
</event>
<event>
 7    1  0.2732144E-009  0.9173113E+02  0.7561462E-02  0.1298713E+00
         -2   -1    0    0    0  501 -0.00000000000E+00  0.00000000000E+00  0.14722859102E+02  0.14722859102E+02  0.00000000000E+00 0. -1.
          2   -1    0    0  501    0  0.00000000000E+00 -0.00000000000E+00 -0.12515046903E+04  0.12515046903E+04  0.00000000000E+00 0.  1.
         25    2    1    2    0    0  0.90921534292E+00  0.68202859117E+02 -0.85172314073E+03  0.86355692973E+03  0.12508319535E+03 0.  0.
          5    1    3    3  502    0  0.14747230861E+01  0.63060010250E+02 -0.85414292781E+03  0.85647904424E+03  0.41800000000E+01 0.  1.
         -5    1    3    3    0  502 -0.56550774313E+00  0.51428488670E+01  0.24197870750E+01  0.70778854868E+01  0.41800000000E+01 0.  1.
        -11    1    1    2    0    0  0.42211314735E+02 -0.53260024583E+02 -0.27997953437E+03  0.28810929345E+03  0.00000000000E+00 0.  1.
         11    1    1    2    0    0 -0.43120530077E+02 -0.14942834533E+02 -0.10507915607E+03  0.11456132619E+03  0.00000000000E+00 0. -1.
</event>
<event>
 7    1  0.2732144E-009  0.8195208E+02  0.7561462E-02  0.1323601E+00
          2   -1    0    0  501    0  0.00000000000E+00  0.00000000000E+00  0.17827140435E+03  0.17827140435E+03  0.00000000000E+00 0. -1.
         -2   -1    0    0    0  501 -0.00000000000E+00 -0.00000000000E+00 -0.94209505390E+02  0.94209505390E+02  0.00000000000E+00 0.  1.
         25    2    1    2    0    0 -0.72943602557E+02 -0.38971699958E+00  0.22289187007E+02  0.14651820143E+03  0.12509937834E+03 0.  0.
          5    1    3    3  502    0  0.72872655387E+00  0.81538186254E+01  0.61731781606E+02  0.62412347022E+02  0.41800000000E+01 0. -1.
         -5    1    3    3    0  502 -0.73672329111E+02 -0.85435356250E+01 -0.39442594599E+02  0.84105854412E+02  0.41800000000E+01 0. -1.
        -11    1    1    2    0    0  0.27974063163E+02  0.16715118763E+02 -0.14706833512E+02  0.35752403514E+02  0.00000000000E+00 0.  1.
         11    1    1    2    0    0  0.44969539395E+02 -0.16325401763E+02  0.76479545467E+02  0.90210304794E+02  0.00000000000E+00 0. -1.
</event>
<event>
 7    1  0.2732144E-009  0.1066166E+03  0.7561462E-02  0.1266967E+00
          2   -1    0    0  501    0  0.00000000000E+00  0.00000000000E+00  0.89740104291E+03  0.89740104291E+03  0.00000000000E+00 0. -1.
         -2   -1    0    0    0  501 -0.00000000000E+00 -0.00000000000E+00 -0.17681975908E+02  0.17681975908E+02  0.00000000000E+00 0.  1.
         25    2    1    2    0    0  0.53589119283E+02 -0.34146390758E+02  0.48511396800E+03  0.50499630189E+03  0.12509169945E+03 0.  0.
          5    1    3    3  502    0  0.59712967129E+02 -0.54434497245E+02  0.16122362146E+03  0.18038647801E+03  0.41800000000E+01 0. -1.
         -5    1    3    3    0  502 -0.61238478461E+01  0.20288106487E+02  0.32389034654E+03  0.32460982388E+03  0.41800000000E+01 0. -1.
        -11    1    1    2    0    0  0.20314427155E+02  0.30607764461E+02  0.10760039992E+03  0.11369853675E+03  0.00000000000E+00 0.  1.
         11    1    1    2    0    0 -0.73903546437E+02  0.35386262973E+01  0.28700469907E+03  0.29638818017E+03  0.00000000000E+00 0. -1.
</event>
<event>
 7    1  0.2732144E-009  0.3327764E+03  0.7561462E-02  0.1069915E+00
         -1   -1    0    0    0  501 -0.00000000000E+00  0.00000000000E+00  0.97779172351E+03  0.97779172351E+03  0.00000000000E+00 0.  1.
          1   -1    0    0  501    0  0.00000000000E+00 -0.00000000000E+00 -0.15180837960E+03  0.15180837960E+03  0.00000000000E+00 0. -1.
         25    2    1    2    0    0  0.59762088935E+02 -0.32312814184E+03  0.17009901542E+03  0.39059562010E+03  0.12509180657E+03 0.  0.
          5    1    3    3  502    0 -0.33309639630E+00 -0.75882893053E+02  0.10193272714E+03  0.12714589130E+03  0.41800000000E+01 0.  1.
         -5    1    3    3    0  502  0.60095185331E+02 -0.24724524879E+03  0.68166288280E+02  0.26344972880E+03  0.41800000000E+01 0.  1.
        -11    1    1    2    0    0  0.92820385006E+01  0.12343945547E+03  0.30852333105E+03  0.33243059608E+03  0.00000000000E+00 0. -1.
         11    1    1    2    0    0 -0.69044127435E+02  0.19968868637E+03  0.34736099743E+03  0.40657388693E+03  0.00000000000E+00 0.  1.
</event>
<event>
 7    1  0.2732144E-009  0.9951507E+02  0.7561462E-02  0.1281319E+00
          2   -1    0    0  501    0  0.00000000000E+00  0.00000000000E+00  0.87018826613E+03  0.87018826613E+03  0.00000000000E+00 0. -1.
         -2   -1    0    0    0  501 -0.00000000000E+00 -0.00000000000E+00 -0.12568508421E+02  0.12568508421E+02  0.00000000000E+00 0.  1.
         25    2    1    2    0    0 -0.17334123693E+02  0.35476242191E+01  0.55153769463E+03  0.56582254232E+03  0.12509301867E+03 0.  0.
          5    1    3    3  502    0 -0.21522429995E+02 -0.59267270079E+02  0.28414860187E+03  0.29109057807E+03  0.41800000000E+01 0. -1.
         -5    1    3    3    0  502  0.41883063020E+01  0.62814894298E+02  0.26738909275E+03  0.27473196425E+03  0.41800000000E+01 0. -1.
        -11    1    1    2    0    0 -0.13145387122E+02 -0.29766403408E+02  0.66868314406E+02  0.74365391453E+02  0.00000000000E+00 0.  1.
         11    1    1    2    0    0  0.30479510815E+02  0.26218779189E+02  0.23921374867E+03  0.24256884078E+03  0.00000000000E+00 0. -1.
</event>
<event>
 7    1  0.2732144E-009  0.1521494E+03  0.7561462E-02  0.1197856E+00
          1   -1    0    0  501    0  0.00000000000E+00  0.00000000000E+00  0.19536315651E+03  0.19536315651E+03  0.00000000000E+00 0. -1.
         -1   -1    0    0    0  501 -0.00000000000E+00 -0.00000000000E+00 -0.15464634632E+03  0.15464634632E+03  0.00000000000E+00 0.  1.
         25    2    1    2    0    0 -0.11907915330E+03 -0.12939014684E+02  0.85068341930E+02  0.19295130260E+03  0.12508524903E+03 0.  0.
          5    1    3    3  502    0  0.10842393921E+02  0.18252030666E+02  0.50403291205E+02  0.54851237850E+02  0.41800000000E+01 0.  1.
         -5    1    3    3    0  502 -0.12992154722E+03 -0.31191045351E+02  0.34665050725E+02  0.13810006475E+03  0.41800000000E+01 0.  1.
        -11    1    1    2    0    0  0.33108305072E+02  0.46169299336E+02 -0.28407567654E+02  0.63519713207E+02  0.00000000000E+00 0. -1.
         11    1    1    2    0    0  0.85970848231E+02 -0.33230284651E+02 -0.15943964077E+02  0.93538487020E+02  0.00000000000E+00 0.  1.
</event>
<event>
 7    1  0.2732144E-009  0.1055604E+03  0.7561462E-02  0.1269019E+00
         -2   -1    0    0    0  501 -0.00000000000E+00  0.00000000000E+00  0.30073784533E+02  0.30073784533E+02  0.00000000000E+00 0.  1.
          2   -1    0    0  501    0  0.00000000000E+00 -0.00000000000E+00 -0.53208608916E+03  0.53208608916E+03  0.00000000000E+00 0. -1.
         25    2    1    2    0    0  0.51277148252E+02  0.35335967350E+01 -0.36749848305E+03  0.39159209352E+03  0.12508956958E+03 0.  0.
          5    1    3    3  502    0 -0.29105448433E+02 -0.23408280030E+00 -0.21741729210E+02  0.36569893523E+02  0.41800000000E+01 0. -1.
         -5    1    3    3    0  502  0.80382596685E+02  0.37676795353E+01 -0.34575675384E+03  0.35502219999E+03  0.41800000000E+01 0. -1.
        -11    1    1    2    0    0 -0.60686928219E+01 -0.41597353065E+02 -0.34430209171E+02  0.54337906825E+02  0.00000000000E+00 0.  1.
         11    1    1    2    0    0 -0.45208455430E+02  0.38063756330E+02 -0.10008361241E+03  0.11622987336E+03  0.00000000000E+00 0. -1.
</event>
<event>
 7    1  0.2732144E-009  0.1558745E+03  0.7561462E-02  0.1193435E+00
         -2   -1    0    0    0  501 -0.00000000000E+00  0.00000000000E+00  0.96654999805E+02  0.96654999805E+02  0.00000000000E+00 0.  1.
          2   -1    0    0  501    0  0.00000000000E+00 -0.00000000000E+00 -0.29074834367E+03  0.29074834367E+03  0.00000000000E+00 0. -1.
         25    2    1    2    0    0  0.89549325993E+02  0.81924075139E+02 -0.58389443687E+02  0.18381591528E+03  0.12509327602E+03 0.  0.
          5    1    3    3  502    0 -0.24726152795E+02  0.26932569633E+02  0.12006720758E+02  0.38708909600E+02  0.41800000000E+01 0. -1.
         -5    1    3    3    0  502  0.11427547879E+03  0.54991505506E+02 -0.70396164445E+02  0.14510700568E+03  0.41800000000E+01 0. -1.
        -11    1    1    2    0    0  0.31192667426E+01 -0.49927513639E+02 -0.68108750640E+02  0.84506143900E+02  0.00000000000E+00 0.  1.
         11    1    1    2    0    0 -0.92668592735E+02 -0.31996561500E+02 -0.67595149541E+02  0.11908128429E+03  0.00000000000E+00 0. -1.
</event>
<event>
 7    1  0.2732144E-009  0.1240139E+03  0.7561462E-02  0.1236619E+00
         -1   -1    0    0    0  501 -0.00000000000E+00  0.00000000000E+00  0.36516021127E+03  0.36516021127E+03  0.00000000000E+00 0.  1.
          1   -1    0    0  501    0  0.00000000000E+00 -0.00000000000E+00 -0.77930431831E+02  0.77930431831E+02  0.00000000000E+00 0. -1.
         25    2    1    2    0    0 -0.59873022396E+02 -0.68030407370E+02  0.29289903261E+02  0.15722118756E+03  0.12509072007E+03 0.  0.
          5    1    3    3  502    0 -0.45607150160E+02  0.27387490852E+02  0.28827065987E+02  0.60651124757E+02  0.41800000000E+01 0. -1.
         -5    1    3    3    0  502 -0.14265872236E+02 -0.95417898222E+02  0.46283727439E+00  0.96570062805E+02  0.41800000000E+01 0. -1.
        -11    1    1    2    0    0  0.12066985189E+02  0.41924806392E+02  0.33750440927E+02  0.55157898666E+02  0.00000000000E+00 0. -1.
         11    1    1    2    0    0  0.47806037207E+02  0.26105600978E+02  0.22418943525E+03  0.23071155687E+03  0.00000000000E+00 0.  1.
</event>
<event>
 7    1  0.2732144E-009  0.8633067E+02  0.7561462E-02  0.1311989E+00
          1   -1    0    0  501    0  0.00000000000E+00  0.00000000000E+00  0.40986104048E+03  0.40986104048E+03  0.00000000000E+00 0. -1.
         -1   -1    0    0    0  501 -0.00000000000E+00 -0.00000000000E+00 -0.44650228203E+02  0.44650228203E+02  0.00000000000E+00 0.  1.
         25    2    1    2    0    0 -0.35502700924E+02 -0.71318999340E+02  0.19783923008E+03  0.24725389179E+03  0.12508910667E+03 0.  0.
          5    1    3    3  502    0 -0.12697967368E+00 -0.40595153265E+02  0.19597156016E+03  0.20017569129E+03  0.41800000000E+01 0. -1.
         -5    1    3    3    0  502 -0.35375721251E+02 -0.30723846075E+02  0.18676699212E+01  0.47078200503E+02  0.41800000000E+01 0. -1.
        -11    1    1    2    0    0  0.20820067660E+02  0.65980068973E+02  0.17621089893E+03  0.18930696137E+03  0.00000000000E+00 0. -1.
         11    1    1    2    0    0  0.14682633264E+02  0.53389303675E+01 -0.88393167374E+01  0.17950415522E+02  0.00000000000E+00 0.  1.
</event>
<event>
 7    1  0.2732144E-009  0.1422926E+03  0.7561462E-02  0.1210277E+00
         -2   -1    0    0    0  501 -0.00000000000E+00  0.00000000000E+00  0.56519083511E+02  0.56519083511E+02  0.00000000000E+00 0.  1.
          2   -1    0    0  501    0  0.00000000000E+00 -0.00000000000E+00 -0.44813293952E+03  0.44813293952E+03  0.00000000000E+00 0. -1.
         25    2    1    2    0    0  0.10492639185E+03 -0.83452782159E+01 -0.28930901180E+03  0.33230437268E+03  0.12508916986E+03 0.  0.
          5    1    3    3  502    0  0.12650092628E+03 -0.28838286491E+02 -0.25852309271E+03  0.28928496847E+03  0.41800000000E+01 0.  1.
         -5    1    3    3    0  502 -0.21574534432E+02  0.20493008275E+02 -0.30785919089E+02  0.43019404206E+02  0.41800000000E+01 0.  1.
        -11    1    1    2    0    0 -0.91952730074E+02 -0.19505577941E+02 -0.10568332164E+03  0.14143810170E+03  0.00000000000E+00 0. -1.
         11    1    1    2    0    0 -0.12973661778E+02  0.27850856157E+02  0.33784774285E+01  0.30909548660E+02  0.00000000000E+00 0.  1.
</event>
<event>
 7    1  0.2732144E-009  0.8489099E+02  0.7561462E-02  0.1315718E+00
          2   -1    0    0  501    0  0.00000000000E+00  0.00000000000E+00  0.68292310614E+02  0.68292310614E+02  0.00000000000E+00 0. -1.
         -2   -1    0    0    0  501 -0.00000000000E+00 -0.00000000000E+00 -0.21053198309E+03  0.21053198309E+03  0.00000000000E+00 0.  1.
         25    2    1    2    0    0 -0.32587162194E+02 -0.34908396508E+02 -0.55786325187E+02  0.14504982076E+03  0.12508723811E+03 0.  0.
          5    1    3    3  502    0  0.36145377886E+01  0.36545443175E+02 -0.53223635620E+02  0.64798627215E+02  0.41800000000E+01 0.  1.
         -5    1    3    3    0  502 -0.36201699983E+02 -0.71453839683E+02 -0.25626895670E+01  0.80251193542E+02  0.41800000000E+01 0.  1.
        -11    1    1    2    0    0  0.93534264552E+01  0.26164673635E+02  0.13423454323E+02  0.30858805207E+02  0.00000000000E+00 0. -1.
         11    1    1    2    0    0  0.23233735739E+02  0.87437228735E+01 -0.99876801609E+02  0.10291566774E+03  0.00000000000E+00 0.  1.
</event>
<event>
 7    1  0.2732144E-009  0.1065160E+03  0.7561462E-02  0.1267161E+00
          1   -1    0    0  501    0  0.00000000000E+00  0.00000000000E+00  0.55789208424E+03  0.55789208424E+03  0.00000000000E+00 0. -1.
         -1   -1    0    0    0  501 -0.00000000000E+00 -0.00000000000E+00 -0.28854907740E+02  0.28854907740E+02  0.00000000000E+00 0.  1.
         25    2    1    2    0    0  0.13192751091E+02 -0.41263471126E+02  0.41569635374E+03  0.43626550292E+03  0.12508959908E+03 0.  0.
          5    1    3    3  502    0 -0.46634104198E+02 -0.11651229219E+02  0.28898105724E+03  0.29298125309E+03  0.41800000000E+01 0. -1.
         -5    1    3    3    0  502  0.59826855289E+02 -0.29612241908E+02  0.12671529649E+03  0.14328424983E+03  0.41800000000E+01 0. -1.
        -11    1    1    2    0    0  0.31592514335E+02 -0.66799208238E+01  0.48289819164E+02  0.58091436022E+02  0.00000000000E+00 0.  1.
         11    1    1    2    0    0 -0.44785265426E+02  0.47943391950E+02  0.65051003603E+02  0.92390053040E+02  0.00000000000E+00 0. -1.
</event>
<event>
 7    1  0.2732144E-009  0.8560218E+02  0.7561462E-02  0.1313865E+00
         -2   -1    0    0    0  501 -0.00000000000E+00  0.00000000000E+00  0.26901599921E+02  0.26901599921E+02  0.00000000000E+00 0.  1.
          2   -1    0    0  501    0  0.00000000000E+00 -0.00000000000E+00 -0.80968779014E+03  0.80968779014E+03  0.00000000000E+00 0. -1.
         25    2    1    2    0    0 -0.43570434311E+01 -0.11312709549E+02 -0.69733399833E+03  0.70856825232E+03  0.12508917514E+03 0.  0.
          5    1    3    3  502    0  0.29865462495E+02 -0.25112088985E+02 -0.70912887048E+02  0.81047349202E+02  0.41800000000E+01 0. -1.
         -5    1    3    3    0  502 -0.34222505926E+02  0.13799379436E+02 -0.62642111129E+03  0.62752090312E+03  0.41800000000E+01 0. -1.
        -11    1    1    2    0    0  0.47652097219E+02 -0.63353485819E+01 -0.36751452142E+02  0.60510563091E+02  0.00000000000E+00 0. -1.
         11    1    1    2    0    0 -0.43295053788E+02  0.17648058131E+02 -0.48700739747E+02  0.67510574655E+02  0.00000000000E+00 0.  1.
</event>
<event>
 6    1  0.2732144E-009  0.2128278E+03  0.7561462E-02  0.1139346E+00
          1   -1    0    0  501    0  0.00000000000E+00  0.00000000000E+00  0.85069483970E+02  0.85069483970E+02  0.00000000000E+00 0. -1.
         -1   -1    0    0    0  501 -0.00000000000E+00 -0.00000000000E+00 -0.74577040864E+03  0.74577040864E+03  0.00000000000E+00 0.  1.
          5    1    1    2  502    0  0.14038620758E+03 -0.70974133147E+02 -0.47254171359E+03  0.49805497521E+03  0.41800000000E+01 0. -1.
         -5    1    1    2    0  502  0.50695876697E+02 -0.78722632188E+00 -0.31264865255E+02  0.59713112787E+02  0.41800000000E+01 0. -1.
        -11    1    1    2    0    0 -0.16470739624E+03  0.87701467792E+02 -0.10895528090E+03  0.21608176014E+03  0.00000000000E+00 0. -1.
         11    1    1    2    0    0 -0.26374688037E+02 -0.15940108323E+02 -0.47939064929E+02  0.56990044469E+02  0.00000000000E+00 0.  1.
</event>
<event>
 7    1  0.2732144E-009  0.1203442E+03  0.7561462E-02  0.1242530E+00
          1   -1    0    0  501    0  0.00000000000E+00  0.00000000000E+00  0.82942439768E+03  0.82942439768E+03  0.00000000000E+00 0. -1.
         -1   -1    0    0    0  501 -0.00000000000E+00 -0.00000000000E+00 -0.21800973668E+02  0.21800973668E+02  0.00000000000E+00 0.  1.
         25    2    1    2    0    0 -0.72671065186E+02 -0.14635621897E+02  0.40564857411E+03  0.43092235238E+03  0.12509205794E+03 0.  0.
          5    1    3    3  502    0 -0.27642173765E+02 -0.55535683095E+02  0.31880076774E+03  0.32480717939E+03  0.41800000000E+01 0. -1.
         -5    1    3    3    0  502 -0.45028891420E+02  0.40900061197E+02  0.86847806365E+02  0.10611517299E+03  0.41800000000E+01 0. -1.
        -11    1    1    2    0    0  0.86688695001E+02 -0.11925777984E+02  0.23747595504E+03  0.25308493286E+03  0.00000000000E+00 0.  1.
         11    1    1    2    0    0 -0.14017629815E+02  0.26561399881E+02  0.16449889487E+03  0.16721808611E+03  0.00000000000E+00 0. -1.
</event>
<event>
 7    1  0.2732144E-009  0.8180323E+02  0.7561462E-02  0.1324011E+00
          2   -1    0    0  501    0  0.00000000000E+00  0.00000000000E+00  0.58121491450E+03  0.58121491450E+03  0.00000000000E+00 0.  1.
         -2   -1    0    0    0  501 -0.00000000000E+00 -0.00000000000E+00 -0.21160523007E+02  0.21160523007E+02  0.00000000000E+00 0. -1.
         25    2    1    2    0    0  0.15450007290E+02 -0.82875841949E+01  0.27579307477E+03  0.30334107227E+03  0.12508636719E+03 0.  0.
          5    1    3    3  502    0  0.16871928439E+02 -0.38936878892E+02  0.26805215470E+03  0.27142249823E+03  0.41800000000E+01 0. -1.
         -5    1    3    3    0  502 -0.14219211495E+01  0.30649294698E+02  0.77409200772E+01  0.31918574042E+02  0.41800000000E+01 0. -1.
        -11    1    1    2    0    0 -0.89388876872E+01 -0.40146938222E+02  0.94144515822E+02  0.10273689805E+03  0.00000000000E+00 0. -1.
         11    1    1    2    0    0 -0.65111196026E+01  0.48434522416E+02  0.19011680090E+03  0.19629746719E+03  0.00000000000E+00 0.  1.
</event>
<event>
 7    1  0.2732144E-009  0.1070259E+03  0.7561462E-02  0.1266179E+00
         -1   -1    0    0    0  501 -0.00000000000E+00  0.00000000000E+00  0.15038352730E+03  0.15038352730E+03  0.00000000000E+00 0.  1.
          1   -1    0    0  501    0  0.00000000000E+00 -0.00000000000E+00 -0.83700710017E+02  0.83700710017E+02  0.00000000000E+00 0. -1.
         25    2    1    2    0    0  0.15334407979E+02  0.12821472809E+02  0.20241786004E+02  0.12827750572E+03  0.12508338954E+03 0.  0.
          5    1    3    3  502    0 -0.54897266004E+02  0.11565383669E+02  0.10700802270E+02  0.57266460370E+02  0.41800000000E+01 0. -1.
         -5    1    3    3    0  502  0.70231673983E+02  0.12560891395E+01  0.95409837337E+01  0.71011045345E+02  0.41800000000E+01 0. -1.
        -11    1    1    2    0    0 -0.25863307163E+02 -0.45915365227E+02  0.47664775122E+02  0.71056753436E+02  0.00000000000E+00 0.  1.
         11    1    1    2    0    0  0.10528899184E+02  0.33093892419E+02 -0.12237438444E+01  0.34749978165E+02  0.00000000000E+00 0. -1.
</event>
<event>
 7    1  0.2732144E-009  0.1887080E+03  0.7561462E-02  0.1159632E+00
         -1   -1    0    0    0  501 -0.00000000000E+00  0.00000000000E+00  0.93318823555E+02  0.93318823555E+02  0.00000000000E+00 0.  1.
          1   -1    0    0  501    0  0.00000000000E+00 -0.00000000000E+00 -0.44583816120E+03  0.44583816120E+03  0.00000000000E+00 0. -1.
         25    2    1    2    0    0  0.38143838828E+02  0.16027303822E+03 -0.11959321034E+03  0.23893916957E+03  0.12508793536E+03 0.  0.
          5    1    3    3  502    0 -0.29989406534E+02  0.12714439409E+03 -0.69630410676E+02  0.14809094484E+03  0.41800000000E+01 0.  1.
         -5    1    3    3    0  502  0.68133245362E+02  0.33128644128E+02 -0.49962799661E+02  0.90848224723E+02  0.41800000000E+01 0.  1.
        -11    1    1    2    0    0 -0.15674582164E+02 -0.13905582125E+03 -0.12392812497E+03  0.18692349801E+03  0.00000000000E+00 0.  1.
         11    1    1    2    0    0 -0.22469256664E+02 -0.21217216970E+02 -0.10899800234E+03  0.11329431718E+03  0.00000000000E+00 0. -1.
</event>
<event>
 7    1  0.2732144E-009  0.1088817E+03  0.7561462E-02  0.1262655E+00
          1   -1    0    0  501    0  0.00000000000E+00  0.00000000000E+00  0.72075967770E+02  0.72075967770E+02  0.00000000000E+00 0. -1.
         -1   -1    0    0    0  501 -0.00000000000E+00 -0.00000000000E+00 -0.24473367090E+03  0.24473367090E+03  0.00000000000E+00 0.  1.
         25    2    1    2    0    0 -0.56540641078E+02  0.16920251356E+00 -0.36018951625E+02  0.14192200486E+03  0.12509043874E+03 0.  0.
          5    1    3    3  502    0  0.26887336743E+02  0.36741311770E+02 -0.16955363300E+02  0.48762789218E+02  0.41800000000E+01 0. -1.
         -5    1    3    3    0  502 -0.83427977821E+02 -0.36572109256E+02 -0.19063588325E+02  0.93159215640E+02  0.41800000000E+01 0. -1.
        -11    1    1    2    0    0  0.31072874263E+02 -0.28918797332E+02 -0.12889834642E+03  0.13570778926E+03  0.00000000000E+00 0.  1.
         11    1    1    2    0    0  0.25467766815E+02  0.28749594819E+02 -0.77404050853E+01  0.39179844559E+02  0.00000000000E+00 0. -1.
</event>
<event>
 7    1  0.2732144E-009  0.1398801E+03  0.7561462E-02  0.1213490E+00
          2   -1    0    0  501    0  0.00000000000E+00  0.00000000000E+00  0.78042788570E+03  0.78042788570E+03  0.00000000000E+00 0. -1.
         -2   -1    0    0    0  501 -0.00000000000E+00 -0.00000000000E+00 -0.28439088227E+02  0.28439088227E+02  0.00000000000E+00 0.  1.
         25    2    1    2    0    0  0.97836005297E+02  0.15381023591E+02  0.34229036596E+03  0.37765069049E+03  0.12509552181E+03 0.  0.
          5    1    3    3  502    0 -0.30130234968E+02  0.71914044196E+01  0.67250469995E+02  0.74159594600E+02  0.41800000000E+01 0.  1.
         -5    1    3    3    0  502  0.12796624026E+03  0.81896191709E+01  0.27503989596E+03  0.30349109589E+03  0.41800000000E+01 0.  1.
        -11    1    1    2    0    0 -0.89079685014E+01  0.22004917179E+02  0.24470694038E+02  0.34093740622E+02  0.00000000000E+00 0.  1.
         11    1    1    2    0    0 -0.88928036795E+02 -0.37385940770E+02  0.38522773748E+03  0.39712254282E+03  0.00000000000E+00 0. -1.
</event>
<event>
 7    1  0.2732144E-009  0.1323337E+03  0.7561462E-02  0.1224033E+00
          2   -1    0    0  501    0  0.00000000000E+00  0.00000000000E+00  0.98583518162E+03  0.98583518162E+03  0.00000000000E+00 0. -1.
         -2   -1    0    0    0  501 -0.00000000000E+00 -0.00000000000E+00 -0.30913401448E+02  0.30913401448E+02  0.00000000000E+00 0.  1.
         25    2    1    2    0    0 -0.10336806321E+03 -0.39698942500E+02  0.73655240239E+03  0.75526016009E+03  0.12508998928E+03 0.  0.
          5    1    3    3  502    0 -0.17966129529E+02 -0.54562058555E+02  0.49970215412E+03  0.50301045245E+03  0.41800000000E+01 0. -1.
         -5    1    3    3    0  502 -0.85401933686E+02  0.14863116054E+02  0.23685024827E+03  0.25224970764E+03  0.41800000000E+01 0. -1.
        -11    1    1    2    0    0  0.33769268454E+02 -0.94682043336E+01  0.14455913116E+03  0.14875265640E+03  0.00000000000E+00 0. -1.
         11    1    1    2    0    0  0.69598794761E+02  0.49167146834E+02  0.73810246629E+02  0.11273576658E+03  0.00000000000E+00 0.  1.
</event>
<event>
 7    1  0.2732144E-009  0.1414303E+03  0.7561462E-02  0.1211417E+00
          1   -1    0    0  501    0  0.00000000000E+00  0.00000000000E+00  0.41799241179E+03  0.41799241179E+03  0.00000000000E+00 0. -1.
         -1   -1    0    0    0  501 -0.00000000000E+00 -0.00000000000E+00 -0.10217449538E+03  0.10217449538E+03  0.00000000000E+00 0.  1.
         25    2    1    2    0    0 -0.22076318400E+02 -0.11109169762E+03  0.33331606228E+03  0.37360407444E+03  0.12510666630E+03 0.  0.
          5    1    3    3  502    0 -0.56451990650E+02 -0.28919627279E+02  0.22230343334E+03  0.23121302075E+03  0.41800000000E+01 0.  1.
         -5    1    3    3    0  502  0.34375672251E+02 -0.82172070344E+02  0.11101262894E+03  0.14239105369E+03  0.41800000000E+01 0.  1.
        -11    1    1    2    0    0  0.33306076672E+02  0.21084729451E+02 -0.36687850930E+02  0.53850338580E+02  0.00000000000E+00 0.  1.
         11    1    1    2    0    0 -0.11229758273E+02  0.90006968172E+02  0.19189705057E+02  0.92712494145E+02  0.00000000000E+00 0. -1.
</event>
<event>
 7    1  0.2732144E-009  0.1278493E+03  0.7561462E-02  0.1230682E+00
          2   -1    0    0  501    0  0.00000000000E+00  0.00000000000E+00  0.10035810410E+03  0.10035810410E+03  0.00000000000E+00 0. -1.
         -2   -1    0    0    0  501 -0.00000000000E+00 -0.00000000000E+00 -0.17521407039E+03  0.17521407039E+03  0.00000000000E+00 0.  1.
         25    2    1    2    0    0  0.22386447439E+02  0.64047518448E+02 -0.13109732626E+02  0.14291332792E+03  0.12509642904E+03 0.  0.
          5    1    3    3  502    0  0.74259248310E+02  0.34802436901E+02 -0.13487588685E+02  0.83216783297E+02  0.41800000000E+01 0. -1.
         -5    1    3    3    0  502 -0.51872800871E+02  0.29245081547E+02  0.37785605890E+00  0.59696544624E+02  0.41800000000E+01 0. -1.
        -11    1    1    2    0    0 -0.53117251998E+02 -0.13623924028E+02 -0.13675559504E+02  0.56516145423E+02  0.00000000000E+00 0. -1.
         11    1    1    2    0    0  0.30730804559E+02 -0.50423594420E+02 -0.48070674158E+02  0.76142701141E+02  0.00000000000E+00 0.  1.
</event>
<event>
 7    1  0.2732144E-009  0.1953936E+03  0.7561462E-02  0.1153685E+00
          2   -1    0    0  501    0  0.00000000000E+00  0.00000000000E+00  0.35644297432E+03  0.35644297432E+03  0.00000000000E+00 0. -1.
         -2   -1    0    0    0  501 -0.00000000000E+00 -0.00000000000E+00 -0.13280078529E+03  0.13280078529E+03  0.00000000000E+00 0.  1.
         25    2    1    2    0    0 -0.15421724453E+03  0.79575554794E+02  0.19772201738E+03  0.29129423812E+03  0.12507241731E+03 0.  0.
          5    1    3    3  502    0  0.11515283180E+02  0.20116273702E+02 -0.35758395650E+01  0.23822788312E+02  0.41800000000E+01 0.  1.
         -5    1    3    3    0  502 -0.16573252771E+03  0.59459281092E+02  0.20129785695E+03  0.26747144980E+03  0.41800000000E+01 0.  1.
        -11    1    1    2    0    0 -0.34232499969E+01 -0.23566936961E+02 -0.11614995303E+02  0.26495797292E+02  0.00000000000E+00 0.  1.
         11    1    1    2    0    0  0.15764049453E+03 -0.56008617833E+02  0.37535166947E+02  0.17145372421E+03  0.00000000000E+00 0. -1.
</event>
<event>
 7    1  0.2732144E-009  0.8587795E+02  0.7561462E-02  0.1313152E+00
         -1   -1    0    0    0  501 -0.00000000000E+00  0.00000000000E+00  0.12142277387E+03  0.12142277387E+03  0.00000000000E+00 0.  1.
          1   -1    0    0  501    0  0.00000000000E+00 -0.00000000000E+00 -0.12963118138E+03  0.12963118138E+03  0.00000000000E+00 0. -1.
         25    2    1    2    0    0  0.13960683970E+02 -0.17478770523E+02  0.53786153557E+02  0.13798912592E+03  0.12509052899E+03 0.  0.
          5    1    3    3  502    0  0.33177361933E+02 -0.52945007425E+02  0.70349763575E+02  0.94183187412E+02  0.41800000000E+01 0.  1.
         -5    1    3    3    0  502 -0.19216677963E+02  0.35466236902E+02 -0.16563610018E+02  0.43805938510E+02  0.41800000000E+01 0.  1.
        -11    1    1    2    0    0 -0.13013215127E+02 -0.23888533774E+02  0.10851170560E+02  0.29287432737E+02  0.00000000000E+00 0.  1.
         11    1    1    2    0    0 -0.94746884341E+00  0.41367304297E+02 -0.72845731635E+02  0.83777396590E+02  0.00000000000E+00 0. -1.
</event>
<event>
 7    1  0.2732144E-009  0.1126288E+03  0.7561462E-02  0.1255778E+00
         -2   -1    0    0    0  501 -0.00000000000E+00  0.00000000000E+00  0.21872849221E+03  0.21872849221E+03  0.00000000000E+00 0.  1.
          2   -1    0    0  501    0  0.00000000000E+00 -0.00000000000E+00 -0.10351155022E+03  0.10351155022E+03  0.00000000000E+00 0. -1.
         25    2    1    2    0    0  0.97475431469E+02 -0.85895379007E+01  0.10142942726E+03  0.18844382745E+03  0.12509159639E+03 0.  0.
          5    1    3    3  502    0  0.50843268568E+02  0.34669954052E+02 -0.76000167693E+01  0.62147214962E+02  0.41800000000E+01 0.  1.
         -5    1    3    3    0  502  0.46632162900E+02 -0.43259491952E+02  0.10902944403E+03  0.12629661249E+03  0.41800000000E+01 0.  1.
        -11    1    1    2    0    0 -0.26882883094E+02  0.11360913832E+02 -0.36753797376E+02  0.46931880296E+02  0.00000000000E+00 0. -1.
         11    1    1    2    0    0 -0.70592548375E+02 -0.27713759313E+01  0.50541312108E+02  0.86864334684E+02  0.00000000000E+00 0.  1.
</event>
<event>
 7    1  0.2732144E-009  0.7859875E+02  0.7561462E-02  0.1333076E+00
         -2   -1    0    0    0  501 -0.00000000000E+00  0.00000000000E+00  0.36227279128E+02  0.36227279128E+02  0.00000000000E+00 0. -1.
          2   -1    0    0  501    0  0.00000000000E+00 -0.00000000000E+00 -0.42435167254E+03  0.42435167254E+03  0.00000000000E+00 0.  1.
         25    2    1    2    0    0 -0.48061615238E+02  0.21796111115E+02 -0.15667410629E+03  0.20732710286E+03  0.12511100143E+03 0.  0.
          5    1    3    3  502    0 -0.40614449794E+02  0.21011148610E+02 -0.17827101661E+03  0.18408973263E+03  0.41800000000E+01 0.  1.
         -5    1    3    3    0  502 -0.74471654445E+01  0.78496250461E+00  0.21596910325E+02  0.23237370223E+02  0.41800000000E+01 0.  1.
        -11    1    1    2    0    0  0.70862470559E+02  0.42724492133E+00 -0.16462278553E+03  0.17922704536E+03  0.00000000000E+00 0.  1.
         11    1    1    2    0    0 -0.22800855321E+02 -0.22223356036E+02 -0.66827501596E+02  0.74024803455E+02  0.00000000000E+00 0. -1.
</event>
<event>
 7    1  0.2732144E-009  0.1039896E+03  0.7561462E-02  0.1272123E+00
         -2   -1    0    0    0  501 -0.00000000000E+00  0.00000000000E+00  0.40217467549E+02  0.40217467549E+02  0.00000000000E+00 0.  1.
          2   -1    0    0  501    0  0.00000000000E+00 -0.00000000000E+00 -0.41553464026E+03  0.41553464026E+03  0.00000000000E+00 0. -1.
         25    2    1    2    0    0  0.52072931089E+01 -0.10553524683E+02 -0.86511985378E+02  0.15254543246E+03  0.12508913848E+03 0.  0.
          5    1    3    3  502    0  0.37193644425E+02 -0.55459040294E+02 -0.29487076847E+02  0.73116567459E+02  0.41800000000E+01 0.  1.
         -5    1    3    3    0  502 -0.31986351316E+02  0.44905515611E+02 -0.57024908531E+02  0.79428865004E+02  0.41800000000E+01 0.  1.
        -11    1    1    2    0    0  0.39944627340E+02  0.37630503004E+01 -0.80357942829E+02  0.89817218709E+02  0.00000000000E+00 0.  1.
         11    1    1    2    0    0 -0.45151920449E+02  0.67904743826E+01 -0.20844724451E+03  0.21338945664E+03  0.00000000000E+00 0. -1.
</event>
<event>
 7    1  0.2732144E-009  0.1632702E+03  0.7561462E-02  0.1185053E+00
         -2   -1    0    0    0  501 -0.00000000000E+00  0.00000000000E+00  0.39445488575E+02  0.39445488575E+02  0.00000000000E+00 0.  1.
          2   -1    0    0  501    0  0.00000000000E+00 -0.00000000000E+00 -0.10083830610E+04  0.10083830610E+04  0.00000000000E+00 0. -1.
         25    2    1    2    0    0 -0.11577218287E+03 -0.11381225848E+03 -0.60850460933E+03  0.64209659212E+03  0.12511492926E+03 0.  0.
          5    1    3    3  502    0 -0.88765863054E+02 -0.73952479675E+02 -0.20211875933E+03  0.23284718802E+03  0.41800000000E+01 0. -1.
         -5    1    3    3    0  502 -0.27006319821E+02 -0.39859778802E+02 -0.40638585000E+03  0.40924940410E+03  0.41800000000E+01 0. -1.
        -11    1    1    2    0    0  0.10951603705E+03  0.10443542320E+03 -0.36375741436E+03  0.39397966508E+03  0.00000000000E+00 0. -1.
         11    1    1    2    0    0  0.62561458199E+01  0.93768352726E+01  0.33244512579E+01  0.11752292390E+02  0.00000000000E+00 0.  1.
</event>
<event>
 7    1  0.2732144E-009  0.2797424E+03  0.7561462E-02  0.1095830E+00
          1   -1    0    0  501    0  0.00000000000E+00  0.00000000000E+00  0.69134323217E+03  0.69134323217E+03  0.00000000000E+00 0. -1.
         -1   -1    0    0    0  501 -0.00000000000E+00 -0.00000000000E+00 -0.12727422023E+03  0.12727422023E+03  0.00000000000E+00 0.  1.
         25    2    1    2    0    0 -0.26034049613E+03  0.76692856153E+02  0.22025311550E+03  0.37123769581E+03  0.12508806416E+03 0.  0.
          5    1    3    3  502    0 -0.13436970015E+03 -0.70465934024E+01  0.50374315051E+02  0.14373557254E+03  0.41800000000E+01 0. -1.
         -5    1    3    3    0  502 -0.12597079598E+03  0.83739449556E+02  0.16987880044E+03  0.22750212327E+03  0.41800000000E+01 0. -1.
        -11    1    1    2    0    0  0.12614010507E+03 -0.54965150749E+02  0.10694674013E+03  0.17427019001E+03  0.00000000000E+00 0.  1.
         11    1    1    2    0    0  0.13420039106E+03 -0.21727705405E+02  0.23686915631E+03  0.27310956658E+03  0.00000000000E+00 0. -1.
</event>
<event>
 7    1  0.2732144E-009  0.1186171E+03  0.7561462E-02  0.1245396E+00
         -2   -1    0    0    0  501 -0.00000000000E+00  0.00000000000E+00  0.10901469330E+03  0.10901469330E+03  0.00000000000E+00 0.  1.
          2   -1    0    0  501    0  0.00000000000E+00 -0.00000000000E+00 -0.17136084599E+03  0.17136084599E+03  0.00000000000E+00 0. -1.
         25    2    1    2    0    0 -0.36237055005E+02 -0.73000206947E+02 -0.53993544872E+02  0.15876686812E+03  0.12509780636E+03 0.  0.
          5    1    3    3  502    0 -0.31986712339E+02  0.11058815162E+02  0.25762406612E+02  0.42738988682E+02  0.41800000000E+01 0.  1.
         -5    1    3    3    0  502 -0.42503426651E+01 -0.84059022110E+02 -0.79755951484E+02  0.11602787944E+03  0.41800000000E+01 0.  1.
        -11    1    1    2    0    0 -0.28414545279E+02  0.15646988131E+02 -0.13263142937E+02  0.35044622719E+02  0.00000000000E+00 0.  1.
         11    1    1    2    0    0  0.64651600283E+02  0.57353218817E+02  0.49105351148E+01  0.86564048444E+02  0.00000000000E+00 0. -1.
</event>
<event>
 7    1  0.2732144E-009  0.1571038E+03  0.7561462E-02  0.1192006E+00
          2   -1    0    0  501    0  0.00000000000E+00  0.00000000000E+00  0.51804412514E+03  0.51804412514E+03  0.00000000000E+00 0. -1.
         -2   -1    0    0    0  501 -0.00000000000E+00 -0.00000000000E+00 -0.51193772520E+02  0.51193772520E+02  0.00000000000E+00 0.  1.
         25    2    1    2    0    0  0.40737545741E+02 -0.10741267962E+03  0.31833921642E+03  0.36081094959E+03  0.12509058023E+03 0.  0.
          5    1    3    3  502    0  0.32505171950E+02  0.22335939361E+02  0.69241052118E+02  0.79795213446E+02  0.41800000000E+01 0.  1.
         -5    1    3    3    0  502  0.82323737910E+01 -0.12974861898E+03  0.24909816430E+03  0.28101573615E+03  0.41800000000E+01 0.  1.
        -11    1    1    2    0    0  0.17387652148E+02  0.76864424337E+02  0.64748698433E+02  0.10199443183E+03  0.00000000000E+00 0.  1.
         11    1    1    2    0    0 -0.58125197889E+02  0.30548255282E+02  0.83762437768E+02  0.10643251623E+03  0.00000000000E+00 0. -1.
</event>
<event>
 7    1  0.2732144E-009  0.1034806E+03  0.7561462E-02  0.1273142E+00
          1   -1    0    0  501    0  0.00000000000E+00  0.00000000000E+00  0.15349034918E+03  0.15349034918E+03  0.00000000000E+00 0. -1.
         -1   -1    0    0    0  501 -0.00000000000E+00 -0.00000000000E+00 -0.10330656417E+03  0.10330656417E+03  0.00000000000E+00 0.  1.
         25    2    1    2    0    0  0.26985485918E+02 -0.19516444031E+02  0.82565096015E+02  0.15353656270E+03  0.12508945986E+03 0.  0.
          5    1    3    3  502    0  0.14812255219E+02  0.47638381110E+02  0.66604533568E+02  0.83321393119E+02  0.41800000000E+01 0.  1.
         -5    1    3    3    0  502  0.12173230700E+02 -0.67154825141E+02  0.15960562448E+02  0.70215169579E+02  0.41800000000E+01 0.  1.
        -11    1    1    2    0    0  0.13705660765E+02 -0.24813614091E+02 -0.32447810662E+02  0.43086204265E+02  0.00000000000E+00 0.  1.
         11    1    1    2    0    0 -0.40691146683E+02  0.44330058121E+02  0.66499660785E-01  0.60174146389E+02  0.00000000000E+00 0. -1.
</event>
<event>
 7    1  0.2732144E-009  0.1073769E+03  0.7561462E-02  0.1265506E+00
          2   -1    0    0  501    0  0.00000000000E+00  0.00000000000E+00  0.48672111351E+03  0.48672111351E+03  0.00000000000E+00 0. -1.
         -2   -1    0    0    0  501 -0.00000000000E+00 -0.00000000000E+00 -0.33875691260E+02  0.33875691260E+02  0.00000000000E+00 0.  1.
         25    2    1    2    0    0  0.11309489253E+02 -0.62329135262E+02  0.30396261410E+03  0.33474411398E+03  0.12509006926E+03 0.  0.
          5    1    3    3  502    0  0.51108159862E+02 -0.43809532622E+02  0.27212010407E+03  0.28035360278E+03  0.41800000000E+01 0.  1.
         -5    1    3    3    0  502 -0.39798670609E+02 -0.18519602640E+02  0.31842510030E+02  0.54390511206E+02  0.41800000000E+01 0.  1.
        -11    1    1    2    0    0  0.35090763448E+02  0.19907361493E+02  0.94402232525E+02  0.10266180510E+03  0.00000000000E+00 0. -1.
         11    1    1    2    0    0 -0.46400252701E+02  0.42421773769E+02  0.54480575629E+02  0.83190885687E+02  0.00000000000E+00 0.  1.
</event>
<event>
 7    1  0.2732144E-009  0.1085818E+03  0.7561462E-02  0.1263219E+00
          4   -1    0    0  501    0  0.00000000000E+00  0.00000000000E+00  0.29534746273E+03  0.29534746273E+03  0.00000000000E+00 0. -1.
         -4   -1    0    0    0  501 -0.00000000000E+00 -0.00000000000E+00 -0.50110340619E+02  0.50110340619E+02  0.00000000000E+00 0.  1.
         25    2    1    2    0    0 -0.50590051464E+02 -0.80482885439E+01  0.12422173832E+03  0.18358192504E+03  0.12508858732E+03 0.  0.
          5    1    3    3  502    0 -0.13391497525E+02  0.52197732741E+02  0.20245043491E+02  0.57717152521E+02  0.41800000000E+01 0. -1.
         -5    1    3    3    0  502 -0.37198553939E+02 -0.60246021285E+02  0.10397669482E+03  0.12586477252E+03  0.41800000000E+01 0. -1.
        -11    1    1    2    0    0  0.10230317694E+02  0.39635559280E+02  0.96987256550E+02  0.10527186183E+03  0.00000000000E+00 0. -1.
         11    1    1    2    0    0  0.40359733771E+02 -0.31587270736E+02  0.24028127250E+02  0.56604016480E+02  0.00000000000E+00 0.  1.
</event>
<event>
 7    1  0.2949692E-009  0.1593787E+03  0.7561462E-02  0.1189400E+00
         -1   -1    0    0    0  501 -0.00000000000E+00  0.00000000000E+00  0.35991382109E+02  0.35991382109E+02  0.00000000000E+00 0.  1.
          1   -1    0    0  501    0  0.00000000000E+00 -0.00000000000E+00 -0.77322968721E+03  0.77322968721E+03  0.00000000000E+00 0. -1.
         25    2    1    2    0    0  0.17873468779E+01  0.12606975988E+03 -0.40369804134E+03  0.44103954146E+03  0.12508792742E+03 0.  0.
          5    1    3    3  502    0 -0.54019783869E+02  0.85199013004E+02 -0.17462209481E+03  0.20171107372E+03  0.41800000000E+01 0.  1.
         -5    1    3    3    0  502  0.55807130747E+02  0.40870746877E+02 -0.22907594653E+03  0.23932846774E+03  0.41800000000E+01 0.  1.
        -11    1    1    2    0    0 -0.37754866775E+02 -0.38982468509E+02 -0.18031306922E+03  0.18830259093E+03  0.00000000000E+00 0. -1.
         11    1    1    2    0    0  0.35967519897E+02 -0.87087291372E+02 -0.15322719454E+03  0.17987893693E+03  0.00000000000E+00 0.  1.
</event>
<event>
 7    1  0.2732144E-009  0.9350819E+02  0.7561462E-02  0.1294572E+00
         -2   -1    0    0    0  501 -0.00000000000E+00  0.00000000000E+00  0.11466485767E+02  0.11466485767E+02  0.00000000000E+00 0.  1.
          2   -1    0    0  501    0  0.00000000000E+00 -0.00000000000E+00 -0.27159106923E+04  0.27159106923E+04  0.00000000000E+00 0. -1.
         25    2    1    2    0    0 -0.38586081628E+02 -0.56708656591E+02 -0.23682278210E+04  0.23725197811E+04  0.12506934802E+03 0.  0.
          5    1    3    3  502    0 -0.49509317736E+02 -0.50589989427E+02 -0.59038833581E+03  0.59463129671E+03  0.41800000000E+01 0. -1.
         -5    1    3    3    0  502  0.10923236108E+02 -0.61186671647E+01 -0.17778394852E+04  0.17778884844E+04  0.41800000000E+01 0. -1.
        -11    1    1    2    0    0  0.17248801849E+02 -0.18167464659E+02 -0.30945987961E+02  0.39814973418E+02  0.00000000000E+00 0.  1.
         11    1    1    2    0    0  0.21337279779E+02  0.74876121250E+02 -0.30527039752E+03  0.31504242356E+03  0.00000000000E+00 0. -1.
</event>
<event>
 7    1  0.2732144E-009  0.8711570E+02  0.7561462E-02  0.1309991E+00
          3   -1    0    0  501    0  0.00000000000E+00  0.00000000000E+00  0.40042790867E+02  0.40042790867E+02  0.00000000000E+00 0. -1.
         -3   -1    0    0    0  501 -0.00000000000E+00 -0.00000000000E+00 -0.30424992081E+03  0.30424992081E+03  0.00000000000E+00 0.  1.
         25    2    1    2    0    0 -0.16435768563E+02  0.84927078926E+01 -0.17067819917E+03  0.21241672664E+03  0.12509019750E+03 0.  0.
          5    1    3    3  502    0  0.27565319605E+02  0.46896804871E+02 -0.13038451725E+03  0.14133913786E+03  0.41800000000E+01 0.  1.
         -5    1    3    3    0  502 -0.44001088169E+02 -0.38404096978E+02 -0.40293681915E+02  0.71077588781E+02  0.41800000000E+01 0.  1.
        -11    1    1    2    0    0 -0.16949405303E+02  0.13046906214E+02 -0.89409455845E+02  0.91932338686E+02  0.00000000000E+00 0.  1.
         11    1    1    2    0    0  0.33385173867E+02 -0.21539614106E+02 -0.41194749325E+01  0.39943646349E+02  0.00000000000E+00 0. -1.
</event>
<event>
 7    1  0.2732144E-009  0.1700361E+03  0.7561462E-02  0.1177810E+00
         -2   -1    0    0    0  501 -0.00000000000E+00  0.00000000000E+00  0.68696788269E+02  0.68696788269E+02  0.00000000000E+00 0.  1.
          2   -1    0    0  501    0  0.00000000000E+00 -0.00000000000E+00 -0.46753443972E+03  0.46753443972E+03  0.00000000000E+00 0. -1.
         25    2    1    2    0    0  0.78661187294E+02  0.11128889274E+03 -0.14922136778E+03  0.23767030556E+03  0.12508939807E+03 0.  0.
          5    1    3    3  502    0  0.95165203141E+02  0.40445007800E+02 -0.50991627053E+02  0.11536824942E+03  0.41800000000E+01 0. -1.
         -5    1    3    3    0  502 -0.16504015847E+02  0.70843884936E+02 -0.98229740727E+02  0.12230205614E+03  0.41800000000E+01 0. -1.
        -11    1    1    2    0    0  0.54184897521E+01 -0.69718415192E+02 -0.10213164909E+03  0.12377758761E+03  0.00000000000E+00 0. -1.
         11    1    1    2    0    0 -0.84079677046E+02 -0.41570477545E+02 -0.14748463458E+03  0.17478333482E+03  0.00000000000E+00 0.  1.
</event>
<event>
 7    1  0.2732144E-009  0.1320438E+03  0.7561462E-02  0.1224454E+00
          4   -1    0    0  501    0  0.00000000000E+00  0.00000000000E+00  0.59535820721E+02  0.59535820721E+02  0.00000000000E+00 0. -1.
         -4   -1    0    0    0  501 -0.00000000000E+00 -0.00000000000E+00 -0.45601222638E+03  0.45601222638E+03  0.00000000000E+00 0.  1.
         25    2    1    2    0    0 -0.10865437168E+02 -0.84440811966E+02 -0.71012698566E+02  0.16714276545E+03  0.12508234182E+03 0.  0.
          5    1    3    3  502    0  0.40632961822E+02 -0.87875391229E+02 -0.31130384624E+02  0.10178258799E+03  0.41800000000E+01 0.  1.
         -5    1    3    3    0  502 -0.51498398991E+02  0.34345792637E+01 -0.39882313941E+02  0.65360177468E+02  0.41800000000E+01 0.  1.
        -11    1    1    2    0    0  0.22412916231E+02 -0.68080288399E+01 -0.13355957658E+03  0.13559811417E+03  0.00000000000E+00 0.  1.
         11    1    1    2    0    0 -0.11547479062E+02  0.91248840806E+02 -0.19190413051E+03  0.21280716747E+03  0.00000000000E+00 0. -1.
</event>
<event>
 7    1  0.2732144E-009  0.3026347E+03  0.7561462E-02  0.1083931E+00
         -1   -1    0    0    0  501 -0.00000000000E+00  0.00000000000E+00  0.22289231346E+03  0.22289231346E+03  0.00000000000E+00 0.  1.
          1   -1    0    0  501    0  0.00000000000E+00 -0.00000000000E+00 -0.64808128239E+03  0.64808128239E+03  0.00000000000E+00 0. -1.
         25    2    1    2    0    0  0.92357475071E+02 -0.27462313285E+03  0.38462443473E+02  0.31792217946E+03  0.12508950530E+03 0.  0.
          5    1    3    3  502    0  0.49973220360E+02 -0.26411796554E+03  0.47852209985E+02  0.27306213373E+03  0.41800000000E+01 0. -1.
         -5    1    3    3    0  502  0.42384254711E+02 -0.10505167302E+02 -0.93897665120E+01  0.44860045727E+02  0.41800000000E+01 0. -1.
        -11    1    1    2    0    0 -0.71206769182E+02  0.25078404104E+03 -0.44604461399E+03  0.51664188456E+03  0.00000000000E+00 0. -1.
         11    1    1    2    0    0 -0.21150705888E+02  0.23839091802E+02 -0.17606798412E+02  0.36409531827E+02  0.00000000000E+00 0.  1.
</event>
<event>
 7    1  0.2732144E-009  0.8612860E+02  0.7561462E-02  0.1312507E+00
         -2   -1    0    0    0  501 -0.00000000000E+00  0.00000000000E+00  0.95756763196E+02  0.95756763196E+02  0.00000000000E+00 0.  1.
          2   -1    0    0  501    0  0.00000000000E+00 -0.00000000000E+00 -0.13672040063E+03  0.13672040063E+03  0.00000000000E+00 0. -1.
         25    2    1    2    0    0 -0.12444267058E+02  0.27740657352E+02 -0.17663624721E+02  0.12993770153E+03  0.12508956307E+03 0.  0.
          5    1    3    3  502    0  0.54957393819E+02  0.26371679310E+02 -0.60166495835E+01  0.61395871825E+02  0.41800000000E+01 0.  1.
         -5    1    3    3    0  502 -0.67401660877E+02  0.13689780423E+01 -0.11646975137E+02  0.68541829708E+02  0.41800000000E+01 0.  1.
        -11    1    1    2    0    0  0.15004454597E+02  0.73390197101E+00 -0.56652630177E+02  0.58610517621E+02  0.00000000000E+00 0. -1.
         11    1    1    2    0    0 -0.25601875389E+01 -0.28474559323E+02  0.33352617459E+02  0.43928944675E+02  0.00000000000E+00 0.  1.
</event>
<event>
 7    1  0.3370556E-009  0.9475168E+02  0.7561462E-02  0.1291736E+00
          1   -1    0    0  501    0  0.00000000000E+00  0.00000000000E+00  0.23201042649E+03  0.23201042649E+03  0.00000000000E+00 0. -1.
         -1   -1    0    0    0  501 -0.00000000000E+00 -0.00000000000E+00 -0.85091486090E+02  0.85091486090E+02  0.00000000000E+00 0.  1.
         25    2    1    2    0    0 -0.34940592514E+02 -0.20442835678E+02 -0.88343723062E+01  0.13178622183E+03  0.12510318779E+03 0.  0.
          5    1    3    3  502    0  0.17792559499E+02  0.44096848824E+02 -0.75508414368E+01  0.48327992470E+02  0.41800000000E+01 0. -1.
         -5    1    3    3    0  502 -0.52733152013E+02 -0.64539684502E+02 -0.12835308694E+01  0.83458229363E+02  0.41800000000E+01 0. -1.
        -11    1    1    2    0    0 -0.13020360196E+01  0.22005732777E+02 -0.32001452984E+01  0.22275289062E+02  0.00000000000E+00 0.  1.
         11    1    1    2    0    0  0.36242628533E+02 -0.15628970993E+01  0.15895345801E+03  0.16304040169E+03  0.00000000000E+00 0. -1.
</event>
<event>
 7    1  0.2732144E-009  0.1177920E+03  0.7561462E-02  0.1246785E+00
          2   -1    0    0  501    0  0.00000000000E+00  0.00000000000E+00  0.30237421175E+03  0.30237421175E+03  0.00000000000E+00 0. -1.
         -2   -1    0    0    0  501 -0.00000000000E+00 -0.00000000000E+00 -0.59800737597E+02  0.59800737597E+02  0.00000000000E+00 0.  1.
         25    2    1    2    0    0  0.74353937765E+02 -0.20582261588E+02  0.14253798249E+03  0.20473796072E+03  0.12509363915E+03 0.  0.
          5    1    3    3  502    0 -0.33969022710E+02 -0.66480345796E+01  0.53047686754E+02  0.63479290620E+02  0.41800000000E+01 0.  1.
         -5    1    3    3    0  502  0.10832296047E+03 -0.13934227008E+02  0.89490295732E+02  0.14125867010E+03  0.41800000000E+01 0.  1.
        -11    1    1    2    0    0 -0.18558221953E+02  0.29567427778E+02 -0.77273932541E+01  0.35754062622E+02  0.00000000000E+00 0.  1.
         11    1    1    2    0    0 -0.55795715812E+02 -0.89851661900E+01  0.10776288492E+03  0.12168292600E+03  0.00000000000E+00 0. -1.
</event>
<event>
 7    1  0.2732144E-009  0.1463330E+03  0.7561462E-02  0.1205053E+00
         -1   -1    0    0    0  501 -0.00000000000E+00  0.00000000000E+00  0.25108974075E+02  0.25108974075E+02  0.00000000000E+00 0.  1.
          1   -1    0    0  501    0  0.00000000000E+00 -0.00000000000E+00 -0.93998963810E+03  0.93998963810E+03  0.00000000000E+00 0. -1.
         25    2    1    2    0    0 -0.81203674067E+02  0.70894629335E+02 -0.46016650262E+03  0.48889833131E+03  0.12509309765E+03 0.  0.
          5    1    3    3  502    0 -0.10966758069E+03  0.43028132166E+02 -0.39675688723E+03  0.41389841552E+03  0.41800000000E+01 0.  1.
         -5    1    3    3    0  502  0.28463906618E+02  0.27866497169E+02 -0.63409615392E+02  0.74999915790E+02  0.41800000000E+01 0.  1.
        -11    1    1    2    0    0 -0.14970784855E+02 -0.22612365316E+02 -0.44559996213E+02  0.52163557460E+02  0.00000000000E+00 0.  1.
         11    1    1    2    0    0  0.96174458922E+02 -0.48282264019E+02 -0.41015416520E+03  0.42403672340E+03  0.00000000000E+00 0. -1.
</event>
<event>
 7    1  0.2732144E-009  0.1100734E+03  0.7561462E-02  0.1260434E+00
          1   -1    0    0  501    0  0.00000000000E+00  0.00000000000E+00  0.13315460511E+04  0.13315460511E+04  0.00000000000E+00 0. -1.
         -1   -1    0    0    0  501 -0.00000000000E+00 -0.00000000000E+00 -0.13288213580E+02  0.13288213580E+02  0.00000000000E+00 0.  1.
         25    2    1    2    0    0 -0.57493849360E+02  0.52899318090E+02  0.80038022600E+03  0.81385496412E+03  0.12509003110E+03 0.  0.
          5    1    3    3  502    0 -0.72532566639E+02  0.40059966904E+02  0.25617834760E+03  0.26927790914E+03  0.41800000000E+01 0.  1.
         -5    1    3    3    0  502  0.15038717279E+02  0.12839351187E+02  0.54420187841E+03  0.54457705499E+03  0.41800000000E+01 0.  1.
        -11    1    1    2    0    0  0.29973188465E+02 -0.75581084148E+02  0.37566456319E+03  0.38436279261E+03  0.00000000000E+00 0. -1.
         11    1    1    2    0    0  0.27520660895E+02  0.22681766058E+02  0.14221304831E+03  0.14661650793E+03  0.00000000000E+00 0.  1.
</event>
<event>
 7    1  0.2732144E-009  0.1298502E+03  0.7561462E-02  0.1227678E+00
         -1   -1    0    0    0  501 -0.00000000000E+00  0.00000000000E+00  0.21622052582E+03  0.21622052582E+03  0.00000000000E+00 0.  1.
          1   -1    0    0  501    0  0.00000000000E+00 -0.00000000000E+00 -0.11290691206E+03  0.11290691206E+03  0.00000000000E+00 0. -1.
         25    2    1    2    0    0 -0.10152571508E+03  0.47955564892E+02  0.44575340607E+02  0.17388952481E+03  0.12507357364E+03 0.  0.
          5    1    3    3  502    0 -0.95609251641E+02  0.67461629840E+02 -0.79850324703E+01  0.11736027285E+03  0.41800000000E+01 0.  1.
         -5    1    3    3    0  502 -0.59164634342E+01 -0.19506064947E+02  0.52560373077E+02  0.56529251961E+02  0.41800000000E+01 0.  1.
        -11    1    1    2    0    0  0.84368529475E+02 -0.16489691626E+02  0.76647436057E+02  0.11517286204E+03  0.00000000000E+00 0.  1.
         11    1    1    2    0    0  0.17157185600E+02 -0.31465873266E+02 -0.17909162909E+02  0.40065051032E+02  0.00000000000E+00 0. -1.
</event>
<event>
 7    1  0.2732144E-009  0.1010160E+03  0.7561462E-02  0.1278174E+00
         -2   -1    0    0    0  501 -0.00000000000E+00  0.00000000000E+00  0.71011009800E+02  0.71011009800E+02  0.00000000000E+00 0.  1.
          2   -1    0    0  501    0  0.00000000000E+00 -0.00000000000E+00 -0.23582880094E+03  0.23582880094E+03  0.00000000000E+00 0. -1.
         25    2    1    2    0    0 -0.62133218402E+02 -0.10417685796E+02 -0.11235435710E+03  0.17955678416E+03  0.12509225465E+03 0.  0.
          5    1    3    3  502    0 -0.63001669237E+02  0.11123924675E+02 -0.13410840961E+03  0.14864551778E+03  0.41800000000E+01 0. -1.
         -5    1    3    3    0  502  0.86845083470E+00 -0.21541610471E+02  0.21754052514E+02  0.30911266382E+02  0.41800000000E+01 0. -1.
        -11    1    1    2    0    0  0.77384504573E+02 -0.21729361645E+02 -0.35626915476E+02  0.87919302840E+02  0.00000000000E+00 0.  1.
         11    1    1    2    0    0 -0.15251286171E+02  0.32147047441E+02 -0.16836518562E+02  0.39363723736E+02  0.00000000000E+00 0. -1.
</event>
<event>
 7    1  0.2817820E-009  0.2008794E+03  0.7561462E-02  0.1148999E+00
         -1   -1    0    0    0  501 -0.00000000000E+00  0.00000000000E+00  0.43230062338E+02  0.43230062338E+02  0.00000000000E+00 0.  1.
          1   -1    0    0  501    0  0.00000000000E+00 -0.00000000000E+00 -0.10200151539E+04  0.10200151539E+04  0.00000000000E+00 0. -1.
         25    2    1    2    0    0  0.68206430139E+02 -0.16609693808E+03 -0.52405707048E+03  0.56791195820E+03  0.12509144330E+03 0.  0.
          5    1    3    3  502    0  0.84867506762E+02 -0.49259663211E+02 -0.19567822965E+03  0.21894394279E+03  0.41800000000E+01 0.  1.
         -5    1    3    3    0  502 -0.16661076622E+02 -0.11683727487E+03 -0.32837884083E+03  0.34896801541E+03  0.41800000000E+01 0.  1.
        -11    1    1    2    0    0 -0.40067561997E+02  0.41389421741E+02 -0.63926041012E+02  0.86052498371E+02  0.00000000000E+00 0.  1.
         11    1    1    2    0    0 -0.28138868142E+02  0.12470751634E+03 -0.38880198008E+03  0.40928075969E+03  0.00000000000E+00 0. -1.
</event>
<event>
 7    1  0.2978198E-009  0.1582328E+03  0.7561462E-02  0.1190707E+00
          2   -1    0    0  501    0  0.00000000000E+00  0.00000000000E+00  0.81963371565E+03  0.81963371565E+03  0.00000000000E+00 0.  1.
         -2   -1    0    0    0  501 -0.00000000000E+00 -0.00000000000E+00 -0.32278128269E+02  0.32278128269E+02  0.00000000000E+00 0. -1.
         25    2    1    2    0    0  0.10255986240E+03  0.62109410137E+02  0.46260804190E+03  0.49399395794E+03  0.12509087038E+03 0.  0.
          5    1    3    3  502    0  0.12878865551E+03  0.68460552181E+02  0.39397212561E+03  0.42012483044E+03  0.41800000000E+01 0. -1.
         -5    1    3    3    0  502 -0.26228793114E+02 -0.63511420441E+01  0.68635916290E+02  0.73869127506E+02  0.41800000000E+01 0. -1.
        -11    1    1    2    0    0 -0.37440355601E+02  0.16712494524E+02  0.49386193308E+02  0.64187878842E+02  0.00000000000E+00 0.  1.
         11    1    1    2    0    0 -0.65119506795E+02 -0.78821904661E+02  0.27536135218E+03  0.29373000714E+03  0.00000000000E+00 0. -1.
</event>
<event>
 7    1  0.2732144E-009  0.1068506E+03  0.7561462E-02  0.1266516E+00
         -3   -1    0    0    0  501 -0.00000000000E+00  0.00000000000E+00  0.75024819596E+02  0.75024819596E+02  0.00000000000E+00 0.  1.
          3   -1    0    0  501    0  0.00000000000E+00 -0.00000000000E+00 -0.22804489960E+03  0.22804489960E+03  0.00000000000E+00 0. -1.
         25    2    1    2    0    0  0.43478626733E+02 -0.19070545134E+02 -0.14783835358E+03  0.19939347676E+03  0.12508998005E+03 0.  0.
          5    1    3    3  502    0  0.47055820668E+02 -0.60593084537E+02 -0.13543372037E+03  0.15570978506E+03  0.41800000000E+01 0.  1.
         -5    1    3    3    0  502 -0.35771939351E+01  0.41522539402E+02 -0.12404633218E+02  0.43683691695E+02  0.41800000000E+01 0.  1.
        -11    1    1    2    0    0 -0.30790937210E+02 -0.30783626501E+02  0.18172373964E+02  0.47179960262E+02  0.00000000000E+00 0.  1.
         11    1    1    2    0    0 -0.12687689523E+02  0.49854171636E+02 -0.23354100385E+02  0.56496282176E+02  0.00000000000E+00 0. -1.
</event>
<event>
 7    1  0.2732144E-009  0.1165635E+03  0.7561462E-02  0.1248876E+00
          2   -1    0    0  501    0  0.00000000000E+00  0.00000000000E+00  0.48638361274E+03  0.48638361274E+03  0.00000000000E+00 0. -1.
         -2   -1    0    0    0  501 -0.00000000000E+00 -0.00000000000E+00 -0.38795533074E+02  0.38795533074E+02  0.00000000000E+00 0.  1.
         25    2    1    2    0    0 -0.47173736520E+02  0.60869117094E+02  0.18040242211E+03  0.23264731122E+03  0.12509726887E+03 0.  0.
          5    1    3    3  502    0  0.25782510936E+02  0.64942273538E+02  0.11427360778E+03  0.13400808407E+03  0.41800000000E+01 0. -1.
         -5    1    3    3    0  502 -0.72956247456E+02 -0.40731564440E+01  0.66128814334E+02  0.98639227143E+02  0.41800000000E+01 0. -1.
        -11    1    1    2    0    0 -0.21867037564E+01 -0.33359339090E+02  0.19972919502E+02  0.38942838768E+02  0.00000000000E+00 0.  1.
         11    1    1    2    0    0  0.49360440277E+02 -0.27509778004E+02  0.24721273805E+03  0.25358899583E+03  0.00000000000E+00 0. -1.
</event>
<event>
 7    1  0.2732144E-009  0.7398113E+02  0.7561462E-02  0.1347055E+00
          1   -1    0    0  501    0  0.00000000000E+00  0.00000000000E+00  0.19723784552E+03  0.19723784552E+03  0.00000000000E+00 0. -1.
         -1   -1    0    0    0  501 -0.00000000000E+00 -0.00000000000E+00 -0.69697947114E+02  0.69697947114E+02  0.00000000000E+00 0.  1.
         25    2    1    2    0    0  0.35379029395E+02  0.25246160342E+02  0.76355586371E+02  0.15286226483E+03  0.12509057561E+03 0.  0.
          5    1    3    3  502    0  0.54883868169E+02 -0.85213945906E+01 -0.11299604770E+02  0.56833147185E+02  0.41800000000E+01 0.  1.
         -5    1    3    3    0  502 -0.19504838774E+02  0.33767554932E+02  0.87655191141E+02  0.96029117645E+02  0.41800000000E+01 0.  1.
        -11    1    1    2    0    0 -0.29978221422E+02 -0.29724399938E+01  0.75119352142E+02  0.80934827024E+02  0.00000000000E+00 0. -1.
         11    1    1    2    0    0 -0.54008079731E+01 -0.22273720348E+02 -0.23935040103E+02  0.33138700784E+02  0.00000000000E+00 0.  1.
</event>
<event>
 7    1  0.3042891E-009  0.1286796E+03  0.7561462E-02  0.1229428E+00
          2   -1    0    0  501    0  0.00000000000E+00  0.00000000000E+00  0.10041678776E+04  0.10041678776E+04  0.00000000000E+00 0. -1.
         -2   -1    0    0    0  501 -0.00000000000E+00 -0.00000000000E+00 -0.25027309770E+02  0.25027309770E+02  0.00000000000E+00 0.  1.
         25    2    1    2    0    0 -0.92040316275E+02 -0.24479757092E+02  0.73447123488E+03  0.75111044707E+03  0.12509288750E+03 0.  0.
          5    1    3    3  502    0 -0.11768580648E+03 -0.29412945345E+02  0.67766244419E+03  0.68844675253E+03  0.41800000000E+01 0.  1.
         -5    1    3    3    0  502  0.25645490202E+02  0.49331882532E+01  0.56808790691E+02  0.62663694543E+02  0.41800000000E+01 0.  1.
        -11    1    1    2    0    0  0.68822758214E+02 -0.83456639456E+01  0.68774775143E+02  0.97653427236E+02  0.00000000000E+00 0.  1.
         11    1    1    2    0    0  0.23217558061E+02  0.32825421038E+02  0.17589455785E+03  0.18043131311E+03  0.00000000000E+00 0. -1.
</event>
<event>
 7    1  0.2732144E-009  0.1149687E+03  0.7561462E-02  0.1251636E+00
         -1   -1    0    0    0  501 -0.00000000000E+00  0.00000000000E+00  0.52785455833E+02  0.52785455833E+02  0.00000000000E+00 0.  1.
          1   -1    0    0  501    0  0.00000000000E+00 -0.00000000000E+00 -0.26643300751E+03  0.26643300751E+03  0.00000000000E+00 0. -1.
         25    2    1    2    0    0 -0.28891771741E+02 -0.22794662666E+02 -0.83025956050E+02  0.15458042112E+03  0.12508983210E+03 0.  0.
          5    1    3    3  502    0 -0.84239721883E+01 -0.74255468872E+02 -0.48180745127E+02  0.89015136723E+02  0.41800000000E+01 0.  1.
         -5    1    3    3    0  502 -0.20467799553E+02  0.51460806206E+02 -0.34845210923E+02  0.65565284398E+02  0.41800000000E+01 0.  1.
        -11    1    1    2    0    0 -0.27791618915E+02 -0.14844265040E+02 -0.50501446712E+02  0.59524132976E+02  0.00000000000E+00 0. -1.
         11    1    1    2    0    0  0.56683390656E+02  0.37638927706E+02 -0.80120148916E+02  0.10511390925E+03  0.00000000000E+00 0.  1.
</event>
<event>
 7    1  0.2732144E-009  0.1170457E+03  0.7561462E-02  0.1248052E+00
         -2   -1    0    0    0  501 -0.00000000000E+00  0.00000000000E+00  0.95205560433E+02  0.95205560433E+02  0.00000000000E+00 0.  1.
          2   -1    0    0  501    0  0.00000000000E+00 -0.00000000000E+00 -0.24232339360E+03  0.24232339360E+03  0.00000000000E+00 0. -1.
         25    2    1    2    0    0  0.49481399640E+02 -0.77148931279E+02 -0.17516533238E+02  0.15605736530E+03  0.12508679315E+03 0.  0.
          5    1    3    3  502    0 -0.16924598425E+02 -0.29244259549E+02 -0.55960341513E+02  0.65503442434E+02  0.41800000000E+01 0.  1.
         -5    1    3    3    0  502  0.66405998065E+02 -0.47904671730E+02  0.38443808275E+02  0.90553922871E+02  0.41800000000E+01 0.  1.
        -11    1    1    2    0    0 -0.61552641874E+02  0.28314554930E+02 -0.39901966661E+02  0.78629566233E+02  0.00000000000E+00 0. -1.
         11    1    1    2    0    0  0.12071242234E+02  0.48834376350E+02 -0.89699333269E+02  0.10284202250E+03  0.00000000000E+00 0.  1.
</event>
<event>
 7    1  0.2732144E-009  0.9689131E+02  0.7561462E-02  0.1286972E+00
         -1   -1    0    0    0  501 -0.00000000000E+00  0.00000000000E+00  0.18915840552E+03  0.18915840552E+03  0.00000000000E+00 0.  1.
          1   -1    0    0  501    0  0.00000000000E+00 -0.00000000000E+00 -0.66316185236E+02  0.66316185236E+02  0.00000000000E+00 0. -1.
         25    2    1    2    0    0 -0.21458513688E+02  0.11771780275E+02  0.98122367213E+02  0.16085388834E+03  0.12508769654E+03 0.  0.
          5    1    3    3  502    0  0.23554073536E+02  0.41926274540E+02  0.94835987100E+02  0.10641402035E+03  0.41800000000E+01 0.  1.
         -5    1    3    3    0  502 -0.45012587224E+02 -0.30154494265E+02  0.32863801128E+01  0.54439867994E+02  0.41800000000E+01 0.  1.
        -11    1    1    2    0    0 -0.26792183286E+02  0.19969983716E+02  0.63452961051E+01  0.34012999243E+02  0.00000000000E+00 0.  1.
         11    1    1    2    0    0  0.48250696974E+02 -0.31741763991E+02  0.18374556962E+02  0.60607703168E+02  0.00000000000E+00 0. -1.
</event>
<event>
 7    1  0.2732144E-009  0.1074151E+03  0.7561462E-02  0.1265433E+00
          1   -1    0    0  501    0  0.00000000000E+00  0.00000000000E+00  0.47692252224E+02  0.47692252224E+02  0.00000000000E+00 0. -1.
         -1   -1    0    0    0  501 -0.00000000000E+00 -0.00000000000E+00 -0.38381745565E+03  0.38381745565E+03  0.00000000000E+00 0.  1.
         25    2    1    2    0    0 -0.43296820883E+02  0.17099969887E+02 -0.29308461056E+03  0.32204570712E+03  0.12509126611E+03 0.  0.
          5    1    3    3  502    0 -0.78162380996E+02  0.11597049169E+02 -0.26553777121E+03  0.27707693822E+03  0.41800000000E+01 0. -1.
         -5    1    3    3    0  502  0.34865560113E+02  0.55029207184E+01 -0.27546839349E+02  0.44968768902E+02  0.41800000000E+01 0. -1.
        -11    1    1    2    0    0 -0.27386354735E+02 -0.98503631385E+01 -0.17494043228E+02  0.33957085094E+02  0.00000000000E+00 0.  1.
         11    1    1    2    0    0  0.70683175618E+02 -0.72496067485E+01 -0.25546549634E+02  0.75506915655E+02  0.00000000000E+00 0. -1.
</event>
<event>
 7    1  0.2732144E-009  0.2585714E+03  0.7561462E-02  0.1108005E+00
         -3   -1    0    0    0  501 -0.00000000000E+00  0.00000000000E+00  0.95497133572E+02  0.95497133572E+02  0.00000000000E+00 0.  1.
          3   -1    0    0  501    0  0.00000000000E+00 -0.00000000000E+00 -0.80340805549E+03  0.80340805549E+03  0.00000000000E+00 0. -1.
         25    2    1    2    0    0 -0.24479292574E+03  0.10707444431E+02 -0.25306165119E+03  0.37379919054E+03  0.12508960661E+03 0.  0.
          5    1    3    3  502    0 -0.21139711196E+03  0.52852452277E+02 -0.17814554281E+03  0.28148788159E+03  0.41800000000E+01 0. -1.
         -5    1    3    3    0  502 -0.33395813780E+02 -0.42145007846E+02 -0.74916108384E+02  0.92311308949E+02  0.41800000000E+01 0. -1.
        -11    1    1    2    0    0  0.99787879310E+02 -0.96690632377E+01 -0.99233990802E+02  0.14106203094E+03  0.00000000000E+00 0.  1.
         11    1    1    2    0    0  0.14500504643E+03 -0.10383811934E+01 -0.35561527993E+03  0.38404396759E+03  0.00000000000E+00 0. -1.
</event>
<event>
 7    1  0.2732144E-009  0.6719235E+02  0.7561462E-02  0.1369909E+00
          1   -1    0    0  501    0  0.00000000000E+00  0.00000000000E+00  0.99670395008E+02  0.99670395008E+02  0.00000000000E+00 0. -1.
         -1   -1    0    0    0  501 -0.00000000000E+00 -0.00000000000E+00 -0.13556347565E+03  0.13556347565E+03  0.00000000000E+00 0.  1.
         25    2    1    2    0    0  0.21932089178E+02  0.22505297905E+02  0.50442074901E+01  0.12908438205E+03  0.12509927533E+03 0.  0.
          5    1    3    3  502    0  0.51757134739E+01  0.18817052007E+02 -0.59191336514E+02  0.62465639952E+02  0.41800000000E+01 0. -1.
         -5    1    3    3    0  502  0.16756375705E+02  0.36882458977E+01  0.64235544005E+02  0.66618742093E+02  0.41800000000E+01 0. -1.
        -11    1    1    2    0    0 -0.56799666437E+02 -0.24464556227E+02 -0.18159855596E+02  0.64455387471E+02  0.00000000000E+00 0.  1.
         11    1    1    2    0    0  0.34867577259E+02  0.19592583221E+01 -0.22777432537E+02  0.41694101142E+02  0.00000000000E+00 0. -1.
</event>
<event>
 7    1  0.2732144E-009  0.1945726E+03  0.7561462E-02  0.1154401E+00
          1   -1    0    0  501    0  0.00000000000E+00  0.00000000000E+00  0.14205633709E+04  0.14205633709E+04  0.00000000000E+00 0. -1.
         -1   -1    0    0    0  501 -0.00000000000E+00 -0.00000000000E+00 -0.29186730705E+02  0.29186730705E+02  0.00000000000E+00 0.  1.
         25    2    1    2    0    0 -0.86937939549E+02 -0.14108836398E+03  0.89887335751E+03  0.92254292990E+03  0.12509201762E+03 0.  0.
          5    1    3    3  502    0 -0.76214464970E+02 -0.16119008440E+03  0.84930963321E+03  0.86783363235E+03  0.41800000000E+01 0.  1.
         -5    1    3    3    0  502 -0.10723474580E+02  0.20101720422E+02  0.49563724305E+02  0.54709297546E+02  0.41800000000E+01 0.  1.
        -11    1    1    2    0    0  0.78495945100E+02  0.15362574010E+03  0.46211694198E+03  0.49326924644E+03  0.00000000000E+00 0. -1.
         11    1    1    2    0    0  0.84419944492E+01 -0.12537376120E+02  0.30386340685E+02  0.33937925253E+02  0.00000000000E+00 0.  1.
</event>
<event>
 7    1  0.2732144E-009  0.1428706E+03  0.7561462E-02  0.1209518E+00
         -1   -1    0    0    0  501 -0.00000000000E+00  0.00000000000E+00  0.23628205111E+02  0.23628205111E+02  0.00000000000E+00 0.  1.
          1   -1    0    0  501    0  0.00000000000E+00 -0.00000000000E+00 -0.16825399570E+04  0.16825399570E+04  0.00000000000E+00 0. -1.
         25    2    1    2    0    0  0.53032815192E+02  0.10227856733E+03 -0.13829651548E+04  0.13933810753E+04  0.12507924114E+03 0.  0.
          5    1    3    3  502    0 -0.37650401685E+02  0.35223185467E+02 -0.61440420046E+03  0.61657782922E+03  0.41800000000E+01 0.  1.
         -5    1    3    3    0  502  0.90683216877E+02  0.67055381866E+02 -0.76856095438E+03  0.77680324604E+03  0.41800000000E+01 0.  1.
        -11    1    1    2    0    0 -0.21798580560E+02 -0.79664193485E+02 -0.87058860405E+02  0.12000336251E+03  0.00000000000E+00 0. -1.
         11    1    1    2    0    0 -0.31234234632E+02 -0.22614373847E+02 -0.18888773664E+03  0.19278372434E+03  0.00000000000E+00 0.  1.
</event>
<event>
 7    1  0.2732144E-009  0.1256908E+03  0.7561462E-02  0.1233994E+00
         -1   -1    0    0    0  501 -0.00000000000E+00  0.00000000000E+00  0.81120008337E+03  0.81120008337E+03  0.00000000000E+00 0.  1.
          1   -1    0    0  501    0  0.00000000000E+00 -0.00000000000E+00 -0.43978794361E+02  0.43978794361E+02  0.00000000000E+00 0. -1.
         25    2    1    2    0    0 -0.77293513347E+02 -0.10753768741E+02  0.72622082101E+03  0.74103615907E+03  0.12509187594E+03 0.  0.
          5    1    3    3  502    0 -0.81320933510E+01  0.51233452553E+02  0.32828523772E+03  0.33238481811E+03  0.41800000000E+01 0.  1.
         -5    1    3    3    0  502 -0.69161419996E+02 -0.61987221294E+02  0.39793558329E+03  0.40865134096E+03  0.41800000000E+01 0.  1.
        -11    1    1    2    0    0  0.62516673111E+02  0.39568927619E+02  0.25662919330E+02  0.78311045698E+02  0.00000000000E+00 0.  1.
         11    1    1    2    0    0  0.14776840236E+02 -0.28815158878E+02  0.15337548670E+02  0.35831672968E+02  0.00000000000E+00 0. -1.
</event>
<event>
 7    1  0.2732144E-009  0.7970426E+02  0.7561462E-02  0.1329893E+00
          2   -1    0    0  501    0  0.00000000000E+00  0.00000000000E+00  0.55623906735E+03  0.55623906735E+03  0.00000000000E+00 0.  1.
         -2   -1    0    0    0  501 -0.00000000000E+00 -0.00000000000E+00 -0.28831647967E+02  0.28831647967E+02  0.00000000000E+00 0. -1.
         25    2    1    2    0    0 -0.54309574567E+01 -0.65319818743E+02  0.31508956651E+03  0.34530177864E+03  0.12512277726E+03 0.  0.
          5    1    3    3  502    0  0.14917981639E+02 -0.12319604915E+02  0.27491591752E+03  0.27562756202E+03  0.41800000000E+01 0.  1.
         -5    1    3    3    0  502 -0.20348939096E+02 -0.53000213829E+02  0.40173648994E+02  0.69674216621E+02  0.41800000000E+01 0.  1.
        -11    1    1    2    0    0  0.26997268879E+02  0.47824399070E+02  0.47447370330E+02  0.72576019625E+02  0.00000000000E+00 0. -1.
         11    1    1    2    0    0 -0.21566311423E+02  0.17495419673E+02  0.16487048254E+03  0.16719291705E+03  0.00000000000E+00 0.  1.
</event>
<event>
 6    1  0.2732144E-009  0.2134015E+03  0.7561462E-02  0.1138900E+00
         -2   -1    0    0    0  501 -0.00000000000E+00  0.00000000000E+00  0.32625755184E+03  0.32625755184E+03  0.00000000000E+00 0.  1.
          2   -1    0    0  501    0  0.00000000000E+00 -0.00000000000E+00 -0.25489337352E+03  0.25489337352E+03  0.00000000000E+00 0. -1.
          5    1    1    2  502    0  0.72977184376E+01 -0.53881799726E+02  0.14233095027E+02  0.56360965482E+02  0.41800000000E+01 0. -1.
         -5    1    1    2    0  502 -0.13405513600E+03 -0.90083659389E+02  0.20908669863E+03  0.26423581347E+03  0.41800000000E+01 0. -1.
        -11    1    1    2    0    0  0.30989507646E+02  0.10116802193E+03 -0.63964035061E+02  0.12363945983E+03  0.00000000000E+00 0.  1.
         11    1    1    2    0    0  0.95767909915E+02  0.42797437187E+02 -0.87991580283E+02  0.13691468658E+03  0.00000000000E+00 0. -1.
</event>
<event>
 7    1  0.2766582E-009  0.3148032E+03  0.7561462E-02  0.1078066E+00
         -2   -1    0    0    0  501 -0.00000000000E+00  0.00000000000E+00  0.30118140894E+03  0.30118140894E+03  0.00000000000E+00 0.  1.
          2   -1    0    0  501    0  0.00000000000E+00 -0.00000000000E+00 -0.34791982638E+03  0.34791982638E+03  0.00000000000E+00 0. -1.
         25    2    1    2    0    0  0.66911271876E+01  0.30449466186E+03 -0.30376512632E+02  0.33065475619E+03  0.12509222593E+03 0.  0.
          5    1    3    3  502    0 -0.33608814513E+02  0.66434798827E+02  0.32155047385E+02  0.81206861659E+02  0.41800000000E+01 0.  1.
         -5    1    3    3    0  502  0.40299941701E+02  0.23805986303E+03 -0.62531560017E+02  0.24944789453E+03  0.41800000000E+01 0.  1.
        -11    1    1    2    0    0  0.31587159714E+02 -0.19544917927E+03  0.15427273646E+02  0.19858532450E+03  0.00000000000E+00 0.  1.
         11    1    1    2    0    0 -0.38278286902E+02 -0.10904548259E+03 -0.31789178459E+02  0.11986115463E+03  0.00000000000E+00 0. -1.
</event>
<event>
 7    1  0.2732144E-009  0.1824109E+03  0.7561462E-02  0.1165490E+00
          1   -1    0    0  501    0  0.00000000000E+00  0.00000000000E+00  0.62171533630E+03  0.62171533630E+03  0.00000000000E+00 0. -1.
         -1   -1    0    0    0  501 -0.00000000000E+00 -0.00000000000E+00 -0.93528796689E+02  0.93528796689E+02  0.00000000000E+00 0.  1.
         25    2    1    2    0    0 -0.11436877398E+03  0.91664586279E+02  0.40114241995E+02  0.19682239775E+03  0.12508913224E+03 0.  0.
          5    1    3    3  502    0 -0.12963642251E+03  0.37942154045E+02  0.39570573252E+02  0.14081374848E+03  0.41800000000E+01 0.  1.
         -5    1    3    3    0  502  0.15267648526E+02  0.53722432234E+02  0.54366874289E+00  0.56008649264E+02  0.41800000000E+01 0.  1.
        -11    1    1    2    0    0 -0.16321352963E+02 -0.14954348011E+02  0.83999451330E+02  0.86867294828E+02  0.00000000000E+00 0. -1.
         11    1    1    2    0    0  0.13069012694E+03 -0.76710238268E+02  0.40407284629E+03  0.43155444041E+03  0.00000000000E+00 0.  1.
</event>
<event>
 7    1  0.2732144E-009  0.7722667E+02  0.7561462E-02  0.1337111E+00
         -1   -1    0    0    0  501 -0.00000000000E+00  0.00000000000E+00  0.19427218034E+03  0.19427218034E+03  0.00000000000E+00 0.  1.
          1   -1    0    0  501    0  0.00000000000E+00 -0.00000000000E+00 -0.69043220600E+02  0.69043220600E+02  0.00000000000E+00 0. -1.
         25    2    1    2    0    0  0.58274984673E+01 -0.40471557450E+02  0.56919498096E+02  0.14338433082E+03  0.12508928955E+03 0.  0.
          5    1    3    3  502    0 -0.12541316840E+02 -0.20801815222E+01 -0.37454471058E+02  0.39773377848E+02  0.41800000000E+01 0. -1.
         -5    1    3    3    0  502  0.18368815308E+02 -0.38391375928E+02  0.94373969154E+02  0.10361095297E+03  0.41800000000E+01 0. -1.
        -11    1    1    2    0    0  0.40750688310E+02  0.29901865988E+02  0.39544816642E+02  0.64175795364E+02  0.00000000000E+00 0. -1.
         11    1    1    2    0    0 -0.46578186778E+02  0.10569691463E+02  0.28764645000E+02  0.55755274756E+02  0.00000000000E+00 0.  1.
</event>
<event>
 7    1  0.2732144E-009  0.1171163E+03  0.7561462E-02  0.1247931E+00
          1   -1    0    0  501    0  0.00000000000E+00  0.00000000000E+00  0.12559123603E+03  0.12559123603E+03  0.00000000000E+00 0. -1.
         -1   -1    0    0    0  501 -0.00000000000E+00 -0.00000000000E+00 -0.12834755958E+03  0.12834755958E+03  0.00000000000E+00 0.  1.
         25    2    1    2    0    0  0.13876180347E+02  0.64138185713E+02 -0.72768295696E+00  0.14125768477E+03  0.12508776414E+03 0.  0.
          5    1    3    3  502    0  0.44814731436E+02 -0.14866774562E+02  0.23519620097E+02  0.52915272550E+02  0.41800000000E+01 0. -1.
         -5    1    3    3    0  502 -0.30938551088E+02  0.79004960275E+02 -0.24247303054E+02  0.88342412220E+02  0.41800000000E+01 0. -1.
        -11    1    1    2    0    0 -0.46517693446E+02 -0.37843018122E+02 -0.24901159204E+02  0.64931175516E+02  0.00000000000E+00 0.  1.
         11    1    1    2    0    0  0.32641513099E+02 -0.26295167591E+02  0.22872518609E+02  0.47749935325E+02  0.00000000000E+00 0. -1.
</event>
<event>
 7    1  0.2732144E-009  0.7546062E+02  0.7561462E-02  0.1342451E+00
          3   -1    0    0  501    0  0.00000000000E+00  0.00000000000E+00  0.84013932371E+02  0.84013932371E+02  0.00000000000E+00 0. -1.
         -3   -1    0    0    0  501 -0.00000000000E+00 -0.00000000000E+00 -0.15503831468E+03  0.15503831468E+03  0.00000000000E+00 0.  1.
         25    2    1    2    0    0  0.50336951235E+01  0.33857170734E+02 -0.39296544972E+02  0.13551089276E+03  0.12508931814E+03 0.  0.
          5    1    3    3  502    0  0.20574249553E+02  0.10672684661E+01  0.41677991535E+02  0.46679397865E+02  0.41800000000E+01 0. -1.
         -5    1    3    3    0  502 -0.15540554429E+02  0.32789902268E+02 -0.80974536507E+02  0.88831494895E+02  0.41800000000E+01 0. -1.
        -11    1    1    2    0    0 -0.31344133278E+02  0.17333132907E+02  0.36162618839E+01  0.35999576905E+02  0.00000000000E+00 0. -1.
         11    1    1    2    0    0  0.26310438155E+02 -0.51190303641E+02 -0.35344099221E+02  0.67541777387E+02  0.00000000000E+00 0.  1.
</event>
<event>
 7    1  0.2732144E-009  0.1907558E+03  0.7561462E-02  0.1157781E+00
         -2   -1    0    0    0  501 -0.00000000000E+00  0.00000000000E+00  0.26105047337E+02  0.26105047337E+02  0.00000000000E+00 0.  1.
          2   -1    0    0  501    0  0.00000000000E+00 -0.00000000000E+00 -0.19976016980E+04  0.19976016980E+04  0.00000000000E+00 0. -1.
         25    2    1    2    0    0 -0.14794933976E+03 -0.84690575438E+02 -0.14797255438E+04  0.14947564793E+04  0.12509095478E+03 0.  0.
          5    1    3    3  502    0 -0.13023032070E+03 -0.35944825246E+02 -0.13169068477E+04  0.13238251715E+04  0.41800000000E+01 0. -1.
         -5    1    3    3    0  502 -0.17719019054E+02 -0.48745750192E+02 -0.16281869606E+03  0.17093130779E+03  0.41800000000E+01 0. -1.
        -11    1    1    2    0    0  0.35574711378E+02 -0.19929070133E+02 -0.11926735322E+03  0.12604534688E+03  0.00000000000E+00 0. -1.
         11    1    1    2    0    0  0.11237462838E+03  0.10461964557E+03 -0.37250375369E+03  0.40290491912E+03  0.00000000000E+00 0.  1.
</event>
<event>
 7    1  0.2732144E-009  0.6998480E+02  0.7561462E-02  0.1360145E+00
         -2   -1    0    0    0  501 -0.00000000000E+00  0.00000000000E+00  0.22728495389E+02  0.22728495389E+02  0.00000000000E+00 0.  1.
          2   -1    0    0  501    0  0.00000000000E+00 -0.00000000000E+00 -0.59959610570E+03  0.59959610570E+03  0.00000000000E+00 0. -1.
         25    2    1    2    0    0 -0.26218825475E+02  0.25211262478E+02 -0.35921186763E+03  0.38210405495E+03  0.12508920174E+03 0.  0.
          5    1    3    3  502    0 -0.23094956756E+02  0.98037993293E+01 -0.31032566288E+01  0.25624092385E+02  0.41800000000E+01 0.  1.
         -5    1    3    3    0  502 -0.31238687196E+01  0.15407463149E+02 -0.35610861100E+03  0.35647996256E+03  0.41800000000E+01 0.  1.
        -11    1    1    2    0    0  0.60421312399E+02 -0.20145991127E+02 -0.16838938315E+03  0.18003216465E+03  0.00000000000E+00 0. -1.
         11    1    1    2    0    0 -0.34202486924E+02 -0.50652713515E+01 -0.49266359523E+02  0.60188381489E+02  0.00000000000E+00 0.  1.
</event>
<event>
 7    1  0.2732144E-009  0.9973795E+02  0.7561462E-02  0.1280848E+00
          2   -1    0    0  501    0  0.00000000000E+00  0.00000000000E+00  0.71404652582E+03  0.71404652582E+03  0.00000000000E+00 0. -1.
         -2   -1    0    0    0  501 -0.00000000000E+00 -0.00000000000E+00 -0.30025976407E+02  0.30025976407E+02  0.00000000000E+00 0.  1.
         25    2    1    2    0    0 -0.42461752085E+02 -0.46617177856E+02  0.56097897505E+03  0.57820591713E+03  0.12509400665E+03 0.  0.
          5    1    3    3  502    0 -0.63698824544E+02 -0.44823888755E+02  0.17476575186E+03  0.19138250096E+03  0.41800000000E+01 0.  1.
         -5    1    3    3    0  502  0.21237072459E+02 -0.17932891017E+01  0.38621322319E+03  0.38682341617E+03  0.41800000000E+01 0.  1.
        -11    1    1    2    0    0 -0.20247863860E+02  0.27591448000E+02  0.10786681469E+02  0.35883373458E+02  0.00000000000E+00 0. -1.
         11    1    1    2    0    0  0.62709615944E+02  0.19025729857E+02  0.11225489289E+03  0.12998321164E+03  0.00000000000E+00 0.  1.
</event>
<event>
 7    1  0.2732144E-009  0.8018193E+02  0.7561462E-02  0.1328536E+00
         -2   -1    0    0    0  501 -0.00000000000E+00  0.00000000000E+00  0.30956105673E+03  0.30956105673E+03  0.00000000000E+00 0. -1.
          2   -1    0    0  501    0  0.00000000000E+00 -0.00000000000E+00 -0.59414703860E+02  0.59414703860E+02  0.00000000000E+00 0.  1.
         25    2    1    2    0    0  0.32489575632E+02 -0.69364237078E+02  0.98931355697E+02  0.17692918267E+03  0.12509817197E+03 0.  0.
          5    1    3    3  502    0 -0.23370270754E+01 -0.29411318146E+02  0.11703240775E+03  0.12076648622E+03  0.41800000000E+01 0.  1.
         -5    1    3    3    0  502  0.34826602707E+02 -0.39952918932E+02 -0.18101052049E+02  0.56162696450E+02  0.41800000000E+01 0.  1.
        -11    1    1    2    0    0 -0.24699406656E+02  0.39929981176E+02  0.10547883878E+02  0.48121948632E+02  0.00000000000E+00 0.  1.
         11    1    1    2    0    0 -0.77901689752E+01  0.29434255902E+02  0.14066711329E+03  0.14392462929E+03  0.00000000000E+00 0. -1.
</event>
<event>
 7    1  0.2732144E-009  0.9874774E+02  0.7561462E-02  0.1282952E+00
          2   -1    0    0  501    0  0.00000000000E+00  0.00000000000E+00  0.20190284830E+03  0.20190284830E+03  0.00000000000E+00 0.  1.
         -2   -1    0    0    0  501 -0.00000000000E+00 -0.00000000000E+00 -0.62616609396E+02  0.62616609396E+02  0.00000000000E+00 0. -1.
         25    2    1    2    0    0  0.32640887318E+01  0.25012140910E+02  0.61066832017E+02  0.14146975820E+03  0.12509305754E+03 0.  0.
          5    1    3    3  502    0  0.52454762560E+02  0.36217617258E+02  0.23231681783E+01  0.63922511102E+02  0.41800000000E+01 0.  1.
         -5    1    3    3    0  502 -0.49190673829E+02 -0.11205476348E+02  0.58743663839E+02  0.77547247102E+02  0.41800000000E+01 0.  1.
        -11    1    1    2    0    0 -0.35338099373E+00 -0.53928182244E+02  0.19168479365E+02  0.57234642651E+02  0.00000000000E+00 0. -1.
         11    1    1    2    0    0 -0.29107077381E+01  0.28916041334E+02  0.59050927522E+02  0.65815056843E+02  0.00000000000E+00 0.  1.
</event>
<event>
 7    1  0.2732144E-009  0.1108472E+03  0.7561462E-02  0.1259009E+00
          2   -1    0    0  501    0  0.00000000000E+00  0.00000000000E+00  0.17733368068E+03  0.17733368068E+03  0.00000000000E+00 0. -1.
         -2   -1    0    0    0  501 -0.00000000000E+00 -0.00000000000E+00 -0.96713436524E+02  0.96713436524E+02  0.00000000000E+00 0.  1.
         25    2    1    2    0    0 -0.15798317551E+02 -0.63977815564E+02  0.77240174685E+02  0.16111055585E+03  0.12509124230E+03 0.  0.
          5    1    3    3  502    0 -0.54123998934E+02 -0.56743070174E+02  0.90391815710E+02  0.11973861541E+03  0.41800000000E+01 0.  1.
         -5    1    3    3    0  502  0.38325681383E+02 -0.72347453899E+01 -0.13151641025E+02  0.41371940442E+02  0.41800000000E+01 0.  1.
        -11    1    1    2    0    0 -0.32735725274E+02  0.32267422825E+02 -0.20381031516E+02  0.50281216479E+02  0.00000000000E+00 0.  1.
         11    1    1    2    0    0  0.48534042826E+02  0.31710392739E+02  0.23761100987E+02  0.62655344870E+02  0.00000000000E+00 0. -1.
</event>
<event>
 7    1  0.2732144E-009  0.6236957E+02  0.7561462E-02  0.1388148E+00
          1   -1    0    0  501    0  0.00000000000E+00  0.00000000000E+00  0.16121467508E+03  0.16121467508E+03  0.00000000000E+00 0. -1.
         -1   -1    0    0    0  501 -0.00000000000E+00 -0.00000000000E+00 -0.92296623927E+02  0.92296623927E+02  0.00000000000E+00 0.  1.
         25    2    1    2    0    0  0.24248257278E+02 -0.18299972872E+02 -0.77307908946E+01  0.12898199767E+03  0.12511484167E+03 0.  0.
          5    1    3    3  502    0  0.44565197240E+01 -0.43668893579E+01 -0.65645598782E+02  0.66073802147E+02  0.41800000000E+01 0. -1.
         -5    1    3    3    0  502  0.19791737554E+02 -0.13933083514E+02  0.57914807887E+02  0.62908195525E+02  0.41800000000E+01 0. -1.
        -11    1    1    2    0    0 -0.16598764765E+02 -0.35044282116E+02  0.12484457446E+02  0.40736744819E+02  0.00000000000E+00 0.  1.
         11    1    1    2    0    0 -0.76494925136E+01  0.53344254988E+02  0.64164384598E+02  0.83792556512E+02  0.00000000000E+00 0. -1.
</event>
<event>
 7    1  0.2732144E-009  0.1137771E+03  0.7561462E-02  0.1253731E+00
         -1   -1    0    0    0  501 -0.00000000000E+00  0.00000000000E+00  0.24168526056E+02  0.24168526056E+02  0.00000000000E+00 0.  1.
          1   -1    0    0  501    0  0.00000000000E+00 -0.00000000000E+00 -0.66381977487E+03  0.66381977487E+03  0.00000000000E+00 0. -1.
         25    2    1    2    0    0 -0.65995073650E+02 -0.12088953030E+02 -0.35844705815E+03  0.38552676853E+03  0.12508038707E+03 0.  0.
          5    1    3    3  502    0 -0.10816158386E+02 -0.64380129179E+02 -0.17991987243E+03  0.19144300251E+03  0.41800000000E+01 0. -1.
         -5    1    3    3    0  502 -0.55178915265E+02  0.52291176148E+02 -0.17852718572E+03  0.19408376602E+03  0.41800000000E+01 0. -1.
        -11    1    1    2    0    0  0.23575129460E+02 -0.21491102294E+02 -0.24786395519E+02  0.40398262459E+02  0.00000000000E+00 0.  1.
         11    1    1    2    0    0  0.42419944191E+02  0.33580055324E+02 -0.25641779515E+03  0.26206326994E+03  0.00000000000E+00 0. -1.
</event>
<event>
 7    1  0.2732144E-009  0.1389735E+03  0.7561462E-02  0.1214717E+00
         -1   -1    0    0    0  501 -0.00000000000E+00  0.00000000000E+00  0.77531494915E+03  0.77531494915E+03  0.00000000000E+00 0.  1.
          1   -1    0    0  501    0  0.00000000000E+00 -0.00000000000E+00 -0.36858712884E+02  0.36858712884E+02  0.00000000000E+00 0. -1.
         25    2    1    2    0    0  0.11770734567E+03  0.37710773559E+02  0.47384544877E+03  0.50542773893E+03  0.12510223137E+03 0.  0.
          5    1    3    3  502    0  0.46536274960E+02  0.43274320245E+02  0.67356642649E+02  0.92696717249E+02  0.41800000000E+01 0.  1.
         -5    1    3    3    0  502  0.71171070711E+02 -0.55635466862E+01  0.40648880612E+03  0.41273102168E+03  0.41800000000E+01 0.  1.
        -11    1    1    2    0    0 -0.47798601876E+02 -0.52811829565E+02  0.71981350467E+02  0.10126751946E+03  0.00000000000E+00 0. -1.
         11    1    1    2    0    0 -0.69908743795E+02  0.15101056006E+02  0.19262943702E+03  0.20547840363E+03  0.00000000000E+00 0.  1.
</event>
<event>
 7    1  0.2732144E-009  0.2094089E+03  0.7561462E-02  0.1142035E+00
         -2   -1    0    0    0  501 -0.00000000000E+00  0.00000000000E+00  0.85628647330E+02  0.85628647330E+02  0.00000000000E+00 0.  1.
          2   -1    0    0  501    0  0.00000000000E+00 -0.00000000000E+00 -0.56594078028E+03  0.56594078028E+03  0.00000000000E+00 0. -1.
         25    2    1    2    0    0  0.50845063606E+02  0.18376020256E+03 -0.26941784451E+03  0.35296843103E+03  0.12509079034E+03 0.  0.
          5    1    3    3  502    0 -0.30624518379E+02  0.51331466079E+02 -0.13381895930E+03  0.14662116765E+03  0.41800000000E+01 0. -1.
         -5    1    3    3    0  502  0.81469581985E+02  0.13242873648E+03 -0.13559888521E+03  0.20634726338E+03  0.41800000000E+01 0. -1.
        -11    1    1    2    0    0  0.18065134877E+02 -0.42890368047E+02 -0.87298819860E+02  0.98929352158E+02  0.00000000000E+00 0. -1.
         11    1    1    2    0    0 -0.68910198483E+02 -0.14086983452E+03 -0.12359546859E+03  0.19967164442E+03  0.00000000000E+00 0.  1.
</event>
<event>
 7    1  0.2732144E-009  0.1143287E+03  0.7561462E-02  0.1252757E+00
         -2   -1    0    0    0  501 -0.00000000000E+00  0.00000000000E+00  0.82898239838E+02  0.82898239838E+02  0.00000000000E+00 0.  1.
          2   -1    0    0  501    0  0.00000000000E+00 -0.00000000000E+00 -0.25539841979E+03  0.25539841979E+03  0.00000000000E+00 0. -1.
         25    2    1    2    0    0  0.77523025757E+02  0.26188803765E+02 -0.15540701745E+03  0.21562514849E+03  0.12508873100E+03 0.  0.
          5    1    3    3  502    0  0.10627591251E+02 -0.45423614058E+02 -0.27069198348E+02  0.54096804980E+02  0.41800000000E+01 0. -1.
         -5    1    3    3    0  502  0.66895434506E+02  0.71612417823E+02 -0.12833781911E+03  0.16152834351E+03  0.41800000000E+01 0. -1.
        -11    1    1    2    0    0 -0.58575311631E+02 -0.11343159608E+02 -0.52757929724E+02  0.79643791669E+02  0.00000000000E+00 0. -1.
         11    1    1    2    0    0 -0.18947714126E+02 -0.14845644157E+02  0.35664767229E+02  0.43027719466E+02  0.00000000000E+00 0.  1.
</event>
<event>
 7    1  0.2732144E-009  0.1211417E+03  0.7561462E-02  0.1241225E+00
         -2   -1    0    0    0  501 -0.00000000000E+00  0.00000000000E+00  0.20280488881E+03  0.20280488881E+03  0.00000000000E+00 0. -1.
          2   -1    0    0  501    0  0.00000000000E+00 -0.00000000000E+00 -0.88516970834E+02  0.88516970834E+02  0.00000000000E+00 0.  1.
         25    2    1    2    0    0 -0.51227939157E+02  0.49782781875E+02  0.10270821658E+03  0.17691776583E+03  0.12509312927E+03 0.  0.
          5    1    3    3  502    0  0.30822460528E+02 -0.69579013018E+01  0.60770324079E+02  0.68621725074E+02  0.41800000000E+01 0. -1.
         -5    1    3    3    0  502 -0.82050399685E+02  0.56740683177E+02  0.41937892504E+02  0.10829604076E+03  0.41800000000E+01 0. -1.
        -11    1    1    2    0    0 -0.21248925397E+02 -0.27472106821E+02 -0.89022657875E+01  0.35853644443E+02  0.00000000000E+00 0.  1.
         11    1    1    2    0    0  0.72476864554E+02 -0.22310675054E+02  0.20481967185E+02  0.78550449373E+02  0.00000000000E+00 0. -1.
</event>
<event>
 7    1  0.2732144E-009  0.1110630E+03  0.7561462E-02  0.1258614E+00
         -1   -1    0    0    0  501 -0.00000000000E+00  0.00000000000E+00  0.61435576148E+02  0.61435576148E+02  0.00000000000E+00 0.  1.
          1   -1    0    0  501    0  0.00000000000E+00 -0.00000000000E+00 -0.31631178262E+03  0.31631178262E+03  0.00000000000E+00 0. -1.
         25    2    1    2    0    0 -0.14460122388E+02 -0.10027065548E+03 -0.16787745034E+03  0.23257904778E+03  0.12508747197E+03 0.  0.
          5    1    3    3  502    0  0.18600864883E+02 -0.74567052535E+02 -0.17379970228E+03  0.19007905305E+03  0.41800000000E+01 0.  1.
         -5    1    3    3    0  502 -0.33060987271E+02 -0.25703602949E+02  0.59222519343E+01  0.42499994728E+02  0.41800000000E+01 0.  1.
        -11    1    1    2    0    0  0.40158489614E+01  0.81463308736E+02 -0.34735675873E+02  0.88650803107E+02  0.00000000000E+00 0.  1.
         11    1    1    2    0    0  0.10444273427E+02  0.18807346747E+02 -0.52263080258E+02  0.56517507881E+02  0.00000000000E+00 0. -1.
</event>
<event>
 7    1  0.2732144E-009  0.9024666E+02  0.7561462E-02  0.1302255E+00
          2   -1    0    0  501    0  0.00000000000E+00  0.00000000000E+00  0.59509527260E+02  0.59509527260E+02  0.00000000000E+00 0. -1.
         -2   -1    0    0    0  501 -0.00000000000E+00 -0.00000000000E+00 -0.26700469927E+03  0.26700469927E+03  0.00000000000E+00 0.  1.
         25    2    1    2    0    0  0.60114807148E+01 -0.60239427786E+02 -0.90644730927E+02  0.16591558268E+03  0.12508631728E+03 0.  0.
          5    1    3    3  502    0 -0.32634530198E+02 -0.70952603663E+02 -0.97525576843E+02  0.12501197969E+03  0.41800000000E+01 0. -1.
         -5    1    3    3    0  502  0.38646010913E+02  0.10713175877E+02  0.68808459153E+01  0.40903602988E+02  0.41800000000E+01 0. -1.
        -11    1    1    2    0    0  0.18473577238E+00  0.49960661359E+02 -0.13207702563E+03  0.14121063171E+03  0.00000000000E+00 0.  1.
         11    1    1    2    0    0 -0.61962164872E+01  0.10278766427E+02  0.15226584540E+02  0.19388012141E+02  0.00000000000E+00 0. -1.
</event>
<event>
 7    1  0.2732144E-009  0.8151174E+02  0.7561462E-02  0.1324815E+00
          3   -1    0    0  501    0  0.00000000000E+00  0.00000000000E+00  0.45844070474E+02  0.45844070474E+02  0.00000000000E+00 0. -1.
         -3   -1    0    0    0  501 -0.00000000000E+00 -0.00000000000E+00 -0.26845306255E+03  0.26845306255E+03  0.00000000000E+00 0.  1.
         25    2    1    2    0    0 -0.12620908306E+02 -0.20593529414E+01 -0.15649105286E+03  0.20074943796E+03  0.12508940384E+03 0.  0.
          5    1    3    3  502    0 -0.27010503638E+02 -0.41410302001E+02 -0.13119261868E+02  0.51322196470E+02  0.41800000000E+01 0.  1.
         -5    1    3    3    0  502  0.14389595332E+02  0.39350949060E+02 -0.14337179099E+03  0.14942724149E+03  0.41800000000E+01 0.  1.
        -11    1    1    2    0    0  0.39269745422E+01 -0.33990040374E+02  0.37777515881E+01  0.34424052358E+02  0.00000000000E+00 0. -1.
         11    1    1    2    0    0  0.86939337639E+01  0.36049393316E+02 -0.69895690799E+02  0.79123642705E+02  0.00000000000E+00 0.  1.
</event>
<event>
 6    1  0.2732144E-009  0.8845244E+02  0.7561462E-02  0.1306643E+00
          3   -1    0    0  501    0  0.00000000000E+00  0.00000000000E+00  0.67178960484E+02  0.67178960484E+02  0.00000000000E+00 0. -1.
         -3   -1    0    0    0  501 -0.00000000000E+00 -0.00000000000E+00 -0.19690088023E+03  0.19690088023E+03  0.00000000000E+00 0.  1.
          5    1    1    2  502    0 -0.66638108300E+02  0.17995166390E+02 -0.29745156222E+01  0.69215486955E+02  0.41800000000E+01 0.  1.
         -5    1    1    2    0  502  0.43612587377E+02 -0.33217160244E+02 -0.32091905763E+02  0.63661607958E+02  0.41800000000E+01 0.  1.
        -11    1    1    2    0    0  0.21705838234E+01 -0.15494117896E+02 -0.92714310542E+02  0.94025116340E+02  0.00000000000E+00 0.  1.
         11    1    1    2    0    0  0.20854937100E+02  0.30716111749E+02 -0.19411878228E+01  0.37177629464E+02  0.00000000000E+00 0. -1.
</event>
<event>
 7    1  0.2732144E-009  0.1067699E+03  0.7561462E-02  0.1266671E+00
         -2   -1    0    0    0  501 -0.00000000000E+00  0.00000000000E+00  0.39208883075E+02  0.39208883075E+02  0.00000000000E+00 0.  1.
          2   -1    0    0  501    0  0.00000000000E+00 -0.00000000000E+00 -0.42785402238E+03  0.42785402238E+03  0.00000000000E+00 0. -1.
         25    2    1    2    0    0  0.22249039623E+02 -0.49037679655E+01 -0.98534253280E+02  0.16087465554E+03  0.12511030742E+03 0.  0.
          5    1    3    3  502    0  0.38932516219E+02  0.46868723080E+02 -0.18125267303E+02  0.63705696269E+02  0.41800000000E+01 0.  1.
         -5    1    3    3    0  502 -0.16683476596E+02 -0.51772491045E+02 -0.80408985976E+02  0.97168959273E+02  0.41800000000E+01 0.  1.
        -11    1    1    2    0    0 -0.15978136310E+02 -0.44929477820E+02 -0.14079792333E+03  0.14865400779E+03  0.00000000000E+00 0. -1.
         11    1    1    2    0    0 -0.62709033131E+01  0.49833245785E+02 -0.14931296269E+03  0.15753424213E+03  0.00000000000E+00 0.  1.
</event>
<event>
 7    1  0.2732144E-009  0.2118410E+03  0.7561462E-02  0.1140116E+00
          2   -1    0    0  501    0  0.00000000000E+00  0.00000000000E+00  0.49965454989E+03  0.49965454989E+03  0.00000000000E+00 0.  1.
         -2   -1    0    0    0  501 -0.00000000000E+00 -0.00000000000E+00 -0.14491954798E+03  0.14491954798E+03  0.00000000000E+00 0. -1.
         25    2    1    2    0    0  0.11844333995E+03  0.16087215260E+03  0.10298170485E+02  0.23592605644E+03  0.12508548090E+03 0.  0.
          5    1    3    3  502    0  0.12090261621E+03  0.16798071594E+03 -0.16611697257E+02  0.20767374513E+03  0.41800000000E+01 0. -1.
         -5    1    3    3    0  502 -0.24592762616E+01 -0.71085633337E+01  0.26909867742E+02  0.28252311309E+02  0.41800000000E+01 0. -1.
        -11    1    1    2    0    0 -0.39811344932E+02 -0.10302745655E+03  0.24773799769E+03  0.27124475200E+03  0.00000000000E+00 0.  1.
         11    1    1    2    0    0 -0.78631995014E+02 -0.57844696048E+02  0.96698833730E+02  0.13740328943E+03  0.00000000000E+00 0. -1.
</event>
<event>
 7    1  0.2732144E-009  0.2421682E+03  0.7561462E-02  0.1118357E+00
          2   -1    0    0  501    0  0.00000000000E+00  0.00000000000E+00  0.35706516208E+03  0.35706516208E+03  0.00000000000E+00 0. -1.
         -2   -1    0    0    0  501 -0.00000000000E+00 -0.00000000000E+00 -0.19090234001E+03  0.19090234001E+03  0.00000000000E+00 0.  1.
         25    2    1    2    0    0 -0.15901978866E+03 -0.17527654011E+03  0.10434633283E+03  0.28730604503E+03  0.12508975831E+03 0.  0.
          5    1    3    3  502    0 -0.14991223164E+03 -0.13081630897E+03  0.12733700053E+03  0.23625995850E+03  0.41800000000E+01 0.  1.
         -5    1    3    3    0  502 -0.91075570191E+01 -0.44460231146E+02 -0.22990667695E+02  0.51046086525E+02  0.41800000000E+01 0.  1.
        -11    1    1    2    0    0  0.96013490955E+02  0.77287051719E+02  0.73618685896E+02  0.14356736998E+03  0.00000000000E+00 0. -1.
         11    1    1    2    0    0  0.63006297705E+02  0.97989488393E+02 -0.11802196657E+02  0.11709408709E+03  0.00000000000E+00 0.  1.
</event>
<event>
 7    1  0.2732144E-009  0.9907522E+02  0.7561462E-02  0.1282253E+00
          1   -1    0    0  501    0  0.00000000000E+00  0.00000000000E+00  0.20163600516E+03  0.20163600516E+03  0.00000000000E+00 0. -1.
         -1   -1    0    0    0  501 -0.00000000000E+00 -0.00000000000E+00 -0.69020109863E+02  0.69020109863E+02  0.00000000000E+00 0.  1.
         25    2    1    2    0    0  0.44608667575E+02  0.19090539621E+02  0.85465326503E+02  0.15907985723E+03  0.12509075512E+03 0.  0.
          5    1    3    3  502    0 -0.21765872678E+02  0.25068186364E+02 -0.16412199720E+02  0.37269288706E+02  0.41800000000E+01 0.  1.
         -5    1    3    3    0  502  0.66374540253E+02 -0.59776467428E+01  0.10187752622E+03  0.12181056852E+03  0.41800000000E+01 0.  1.
        -11    1    1    2    0    0 -0.14963754830E+02 -0.51713504989E+02  0.39654311860E+02  0.66863031684E+02  0.00000000000E+00 0.  1.
         11    1    1    2    0    0 -0.29644912745E+02  0.32622965368E+02  0.74962569327E+01  0.44713226108E+02  0.00000000000E+00 0. -1.
</event>
<event>
 7    1  0.2732144E-009  0.2002833E+03  0.7561462E-02  0.1149500E+00
          1   -1    0    0  501    0  0.00000000000E+00  0.00000000000E+00  0.19955207813E+03  0.19955207813E+03  0.00000000000E+00 0. -1.
         -1   -1    0    0    0  501 -0.00000000000E+00 -0.00000000000E+00 -0.22073667314E+03  0.22073667314E+03  0.00000000000E+00 0.  1.
         25    2    1    2    0    0  0.16568382734E+03  0.53681333736E+02 -0.53481992440E+02  0.22099967221E+03  0.12509082847E+03 0.  0.
          5    1    3    3  502    0  0.20589416983E+01  0.49757721108E+02 -0.20326601484E+02  0.53951025743E+02  0.41800000000E+01 0. -1.
         -5    1    3    3    0  502  0.16362488564E+03  0.39236126281E+01 -0.33155390956E+02  0.16704864647E+03  0.41800000000E+01 0. -1.
        -11    1    1    2    0    0 -0.70072011397E+02 -0.58283875619E+02  0.46829084141E+02  0.10246980072E+03  0.00000000000E+00 0. -1.
         11    1    1    2    0    0 -0.95611815944E+02  0.46025418833E+01 -0.14531686706E+02  0.96819278340E+02  0.00000000000E+00 0.  1.
</event>
<event>
 7    1  0.2732144E-009  0.1043089E+03  0.7561462E-02  0.1271487E+00
         -1   -1    0    0    0  501 -0.00000000000E+00  0.00000000000E+00  0.78083803992E+02  0.78083803992E+02  0.00000000000E+00 0.  1.
          1   -1    0    0  501    0  0.00000000000E+00 -0.00000000000E+00 -0.26536010620E+03  0.26536010620E+03  0.00000000000E+00 0. -1.
         25    2    1    2    0    0  0.27311234327E+02 -0.80410754275E+02 -0.19050921475E+03  0.24320535570E+03  0.12507314345E+03 0.  0.
          5    1    3    3  502    0  0.53963563088E+02 -0.39300953238E+02 -0.18121170657E+03  0.19316258971E+03  0.41800000000E+01 0.  1.
         -5    1    3    3    0  502 -0.26652328761E+02 -0.41109801037E+02 -0.92975081870E+01  0.50042765992E+02  0.41800000000E+01 0.  1.
        -11    1    1    2    0    0 -0.33595135123E+02  0.42724018511E+02 -0.17075260286E+02  0.56969635557E+02  0.00000000000E+00 0. -1.
         11    1    1    2    0    0  0.62839007968E+01  0.37686735764E+02  0.20308172832E+02  0.43268918932E+02  0.00000000000E+00 0.  1.
</event>
<event>
 7    1  0.2732144E-009  0.1788849E+03  0.7561462E-02  0.1168887E+00
         -1   -1    0    0    0  501 -0.00000000000E+00  0.00000000000E+00  0.14944253007E+03  0.14944253007E+03  0.00000000000E+00 0.  1.
          1   -1    0    0  501    0  0.00000000000E+00 -0.00000000000E+00 -0.23746721787E+03  0.23746721787E+03  0.00000000000E+00 0. -1.
         25    2    1    2    0    0 -0.85562508286E+02  0.12782850287E+03 -0.33135919709E+02  0.20101150455E+03  0.12508623751E+03 0.  0.
          5    1    3    3  502    0  0.34543428196E+01  0.10208887598E+03  0.81394976566E+00  0.10223603082E+03  0.41800000000E+01 0.  1.
         -5    1    3    3    0  502 -0.89016851106E+02  0.25739626892E+02 -0.33949869475E+02  0.98775473730E+02  0.41800000000E+01 0.  1.
        -11    1    1    2    0    0  0.76328003148E+02 -0.67946544147E+02 -0.69484702857E+02  0.12357516278E+03  0.00000000000E+00 0. -1.
         11    1    1    2    0    0  0.92345051380E+01 -0.59881958723E+02  0.14595934762E+02  0.62323080614E+02  0.00000000000E+00 0.  1.
</event>
<event>
 7    1  0.2732144E-009  0.1405867E+03  0.7561462E-02  0.1212542E+00
         -1   -1    0    0    0  501 -0.00000000000E+00  0.00000000000E+00  0.20252459150E+03  0.20252459150E+03  0.00000000000E+00 0.  1.
          1   -1    0    0  501    0  0.00000000000E+00 -0.00000000000E+00 -0.12087563973E+03  0.12087563973E+03  0.00000000000E+00 0. -1.
         25    2    1    2    0    0 -0.67670160672E+02 -0.69950882850E+02  0.10121441315E+03  0.18806319438E+03  0.12510408065E+03 0.  0.
          5    1    3    3  502    0  0.23500556587E+02  0.15780674045E+02  0.27067539109E+01  0.28742038027E+02  0.41800000000E+01 0.  1.
         -5    1    3    3    0  502 -0.91170717259E+02 -0.85731556895E+02  0.98507659242E+02  0.15932115636E+03  0.41800000000E+01 0.  1.
        -11    1    1    2    0    0 -0.89307556080E+01  0.46327632489E+02  0.12804436631E+02  0.48887232742E+02  0.00000000000E+00 0.  1.
         11    1    1    2    0    0  0.76600916280E+02  0.23623250361E+02 -0.32369898011E+02  0.86449804105E+02  0.00000000000E+00 0. -1.
</event>
<event>
 7    1  0.2732144E-009  0.2007613E+03  0.7561462E-02  0.1149098E+00
         -1   -1    0    0    0  501 -0.00000000000E+00  0.00000000000E+00  0.33971230345E+03  0.33971230345E+03  0.00000000000E+00 0.  1.
          1   -1    0    0  501    0  0.00000000000E+00 -0.00000000000E+00 -0.18923357092E+03  0.18923357092E+03  0.00000000000E+00 0. -1.
         25    2    1    2    0    0 -0.18501511555E+03 -0.13775235663E+02  0.21723590837E+03  0.31186482879E+03  0.12509149233E+03 0.  0.
          5    1    3    3  502    0 -0.16572532836E+01  0.21045477829E+02  0.72560935425E+02  0.75685007599E+02  0.41800000000E+01 0. -1.
         -5    1    3    3    0  502 -0.18335786227E+03 -0.34820713492E+02  0.14467497294E+03  0.23617982119E+03  0.41800000000E+01 0. -1.
        -11    1    1    2    0    0  0.10197280777E+03  0.34642322682E+02  0.13001081425E+01  0.10770438397E+03  0.00000000000E+00 0.  1.
         11    1    1    2    0    0  0.83042307779E+02 -0.20867087019E+02 -0.68057283970E+02  0.10937666160E+03  0.00000000000E+00 0. -1.
</event>
<event>
 7    1  0.2732144E-009  0.2017709E+03  0.7561462E-02  0.1148253E+00
          2   -1    0    0  501    0  0.00000000000E+00  0.00000000000E+00  0.15748326660E+03  0.15748326660E+03  0.00000000000E+00 0. -1.
         -2   -1    0    0    0  501 -0.00000000000E+00 -0.00000000000E+00 -0.29206432927E+03  0.29206432927E+03  0.00000000000E+00 0.  1.
         25    2    1    2    0    0  0.15557356509E+03  0.94719081404E+02 -0.93293388062E+02  0.23984556867E+03  0.12508957598E+03 0.  0.
          5    1    3    3  502    0  0.14589858370E+03  0.53587975243E+02 -0.22233249310E+02  0.15706641140E+03  0.41800000000E+01 0.  1.
         -5    1    3    3    0  502  0.96749813953E+01  0.41131106161E+02 -0.71060138753E+02  0.82779157272E+02  0.41800000000E+01 0.  1.
        -11    1    1    2    0    0 -0.10607582231E+03 -0.88002258634E+01 -0.21201915026E+02  0.10853131002E+03  0.00000000000E+00 0.  1.
         11    1    1    2    0    0 -0.49497742780E+02 -0.85918855541E+02 -0.20085759578E+02  0.10117071718E+03  0.00000000000E+00 0. -1.
</event>
<event>
 7    1  0.2732144E-009  0.1263563E+03  0.7561462E-02  0.1232965E+00
         -1   -1    0    0    0  501 -0.00000000000E+00  0.00000000000E+00  0.62484987543E+03  0.62484987543E+03  0.00000000000E+00 0.  1.
          1   -1    0    0  501    0  0.00000000000E+00 -0.00000000000E+00 -0.28435722830E+02  0.28435722830E+02  0.00000000000E+00 0. -1.
         25    2    1    2    0    0  0.64451385016E+02 -0.38730790153E+02  0.28528329559E+03  0.32044889671E+03  0.12508749547E+03 0.  0.
          5    1    3    3  502    0  0.96673501248E+02 -0.47487619497E+02  0.17882095295E+03  0.20879474481E+03  0.41800000000E+01 0.  1.
         -5    1    3    3    0  502 -0.32222116232E+02  0.87568293438E+01  0.10646234265E+03  0.11165415190E+03  0.41800000000E+01 0.  1.
        -11    1    1    2    0    0 -0.15793245994E+02  0.57114456350E+02  0.22066634891E+03  0.22848440928E+03  0.00000000000E+00 0.  1.
         11    1    1    2    0    0 -0.48658139021E+02 -0.18383666196E+02  0.90464508099E+02  0.10435229227E+03  0.00000000000E+00 0. -1.
</event>
<event>
 7    1  0.2732144E-009  0.1139511E+03  0.7561462E-02  0.1253423E+00
          1   -1    0    0  501    0  0.00000000000E+00  0.00000000000E+00  0.65830866195E+03  0.65830866195E+03  0.00000000000E+00 0. -1.
         -1   -1    0    0    0  501 -0.00000000000E+00 -0.00000000000E+00 -0.40371023824E+02  0.40371023824E+02  0.00000000000E+00 0.  1.
         25    2    1    2    0    0 -0.81342649438E+02  0.67065051265E+02  0.45412969000E+03  0.48269756225E+03  0.12509521790E+03 0.  0.
          5    1    3    3  502    0 -0.15233048235E+01 -0.55330373937E+01 -0.64730878666E+01  0.96077170501E+01  0.41800000000E+01 0. -1.
         -5    1    3    3    0  502 -0.79819344615E+02  0.72598088659E+02  0.46060277787E+03  0.47308984520E+03  0.41800000000E+01 0. -1.
        -11    1    1    2    0    0  0.73188460120E+02 -0.37657718598E+02  0.46009299154E+02  0.94294804064E+02  0.00000000000E+00 0.  1.
         11    1    1    2    0    0  0.81541893175E+01 -0.29407332667E+02  0.11779864897E+03  0.12168731946E+03  0.00000000000E+00 0. -1.
</event>
<event>
 7    1  0.2732144E-009  0.1067240E+03  0.7561462E-02  0.1266760E+00
          1   -1    0    0  501    0  0.00000000000E+00  0.00000000000E+00  0.89924352267E+02  0.89924352267E+02  0.00000000000E+00 0. -1.
         -1   -1    0    0    0  501 -0.00000000000E+00 -0.00000000000E+00 -0.18820893198E+03  0.18820893198E+03  0.00000000000E+00 0.  1.
         25    2    1    2    0    0 -0.44767986685E+02  0.33819080027E+02 -0.52792670736E+01  0.13719961334E+03  0.12509180802E+03 0.  0.
          5    1    3    3  502    0  0.62022639662E+01  0.63532544810E+02  0.27437830164E+02  0.69607178168E+02  0.41800000000E+01 0. -1.
         -5    1    3    3    0  502 -0.50970250652E+02 -0.29713464784E+02 -0.32717097237E+02  0.67592435173E+02  0.41800000000E+01 0. -1.
        -11    1    1    2    0    0 -0.13710197535E+02 -0.28480541017E+02 -0.71888720718E+02  0.78530878637E+02  0.00000000000E+00 0.  1.
         11    1    1    2    0    0  0.58478184221E+02 -0.53385390100E+01 -0.21116591921E+02  0.62402792268E+02  0.00000000000E+00 0. -1.
</event>
<event>
 7    1  0.2732144E-009  0.9537149E+02  0.7561462E-02  0.1290342E+00
          2   -1    0    0  501    0  0.00000000000E+00  0.00000000000E+00  0.34979078521E+03  0.34979078521E+03  0.00000000000E+00 0. -1.
         -2   -1    0    0    0  501 -0.00000000000E+00 -0.00000000000E+00 -0.36716156062E+02  0.36716156062E+02  0.00000000000E+00 0.  1.
         25    2    1    2    0    0  0.29179496402E+02  0.11065831727E+02  0.18421106080E+03  0.22484551498E+03  0.12509154666E+03 0.  0.
          5    1    3    3  502    0 -0.36793080213E+02  0.41593681455E+02  0.70889788279E+02  0.90147654272E+02  0.41800000000E+01 0. -1.
         -5    1    3    3    0  502  0.65972576615E+02 -0.30527849728E+02  0.11332127252E+03  0.13469786071E+03  0.41800000000E+01 0. -1.
        -11    1    1    2    0    0 -0.13101509606E+01  0.20265623167E+02 -0.53904350815E+01  0.21011158185E+02  0.00000000000E+00 0.  1.
         11    1    1    2    0    0 -0.27869345442E+02 -0.31331454895E+02  0.13425400344E+03  0.14065026811E+03  0.00000000000E+00 0. -1.
</event>
<event>
 7    1  0.2732144E-009  0.7890123E+02  0.7561462E-02  0.1332199E+00
         -1   -1    0    0    0  501 -0.00000000000E+00  0.00000000000E+00  0.54363685074E+02  0.54363685074E+02  0.00000000000E+00 0.  1.
          1   -1    0    0  501    0  0.00000000000E+00 -0.00000000000E+00 -0.23500273895E+03  0.23500273895E+03  0.00000000000E+00 0. -1.
         25    2    1    2    0    0  0.26170850013E+02  0.18890321112E+02 -0.11402454127E+03  0.17230925032E+03  0.12508846515E+03 0.  0.
          5    1    3    3  502    0 -0.25233664207E+02 -0.10210751141E+02  0.14262296050E+02  0.31014234422E+02  0.41800000000E+01 0.  1.
         -5    1    3    3    0  502  0.51404514220E+02  0.29101072253E+02 -0.12828683732E+03  0.14129501590E+03  0.41800000000E+01 0.  1.
        -11    1    1    2    0    0 -0.21382961536E+02  0.21528257306E+02  0.85984255011E+01  0.31537752421E+02  0.00000000000E+00 0.  1.
         11    1    1    2    0    0 -0.47878884772E+01 -0.40418578418E+02 -0.75212938104E+02  0.85519421278E+02  0.00000000000E+00 0. -1.
</event>
<event>
 7    1  0.2732144E-009  0.1223622E+03  0.7561462E-02  0.1239250E+00
         -1   -1    0    0    0  501 -0.00000000000E+00  0.00000000000E+00  0.54850449215E+03  0.54850449215E+03  0.00000000000E+00 0.  1.
          1   -1    0    0  501    0  0.00000000000E+00 -0.00000000000E+00 -0.39477918819E+02  0.39477918819E+02  0.00000000000E+00 0. -1.
         25    2    1    2    0    0 -0.96921124574E+02  0.19345952526E+02  0.27198502194E+03  0.31526379329E+03  0.12508971553E+03 0.  0.
          5    1    3    3  502    0 -0.11486539835E+03  0.15414914745E+02  0.13933500198E+03  0.18128263709E+03  0.41800000000E+01 0.  1.
         -5    1    3    3    0  502  0.17944273779E+02  0.39310377810E+01  0.13265001997E+03  0.13398115620E+03  0.41800000000E+01 0.  1.
        -11    1    1    2    0    0  0.28034875007E+01 -0.15464865072E+02 -0.19459200406E+01  0.15836925165E+02  0.00000000000E+00 0. -1.
         11    1    1    2    0    0  0.94117637074E+02 -0.38810874542E+01  0.23898747143E+03  0.25688169251E+03  0.00000000000E+00 0.  1.
</event>
<event>
 7    1  0.2732144E-009  0.1244004E+03  0.7561462E-02  0.1236009E+00
         -1   -1    0    0    0  501 -0.00000000000E+00  0.00000000000E+00  0.42924372052E+02  0.42924372052E+02  0.00000000000E+00 0.  1.
          1   -1    0    0  501    0  0.00000000000E+00 -0.00000000000E+00 -0.51202283829E+03  0.51202283829E+03  0.00000000000E+00 0. -1.
         25    2    1    2    0    0  0.62468405050E+02  0.72573541625E+02 -0.30893334508E+03  0.34677832531E+03  0.12508466984E+03 0.  0.
          5    1    3    3  502    0  0.52023219087E+02  0.10578590745E+03 -0.19842476564E+03  0.23083962736E+03  0.41800000000E+01 0. -1.
         -5    1    3    3    0  502  0.10445185963E+02 -0.33212365822E+02 -0.11050857944E+03  0.11593869795E+03  0.41800000000E+01 0. -1.
        -11    1    1    2    0    0 -0.31035143446E+02 -0.37507700467E+02 -0.15297060158E+03  0.16053041042E+03  0.00000000000E+00 0. -1.
         11    1    1    2    0    0 -0.31433261604E+02 -0.35065841159E+02 -0.71945195785E+01  0.47638474610E+02  0.00000000000E+00 0.  1.
</event>
<event>
 7    1  0.2732144E-009  0.9157291E+02  0.7561462E-02  0.1299087E+00
          1   -1    0    0  501    0  0.00000000000E+00  0.00000000000E+00  0.19353028668E+03  0.19353028668E+03  0.00000000000E+00 0. -1.
         -1   -1    0    0    0  501 -0.00000000000E+00 -0.00000000000E+00 -0.71806394008E+02  0.71806394008E+02  0.00000000000E+00 0.  1.
         25    2    1    2    0    0 -0.17815123326E+00 -0.35028239212E+02  0.10366904801E+03  0.16619961354E+03  0.12509208905E+03 0.  0.
          5    1    3    3  502    0  0.30026452471E+02 -0.44549751524E+02 -0.38613999610E+01  0.54024540891E+02  0.41800000000E+01 0. -1.
         -5    1    3    3    0  502 -0.30204603705E+02  0.95215123117E+01  0.10753044798E+03  0.11217507265E+03  0.41800000000E+01 0. -1.
        -11    1    1    2    0    0  0.63195651005E+01  0.65715777881E+02  0.95508161954E+01  0.66706210022E+02  0.00000000000E+00 0.  1.
         11    1    1    2    0    0 -0.61414138672E+01 -0.30687538668E+02  0.85040284588E+01  0.32430857125E+02  0.00000000000E+00 0. -1.
</event>
<event>
 7    1  0.2732144E-009  0.1281110E+03  0.7561462E-02  0.1230286E+00
          2   -1    0    0  501    0  0.00000000000E+00  0.00000000000E+00  0.35327399587E+02  0.35327399587E+02  0.00000000000E+00 0. -1.
         -2   -1    0    0    0  501 -0.00000000000E+00 -0.00000000000E+00 -0.71165826241E+03  0.71165826241E+03  0.00000000000E+00 0.  1.
         25    2    1    2    0    0 -0.27776483227E+02 -0.10772044263E+03 -0.40115110328E+03  0.43467817138E+03  0.12509068005E+03 0.  0.
          5    1    3    3  502    0  0.19612412673E+02 -0.86660615197E+02 -0.35214596430E+03  0.36320649985E+03  0.41800000000E+01 0.  1.
         -5    1    3    3    0  502 -0.47388895900E+02 -0.21059827434E+02 -0.49005138978E+02  0.71471671538E+02  0.41800000000E+01 0.  1.
        -11    1    1    2    0    0  0.43277924395E+01  0.74264684670E+02 -0.66865764099E+02  0.10002501480E+03  0.00000000000E+00 0. -1.
         11    1    1    2    0    0  0.23448690787E+02  0.33455757960E+02 -0.20831399545E+03  0.21228247582E+03  0.00000000000E+00 0.  1.
</event>
<event>
 7    1  0.2732144E-009  0.1487552E+03  0.7561462E-02  0.1202011E+00
         -2   -1    0    0    0  501 -0.00000000000E+00  0.00000000000E+00  0.45427142172E+03  0.45427142172E+03  0.00000000000E+00 0.  1.
          2   -1    0    0  501    0  0.00000000000E+00 -0.00000000000E+00 -0.54974317036E+02  0.54974317036E+02  0.00000000000E+00 0. -1.
         25    2    1    2    0    0 -0.10366292223E+03  0.30178628700E+02  0.27440498205E+03  0.32031667364E+03  0.12509167103E+03 0.  0.
          5    1    3    3  502    0 -0.12422566435E+03  0.50541823336E+02  0.20504911936E+03  0.24504918963E+03  0.41800000000E+01 0.  1.
         -5    1    3    3    0  502  0.20562742118E+02 -0.20363194636E+02  0.69355862688E+02  0.75267484005E+02  0.41800000000E+01 0.  1.
        -11    1    1    2    0    0  0.61394611626E+02  0.23526810501E+02  0.30720418354E+02  0.72571022129E+02  0.00000000000E+00 0. -1.
         11    1    1    2    0    0  0.42268310605E+02 -0.53705439201E+02  0.94171704279E+02  0.11635804299E+03  0.00000000000E+00 0.  1.
</event>
<event>
 7    1  0.2732144E-009  0.2728316E+03  0.7561462E-02  0.1099670E+00
          2   -1    0    0  501    0  0.00000000000E+00  0.00000000000E+00  0.43641439162E+03  0.43641439162E+03  0.00000000000E+00 0. -1.
         -2   -1    0    0    0  501 -0.00000000000E+00 -0.00000000000E+00 -0.19161206823E+03  0.19161206823E+03  0.00000000000E+00 0.  1.
         25    2    1    2    0    0  0.20322529139E+03  0.16213696179E+03  0.55433999956E+02  0.29378799676E+03  0.12509814248E+03 0.  0.
          5    1    3    3  502    0 -0.70170779198E+00 -0.97303509589E+01  0.22704498345E+02  0.25062696757E+02  0.41800000000E+01 0.  1.
         -5    1    3    3    0  502  0.20392699918E+03  0.17186731275E+03  0.32729501611E+02  0.26872530001E+03  0.41800000000E+01 0.  1.
        -11    1    1    2    0    0 -0.11864083385E+03 -0.52205813091E+02  0.53978906978E+02  0.14040946113E+03  0.00000000000E+00 0.  1.
         11    1    1    2    0    0 -0.84584457542E+02 -0.10993114870E+03  0.13538941646E+03  0.19382900196E+03  0.00000000000E+00 0. -1.
</event>
<event>
 7    1  0.2732144E-009  0.9398335E+02  0.7561462E-02  0.1293482E+00
          1   -1    0    0  501    0  0.00000000000E+00  0.00000000000E+00  0.41667045232E+03  0.41667045232E+03  0.00000000000E+00 0.  1.
         -1   -1    0    0    0  501 -0.00000000000E+00 -0.00000000000E+00 -0.33842190424E+02  0.33842190424E+02  0.00000000000E+00 0. -1.
         25    2    1    2    0    0  0.45513181197E+02  0.53644688798E+02  0.17835538134E+03  0.22893188983E+03  0.12509982345E+03 0.  0.
          5    1    3    3  502    0 -0.13282511650E+02 -0.11502952870E+02  0.12467099638E+03  0.12597250802E+03  0.41800000000E+01 0.  1.
         -5    1    3    3    0  502  0.58795692847E+02  0.65147641668E+02  0.53684384967E+02  0.10295938180E+03  0.41800000000E+01 0.  1.
        -11    1    1    2    0    0 -0.30937622897E+02 -0.50889540463E+01  0.10979875239E+03  0.11418756495E+03  0.00000000000E+00 0.  1.
         11    1    1    2    0    0 -0.14575558300E+02 -0.48555734751E+02  0.94674128168E+02  0.10739318797E+03  0.00000000000E+00 0. -1.
</event>
<event>
 7    1  0.2732144E-009  0.1557423E+03  0.7561462E-02  0.1193589E+00
          2   -1    0    0  501    0  0.00000000000E+00  0.00000000000E+00  0.11734802789E+03  0.11734802789E+03  0.00000000000E+00 0. -1.
         -2   -1    0    0    0  501 -0.00000000000E+00 -0.00000000000E+00 -0.29126250465E+03  0.29126250465E+03  0.00000000000E+00 0.  1.
         25    2    1    2    0    0  0.11412328045E+03 -0.75372918324E+02 -0.15738142779E+03  0.24314998533E+03  0.12509117314E+03 0.  0.
          5    1    3    3  502    0  0.69796502410E+02 -0.13509777289E+02 -0.15064973995E+03  0.16663397726E+03  0.41800000000E+01 0. -1.
         -5    1    3    3    0  502  0.44326778037E+02 -0.61863141034E+02 -0.67316878389E+01  0.76516008070E+02  0.41800000000E+01 0. -1.
        -11    1    1    2    0    0 -0.67203444347E+02  0.92297619377E+02 -0.50858229835E+01  0.11428481557E+03  0.00000000000E+00 0.  1.
         11    1    1    2    0    0 -0.46919836101E+02 -0.16924701053E+02 -0.11447225993E+02  0.51175731635E+02  0.00000000000E+00 0. -1.
</event>
<event>
 7    1  0.2732144E-009  0.1308421E+03  0.7561462E-02  0.1226212E+00
         -2   -1    0    0    0  501 -0.00000000000E+00  0.00000000000E+00  0.51159178549E+02  0.51159178549E+02  0.00000000000E+00 0.  1.
          2   -1    0    0  501    0  0.00000000000E+00 -0.00000000000E+00 -0.52911689276E+03  0.52911689276E+03  0.00000000000E+00 0. -1.
         25    2    1    2    0    0 -0.87614171189E+02 -0.78453919346E+02 -0.18905380157E+03  0.25538715886E+03  0.12509996232E+03 0.  0.
          5    1    3    3  502    0 -0.25016116341E+02  0.88003340738E+01  0.10426652166E+02  0.28799990138E+02  0.41800000000E+01 0.  1.
         -5    1    3    3    0  502 -0.62598054848E+02 -0.87254253420E+02 -0.19948045373E+03  0.22658716873E+03  0.41800000000E+01 0.  1.
        -11    1    1    2    0    0  0.13324547277E+02  0.43070661178E+02 -0.19450066108E+03  0.19965753823E+03  0.00000000000E+00 0. -1.
         11    1    1    2    0    0  0.74289623912E+02  0.35383258167E+02 -0.94403251568E+02  0.12523137421E+03  0.00000000000E+00 0.  1.
</event>
<event>
 7    1  0.2732144E-009  0.1410876E+03  0.7561462E-02  0.1211873E+00
          3   -1    0    0  501    0  0.00000000000E+00  0.00000000000E+00  0.15227566439E+03  0.15227566439E+03  0.00000000000E+00 0. -1.
         -3   -1    0    0    0  501 -0.00000000000E+00 -0.00000000000E+00 -0.16469107802E+03  0.16469107802E+03  0.00000000000E+00 0.  1.
         25    2    1    2    0    0 -0.80985301287E+02 -0.83806054686E+02 -0.17859512450E+02  0.17189640845E+03  0.12508932499E+03 0.  0.
          5    1    3    3  502    0 -0.10656152146E+03 -0.52043083590E+02 -0.40101221975E+02  0.12525741818E+03  0.41800000000E+01 0.  1.
         -5    1    3    3    0  502  0.25576220171E+02 -0.31762971096E+02  0.22241709525E+02  0.46638990273E+02  0.41800000000E+01 0.  1.
        -11    1    1    2    0    0  0.19473187249E+02  0.46900980127E+02  0.40757207690E+02  0.65115719586E+02  0.00000000000E+00 0. -1.
         11    1    1    2    0    0  0.61512114037E+02  0.36905074560E+02 -0.35313108869E+02  0.79954614373E+02  0.00000000000E+00 0.  1.
</event>
<event>
 7    1  0.2732144E-009  0.1038161E+03  0.7561462E-02  0.1272470E+00
          2   -1    0    0  501    0  0.00000000000E+00  0.00000000000E+00  0.16218705012E+03  0.16218705012E+03  0.00000000000E+00 0. -1.
         -2   -1    0    0    0  501 -0.00000000000E+00 -0.00000000000E+00 -0.11556452337E+03  0.11556452337E+03  0.00000000000E+00 0.  1.
         25    2    1    2    0    0  0.82160659588E+02  0.16449703845E+02  0.25666531919E+02  0.15273347292E+03  0.12509107142E+03 0.  0.
          5    1    3    3  502    0  0.38120116668E+02 -0.37690936006E+02 -0.31591220656E+02  0.62363671911E+02  0.41800000000E+01 0. -1.
         -5    1    3    3    0  502  0.44040542920E+02  0.54140639851E+02  0.57257752575E+02  0.90369801007E+02  0.41800000000E+01 0. -1.
        -11    1    1    2    0    0 -0.17225525606E+02 -0.55844646656E+01 -0.34482530649E+02  0.38948041003E+02  0.00000000000E+00 0.  1.
         11    1    1    2    0    0 -0.64935133982E+02 -0.10865239180E+02  0.55438525478E+02  0.86070059573E+02  0.00000000000E+00 0. -1.
</event>
<event>
 7    1  0.2732144E-009  0.1576104E+03  0.7561462E-02  0.1191421E+00
          1   -1    0    0  501    0  0.00000000000E+00  0.00000000000E+00  0.10976785694E+04  0.10976785694E+04  0.00000000000E+00 0. -1.
         -1   -1    0    0    0  501 -0.00000000000E+00 -0.00000000000E+00 -0.34133951284E+02  0.34133951284E+02  0.00000000000E+00 0.  1.
         25    2    1    2    0    0 -0.19267160264E+02 -0.14068584754E+03  0.34392058627E+03  0.39254736924E+03  0.12509331025E+03 0.  0.
          5    1    3    3  502    0  0.56453900812E+00 -0.11622196290E+03  0.34141585404E+03  0.36068008145E+03  0.41800000000E+01 0.  1.
         -5    1    3    3    0  502 -0.19831699272E+02 -0.24463884640E+02  0.25047322386E+01  0.31867287793E+02  0.41800000000E+01 0.  1.
        -11    1    1    2    0    0 -0.30694045203E+02  0.93587020857E+02  0.47985538896E+03  0.48985900951E+03  0.00000000000E+00 0. -1.
         11    1    1    2    0    0  0.49961205467E+02  0.47098826685E+02  0.23976864293E+03  0.24940614198E+03  0.00000000000E+00 0.  1.
</event>
<event>
 7    1  0.2732144E-009  0.1985907E+03  0.7561462E-02  0.1150933E+00
          2   -1    0    0  501    0  0.00000000000E+00  0.00000000000E+00  0.77517573971E+03  0.77517573971E+03  0.00000000000E+00 0. -1.
         -2   -1    0    0    0  501 -0.00000000000E+00 -0.00000000000E+00 -0.65166773706E+02  0.65166773706E+02  0.00000000000E+00 0.  1.
         25    2    1    2    0    0  0.55511257358E+02  0.18678612623E+03  0.41285112091E+03  0.47335334256E+03  0.12508709859E+03 0.  0.
          5    1    3    3  502    0  0.45177009588E+02  0.78142839719E+02  0.72316661705E+02  0.11573434043E+03  0.41800000000E+01 0.  1.
         -5    1    3    3    0  502  0.10334247770E+02  0.10864328651E+03  0.34053445920E+03  0.35761900213E+03  0.41800000000E+01 0.  1.
        -11    1    1    2    0    0 -0.59852304383E+02 -0.16849235305E+03  0.29869516252E+03  0.34812464936E+03  0.00000000000E+00 0.  1.
         11    1    1    2    0    0  0.43410470247E+01 -0.18293773180E+02 -0.15373174285E+01  0.18864521497E+02  0.00000000000E+00 0. -1.
</event>
<event>
 7    1  0.2732144E-009  0.4996039E+02  0.7561462E-02  0.1445555E+00
          1   -1    0    0  501    0  0.00000000000E+00  0.00000000000E+00  0.13204642897E+03  0.13204642897E+03  0.00000000000E+00 0. -1.
         -1   -1    0    0    0  501 -0.00000000000E+00 -0.00000000000E+00 -0.15829986449E+03  0.15829986449E+03  0.00000000000E+00 0.  1.
         25    2    1    2    0    0 -0.27242830499E+02 -0.77173742869E+01  0.76315699004E+02  0.14924138965E+03  0.12508867571E+03 0.  0.
          5    1    3    3  502    0  0.11338512155E+02  0.12888018540E+02 -0.29657167112E+02  0.34520759564E+02  0.41800000000E+01 0. -1.
         -5    1    3    3    0  502 -0.38581342654E+02 -0.20605392827E+02  0.10597286612E+03  0.11472063009E+03  0.41800000000E+01 0. -1.
        -11    1    1    2    0    0  0.37234106525E+01  0.13575711932E+02  0.15287616730E+02  0.20781601638E+02  0.00000000000E+00 0. -1.
         11    1    1    2    0    0  0.23519419847E+02 -0.58583376451E+01 -0.11785675125E+03  0.12032330217E+03  0.00000000000E+00 0.  1.
</event>
<event>
 7    1  0.2732144E-009  0.1013348E+03  0.7561462E-02  0.1277514E+00
         -2   -1    0    0    0  501 -0.00000000000E+00  0.00000000000E+00  0.86337798047E+02  0.86337798047E+02  0.00000000000E+00 0.  1.
          2   -1    0    0  501    0  0.00000000000E+00 -0.00000000000E+00 -0.22696548160E+03  0.22696548160E+03  0.00000000000E+00 0. -1.
         25    2    1    2    0    0 -0.57952007263E+02  0.61871753177E+02 -0.47030065753E+02  0.15824268816E+03  0.12506946983E+03 0.  0.
          5    1    3    3  502    0 -0.19614994070E+02  0.30640812962E+02 -0.87083924951E+02  0.94470576352E+02  0.41800000000E+01 0. -1.
         -5    1    3    3    0  502 -0.38337013193E+02  0.31230940215E+02  0.40053859198E+02  0.63772111804E+02  0.41800000000E+01 0. -1.
        -11    1    1    2    0    0 -0.17058359669E+02 -0.30850656064E+02 -0.62196507760E+01  0.35797132147E+02  0.00000000000E+00 0.  1.
         11    1    1    2    0    0  0.75010366932E+02 -0.31021097113E+02 -0.87377967024E+02  0.11926345934E+03  0.00000000000E+00 0. -1.
</event>
<event>
 6    1  0.2732144E-009  0.8669134E+02  0.7561462E-02  0.1311068E+00
         -2   -1    0    0    0  501 -0.00000000000E+00  0.00000000000E+00  0.22063354226E+03  0.22063354226E+03  0.00000000000E+00 0.  1.
          2   -1    0    0  501    0  0.00000000000E+00 -0.00000000000E+00 -0.54189738224E+02  0.54189738224E+02  0.00000000000E+00 0. -1.
          5    1    1    2  502    0 -0.49815766888E+02  0.24303095850E+02  0.86169468283E+02  0.10254219016E+03  0.41800000000E+01 0. -1.
         -5    1    1    2    0  502  0.34754435990E+02 -0.29728584795E+02 -0.70087133606E+01  0.46457012796E+02  0.41800000000E+01 0. -1.
        -11    1    1    2    0    0 -0.42799710272E+01  0.35695154639E+02  0.53294125866E+01  0.36343704478E+02  0.00000000000E+00 0. -1.
         11    1    1    2    0    0  0.19341301926E+02 -0.30269665693E+02  0.81953636524E+02  0.89480373048E+02  0.00000000000E+00 0.  1.
</event>
<event>
 7    1  0.2732144E-009  0.1223212E+03  0.7561462E-02  0.1239316E+00
          2   -1    0    0  501    0  0.00000000000E+00  0.00000000000E+00  0.13995398328E+02  0.13995398328E+02  0.00000000000E+00 0. -1.
         -2   -1    0    0    0  501 -0.00000000000E+00 -0.00000000000E+00 -0.13412004092E+04  0.13412004092E+04  0.00000000000E+00 0.  1.
         25    2    1    2    0    0 -0.77930374743E+02  0.11312386368E+01 -0.87796117663E+03  0.89024610069E+03  0.12509144297E+03 0.  0.
          5    1    3    3  502    0 -0.14676044490E+02 -0.57950774614E+02 -0.31417931586E+03  0.31984338898E+03  0.41800000000E+01 0.  1.
         -5    1    3    3    0  502 -0.63254330252E+02  0.59082013251E+02 -0.56378186077E+03  0.57040271171E+03  0.41800000000E+01 0.  1.
        -11    1    1    2    0    0  0.54798582100E+01 -0.21993376454E+02 -0.23757754352E+02  0.32835473892E+02  0.00000000000E+00 0. -1.
         11    1    1    2    0    0  0.72450516533E+02  0.20862137817E+02 -0.42548607984E+03  0.43211423290E+03  0.00000000000E+00 0.  1.
</event>
<event>
 7    1  0.2732144E-009  0.7415140E+02  0.7561462E-02  0.1346519E+00
          1   -1    0    0  501    0  0.00000000000E+00  0.00000000000E+00  0.44955946627E+02  0.44955946627E+02  0.00000000000E+00 0. -1.
         -1   -1    0    0    0  501 -0.00000000000E+00 -0.00000000000E+00 -0.33577822893E+03  0.33577822893E+03  0.00000000000E+00 0.  1.
         25    2    1    2    0    0  0.57508714610E+01  0.51318144730E+02 -0.20728060687E+03  0.24754795827E+03  0.12509243445E+03 0.  0.
          5    1    3    3  502    0  0.26324544480E+01  0.28725905953E+02 -0.21943958585E+03  0.22136691652E+03  0.41800000000E+01 0. -1.
         -5    1    3    3    0  502  0.31184170130E+01  0.22592238778E+02  0.12158978977E+02  0.26181041756E+02  0.41800000000E+01 0. -1.
        -11    1    1    2    0    0  0.78994869686E+01 -0.71318313183E+02 -0.81943022100E+02  0.10891906427E+03  0.00000000000E+00 0.  1.
         11    1    1    2    0    0 -0.13650358430E+02  0.20000168453E+02 -0.15986533332E+01  0.24267153024E+02  0.00000000000E+00 0. -1.
</event>
<event>
 7    1  0.2732144E-009  0.9388583E+02  0.7561462E-02  0.1293705E+00
         -1   -1    0    0    0  501 -0.00000000000E+00  0.00000000000E+00  0.31389947089E+02  0.31389947089E+02  0.00000000000E+00 0.  1.
          1   -1    0    0  501    0  0.00000000000E+00 -0.00000000000E+00 -0.53340148500E+03  0.53340148500E+03  0.00000000000E+00 0. -1.
         25    2    1    2    0    0  0.25824214730E+02  0.21224968557E+02 -0.14459795764E+03  0.19409643640E+03  0.12508983937E+03 0.  0.
          5    1    3    3  502    0 -0.31554421841E+02  0.20355191130E+02 -0.12909062575E+03  0.13450604968E+03  0.41800000000E+01 0.  1.
         -5    1    3    3    0  502  0.57378636571E+02  0.86977742679E+00 -0.15507331895E+02  0.59590386724E+02  0.41800000000E+01 0.  1.
        -11    1    1    2    0    0  0.22946681011E+02 -0.34929422643E+02 -0.10065539618E+03  0.10898680432E+03  0.00000000000E+00 0.  1.
         11    1    1    2    0    0 -0.48770895741E+02  0.13704454086E+02 -0.25675818408E+03  0.26170819136E+03  0.00000000000E+00 0. -1.
</event>
<event>
 7    1  0.2732144E-009  0.7753263E+02  0.7561462E-02  0.1336203E+00
         -1   -1    0    0    0  501 -0.00000000000E+00  0.00000000000E+00  0.70251645139E+02  0.70251645139E+02  0.00000000000E+00 0.  1.
          1   -1    0    0  501    0  0.00000000000E+00 -0.00000000000E+00 -0.22028700852E+03  0.22028700852E+03  0.00000000000E+00 0. -1.
         25    2    1    2    0    0 -0.31359092248E+02 -0.48542366272E+02 -0.98718365206E+02  0.16950995367E+03  0.12509418362E+03 0.  0.
          5    1    3    3  502    0  0.12142543999E+02 -0.47526218908E+02  0.11830427952E+02  0.50632146745E+02  0.41800000000E+01 0.  1.
         -5    1    3    3    0  502 -0.43501636247E+02 -0.10161473640E+01 -0.11054879316E+03  0.11887780693E+03  0.41800000000E+01 0.  1.
        -11    1    1    2    0    0  0.13914995199E+02  0.43009165160E+01  0.26263938737E+02  0.30031973832E+02  0.00000000000E+00 0.  1.
         11    1    1    2    0    0  0.17444097049E+02  0.44241449756E+02 -0.77580936909E+02  0.90996726150E+02  0.00000000000E+00 0. -1.
</event>
<event>
 7    1  0.2732144E-009  0.1925692E+03  0.7561462E-02  0.1156164E+00
         -2   -1    0    0    0  501 -0.00000000000E+00  0.00000000000E+00  0.31062387448E+02  0.31062387448E+02  0.00000000000E+00 0. -1.
          2   -1    0    0  501    0  0.00000000000E+00 -0.00000000000E+00 -0.13285241360E+04  0.13285241360E+04  0.00000000000E+00 0.  1.
         25    2    1    2    0    0  0.43324970373E+02  0.16394176489E+03 -0.67257374317E+03  0.70481002744E+03  0.12509108460E+03 0.  0.
          5    1    3    3  502    0  0.77108015478E+02  0.15804249175E+03 -0.54835912971E+03  0.57588044140E+03  0.41800000000E+01 0. -1.
         -5    1    3    3    0  502 -0.33783045105E+02  0.58992731403E+01 -0.12421461346E+03  0.12892958604E+03  0.41800000000E+01 0. -1.
        -11    1    1    2    0    0 -0.75402888577E+00 -0.84990595287E+02 -0.15859087276E+03  0.17993063878E+03  0.00000000000E+00 0. -1.
         11    1    1    2    0    0 -0.42570941487E+02 -0.78951169602E+02 -0.46629713266E+03  0.47484585727E+03  0.00000000000E+00 0.  1.
</event>
<event>
 7    1  0.2732144E-009  0.6498706E+02  0.7561462E-02  0.1378020E+00
         -1   -1    0    0    0  501 -0.00000000000E+00  0.00000000000E+00  0.42655749943E+02  0.42655749943E+02  0.00000000000E+00 0.  1.
          1   -1    0    0  501    0  0.00000000000E+00 -0.00000000000E+00 -0.34611030939E+03  0.34611030939E+03  0.00000000000E+00 0. -1.
         25    2    1    2    0    0 -0.14666158543E+02 -0.19440187826E+02 -0.24721205260E+03  0.27812391579E+03  0.12508435743E+03 0.  0.
          5    1    3    3  502    0 -0.32094498719E+02  0.18816633403E+02 -0.12245659429E+02  0.39389733630E+02  0.41800000000E+01 0.  1.
         -5    1    3    3    0  502  0.17428340176E+02 -0.38256821229E+02 -0.23496639317E+03  0.23873418216E+03  0.41800000000E+01 0.  1.
        -11    1    1    2    0    0 -0.69594656370E+01 -0.10959416286E+02  0.21098885545E+02  0.24773088999E+02  0.00000000000E+00 0.  1.
         11    1    1    2    0    0  0.21625624180E+02  0.30399604112E+02 -0.77341392391E+02  0.85869054544E+02  0.00000000000E+00 0. -1.
</event>
<event>
 7    1  0.2732144E-009  0.1136215E+03  0.7561462E-02  0.1254007E+00
         -2   -1    0    0    0  501 -0.00000000000E+00  0.00000000000E+00  0.10389595727E+03  0.10389595727E+03  0.00000000000E+00 0.  1.
          2   -1    0    0  501    0  0.00000000000E+00 -0.00000000000E+00 -0.20951235337E+03  0.20951235337E+03  0.00000000000E+00 0. -1.
         25    2    1    2    0    0  0.74121500236E+02  0.51527129491E+02 -0.14319526602E+02  0.15492716061E+03  0.12509330271E+03 0.  0.
          5    1    3    3  502    0 -0.20428863520E+01 -0.18831087686E+02 -0.43077634467E+02  0.47243393606E+02  0.41800000000E+01 0. -1.
         -5    1    3    3    0  502  0.76164386588E+02  0.70358217177E+02  0.28758107866E+02  0.10768376701E+03  0.41800000000E+01 0. -1.
        -11    1    1    2    0    0 -0.67187789118E+02 -0.17614039966E+02 -0.10095781076E+03  0.12254359617E+03  0.00000000000E+00 0. -1.
         11    1    1    2    0    0 -0.69337111180E+01 -0.33913089526E+02  0.96609412551E+01  0.35937553854E+02  0.00000000000E+00 0.  1.
</event>
<event>
 7    1  0.3004202E-009  0.1334722E+03  0.7561462E-02  0.1222393E+00
          2   -1    0    0  501    0  0.00000000000E+00  0.00000000000E+00  0.25173610371E+03  0.25173610371E+03  0.00000000000E+00 0. -1.
         -2   -1    0    0    0  501 -0.00000000000E+00 -0.00000000000E+00 -0.91965028398E+02  0.91965028398E+02  0.00000000000E+00 0.  1.
         25    2    1    2    0    0 -0.92136334296E+02 -0.44055151007E+02  0.11996290921E+03  0.20117310788E+03  0.12509819871E+03 0.  0.
          5    1    3    3  502    0 -0.10945594937E+03 -0.24273080716E+02  0.43711055728E+02  0.12040729252E+03  0.41800000000E+01 0.  1.
         -5    1    3    3    0  502  0.17319615074E+02 -0.19782070291E+02  0.76251853482E+02  0.80765815360E+02  0.41800000000E+01 0.  1.
        -11    1    1    2    0    0  0.31732779766E+02  0.58020951575E+02 -0.45626718072E+01  0.66288898824E+02  0.00000000000E+00 0.  1.
         11    1    1    2    0    0  0.60403554530E+02 -0.13965800568E+02  0.44370837913E+02  0.76239125405E+02  0.00000000000E+00 0. -1.
</event>
<event>
 7    1  0.2732144E-009  0.6512071E+02  0.7561462E-02  0.1377518E+00
          3   -1    0    0  501    0  0.00000000000E+00  0.00000000000E+00  0.10214520412E+03  0.10214520412E+03  0.00000000000E+00 0. -1.
         -3   -1    0    0    0  501 -0.00000000000E+00 -0.00000000000E+00 -0.20841572479E+03  0.20841572479E+03  0.00000000000E+00 0.  1.
         25    2    1    2    0    0  0.93096739903E+01  0.31480362312E+02 -0.15305537305E+03  0.20037568271E+03  0.12508710469E+03 0.  0.
          5    1    3    3  502    0  0.45794164489E+02 -0.27720893280E+01 -0.14154854238E+03  0.14885648199E+03  0.41800000000E+01 0. -1.
         -5    1    3    3    0  502 -0.36484490498E+02  0.34252451640E+02 -0.11506830665E+02  0.51519200714E+02  0.41800000000E+01 0. -1.
        -11    1    1    2    0    0 -0.10269560597E+02 -0.20451461730E+02  0.75773849011E+02  0.79154294613E+02  0.00000000000E+00 0. -1.
         11    1    1    2    0    0  0.95988660661E+00 -0.11028900582E+02 -0.28988996636E+02  0.31030951586E+02  0.00000000000E+00 0.  1.
</event>
<event>
 7    1  0.2732144E-009  0.1867197E+03  0.7561462E-02  0.1161454E+00
          2   -1    0    0  501    0  0.00000000000E+00  0.00000000000E+00  0.23919045336E+03  0.23919045336E+03  0.00000000000E+00 0. -1.
         -2   -1    0    0    0  501 -0.00000000000E+00 -0.00000000000E+00 -0.16355696404E+03  0.16355696404E+03  0.00000000000E+00 0.  1.
         25    2    1    2    0    0  0.89645414532E+02  0.13706457770E+03  0.16347046547E+02  0.20672999107E+03  0.12508822675E+03 0.  0.
          5    1    3    3  502    0  0.87283571470E+02  0.20970119124E+02  0.55517464799E+01  0.90035893030E+02  0.41800000000E+01 0. -1.
         -5    1    3    3    0  502  0.23618430613E+01  0.11609445857E+03  0.10795300067E+02  0.11669409804E+03  0.41800000000E+01 0. -1.
        -11    1    1    2    0    0 -0.15639046152E+02 -0.53585133385E+02 -0.19843448345E+02  0.59242794724E+02  0.00000000000E+00 0.  1.
         11    1    1    2    0    0 -0.74006368379E+02 -0.83479444311E+02  0.79129891122E+02  0.13677463161E+03  0.00000000000E+00 0. -1.
</event>
<event>
 7    1  0.2732144E-009  0.9657509E+02  0.7561462E-02  0.1287667E+00
          2   -1    0    0  501    0  0.00000000000E+00  0.00000000000E+00  0.14158599797E+03  0.14158599797E+03  0.00000000000E+00 0. -1.
         -2   -1    0    0    0  501 -0.00000000000E+00 -0.00000000000E+00 -0.95694121550E+02  0.95694121550E+02  0.00000000000E+00 0.  1.
         25    2    1    2    0    0  0.12353912800E+02 -0.40344602475E+02  0.18811908331E+02  0.13334494700E+03  0.12508669348E+03 0.  0.
          5    1    3    3  502    0 -0.44498511870E+02 -0.39956794783E+02 -0.21319144383E+02  0.63628934654E+02  0.41800000000E+01 0. -1.
         -5    1    3    3    0  502  0.56852424670E+02 -0.38780769244E+00  0.40131052714E+02  0.69716012347E+02  0.41800000000E+01 0. -1.
        -11    1    1    2    0    0  0.35861907602E+01  0.54653795609E+02  0.48852136116E+02  0.73392297564E+02  0.00000000000E+00 0. -1.
         11    1    1    2    0    0 -0.15940103560E+02 -0.14309193134E+02 -0.21772168031E+02  0.30542874953E+02  0.00000000000E+00 0.  1.
</event>
<event>
 7    1  0.2732144E-009  0.1001840E+03  0.7561462E-02  0.1279910E+00
         -1   -1    0    0    0  501 -0.00000000000E+00  0.00000000000E+00  0.26412915214E+02  0.26412915214E+02  0.00000000000E+00 0.  1.
          1   -1    0    0  501    0  0.00000000000E+00 -0.00000000000E+00 -0.89497058979E+03  0.89497058979E+03  0.00000000000E+00 0. -1.
         25    2    1    2    0    0 -0.76971443895E+02  0.11359612692E+02 -0.70593479367E+03  0.72114153685E+03  0.12509012463E+03 0.  0.
          5    1    3    3  502    0 -0.95592124838E+02  0.10172446119E+02 -0.30649702344E+03  0.32124637082E+03  0.41800000000E+01 0.  1.
         -5    1    3    3    0  502  0.18620680942E+02  0.11871665729E+01 -0.39943777023E+03  0.39989516603E+03  0.41800000000E+01 0.  1.
        -11    1    1    2    0    0  0.23762236093E+02 -0.20073735430E+02 -0.13710669588E+03  0.14059105510E+03  0.00000000000E+00 0. -1.
         11    1    1    2    0    0  0.53209207802E+02  0.87141227376E+01 -0.25516185024E+02  0.59650913054E+02  0.00000000000E+00 0.  1.
</event>
<event>
 7    1  0.2732144E-009  0.1829711E+03  0.7561462E-02  0.1164958E+00
         -2   -1    0    0    0  501 -0.00000000000E+00  0.00000000000E+00  0.18066673548E+03  0.18066673548E+03  0.00000000000E+00 0.  1.
          2   -1    0    0  501    0  0.00000000000E+00 -0.00000000000E+00 -0.22041699110E+03  0.22041699110E+03  0.00000000000E+00 0. -1.
         25    2    1    2    0    0 -0.54677129466E+02  0.14133862321E+03 -0.91785559871E+02  0.21688411668E+03  0.12509171104E+03 0.  0.
          5    1    3    3  502    0  0.16335722044E+02  0.11928785880E+03 -0.69791826038E+02  0.13922938071E+03  0.41800000000E+01 0. -1.
         -5    1    3    3    0  502 -0.71012851510E+02  0.22050764410E+02 -0.21993733832E+02  0.77654735970E+02  0.41800000000E+01 0. -1.
        -11    1    1    2    0    0  0.68318261228E+02 -0.67981630789E+02  0.52153439304E+02  0.10958498151E+03  0.00000000000E+00 0.  1.
         11    1    1    2    0    0 -0.13641131762E+02 -0.73356992419E+02 -0.11813505171E+00  0.74614628380E+02  0.00000000000E+00 0. -1.
</event>
<event>
 7    1  0.2732144E-009  0.1380430E+03  0.7561462E-02  0.1215987E+00
         -2   -1    0    0    0  501 -0.00000000000E+00  0.00000000000E+00  0.20315015865E+03  0.20315015865E+03  0.00000000000E+00 0.  1.
          2   -1    0    0  501    0  0.00000000000E+00 -0.00000000000E+00 -0.47185458662E+03  0.47185458662E+03  0.00000000000E+00 0. -1.
         25    2    1    2    0    0  0.98865288873E+02 -0.80123699441E+02  0.14712291684E+03  0.23127208580E+03  0.12508985752E+03 0.  0.
          5    1    3    3  502    0  0.75188289581E+02 -0.87951641659E+02  0.42026260390E+02  0.12317649582E+03  0.41800000000E+01 0. -1.
         -5    1    3    3    0  502  0.23676999292E+02  0.78279422181E+01  0.10509665645E+03  0.10809558998E+03  0.41800000000E+01 0. -1.
        -11    1    1    2    0    0 -0.65289942445E+02  0.23895185717E+02 -0.10397683772E+03  0.12507973164E+03  0.00000000000E+00 0.  1.
         11    1    1    2    0    0 -0.33575346428E+02  0.56228513724E+02 -0.31185050709E+03  0.31865292783E+03  0.00000000000E+00 0. -1.
</event>
<event>
 7    1  0.2732144E-009  0.1308726E+03  0.7561462E-02  0.1226167E+00
         -3   -1    0    0    0  501 -0.00000000000E+00  0.00000000000E+00  0.92177819617E+03  0.92177819617E+03  0.00000000000E+00 0.  1.
          3   -1    0    0  501    0  0.00000000000E+00 -0.00000000000E+00 -0.19019447537E+02  0.19019447537E+02  0.00000000000E+00 0. -1.
         25    2    1    2    0    0 -0.64304992224E+02  0.34480803017E+02  0.49160151312E+03  0.51248616852E+03  0.12508384158E+03 0.  0.
          5    1    3    3  502    0 -0.80875277385E+02 -0.23024920778E+02  0.26323325592E+03  0.27636963815E+03  0.41800000000E+01 0.  1.
         -5    1    3    3    0  502  0.16570285161E+02  0.57505723794E+02  0.22836825719E+03  0.23611653037E+03  0.41800000000E+01 0.  1.
        -11    1    1    2    0    0  0.67113800716E+02 -0.61120190690E+02  0.27661360962E+03  0.29112716978E+03  0.00000000000E+00 0.  1.
         11    1    1    2    0    0 -0.28088084923E+01  0.26639387674E+02  0.13454362590E+03  0.13718430541E+03  0.00000000000E+00 0. -1.
</event>
<event>
 7    1  0.2732144E-009  0.1620850E+03  0.7561462E-02  0.1186363E+00
          2   -1    0    0  501    0  0.00000000000E+00  0.00000000000E+00  0.48385864303E+03  0.48385864303E+03  0.00000000000E+00 0. -1.
         -2   -1    0    0    0  501 -0.00000000000E+00 -0.00000000000E+00 -0.61054106602E+02  0.61054106602E+02  0.00000000000E+00 0.  1.
         25    2    1    2    0    0  0.42801932229E+01  0.13171362121E+03  0.20357659419E+03  0.27286948349E+03  0.12509007655E+03 0.  0.
          5    1    3    3  502    0 -0.21881969422E+02 -0.11918989701E+02  0.40347454985E+01  0.25585825617E+02  0.41800000000E+01 0.  1.
         -5    1    3    3    0  502  0.26162162645E+02  0.14363261091E+03  0.19954184869E+03  0.24728365787E+03  0.41800000000E+01 0.  1.
        -11    1    1    2    0    0  0.31223021194E+02 -0.10161569580E+03  0.10834098275E+03  0.15178404141E+03  0.00000000000E+00 0.  1.
         11    1    1    2    0    0 -0.35503214417E+02 -0.30097925409E+02  0.11088695949E+03  0.12025922473E+03  0.00000000000E+00 0. -1.
</event>
<event>
 7    1  0.2732144E-009  0.1144961E+03  0.7561462E-02  0.1252463E+00
         -2   -1    0    0    0  501 -0.00000000000E+00  0.00000000000E+00  0.38073543831E+02  0.38073543831E+02  0.00000000000E+00 0.  1.
          2   -1    0    0  501    0  0.00000000000E+00 -0.00000000000E+00 -0.45268184805E+03  0.45268184805E+03  0.00000000000E+00 0. -1.
         25    2    1    2    0    0  0.82410933222E+01  0.61726190122E+02 -0.15565904186E+03  0.20918099339E+03  0.12509561350E+03 0.  0.
          5    1    3    3  502    0  0.30345324559E+02 -0.26295179849E+02 -0.17897535813E+02  0.44159590058E+02  0.41800000000E+01 0.  1.
         -5    1    3    3    0  502 -0.22104231237E+02  0.88021369970E+02 -0.13776150604E+03  0.16502140333E+03  0.41800000000E+01 0.  1.
        -11    1    1    2    0    0 -0.18462085811E+02 -0.77116907470E+02 -0.24737358412E+03  0.25977212350E+03  0.00000000000E+00 0.  1.
         11    1    1    2    0    0  0.10220992488E+02  0.15390717348E+02 -0.11575678246E+02  0.21802274992E+02  0.00000000000E+00 0. -1.
</event>
<event>
 7    1  0.2732144E-009  0.9266658E+02  0.7561462E-02  0.1296520E+00
         -1   -1    0    0    0  501 -0.00000000000E+00  0.00000000000E+00  0.45032123139E+02  0.45032123139E+02  0.00000000000E+00 0.  1.
          1   -1    0    0  501    0  0.00000000000E+00 -0.00000000000E+00 -0.31169728244E+03  0.31169728244E+03  0.00000000000E+00 0. -1.
         25    2    1    2    0    0  0.40606892282E+02  0.12312645636E+02 -0.18869584153E+03  0.23033603939E+03  0.12509216398E+03 0.  0.
          5    1    3    3  502    0  0.66718013227E+02  0.10487935176E+02 -0.38567960277E+02  0.77886135051E+02  0.41800000000E+01 0.  1.
         -5    1    3    3    0  502 -0.26111120946E+02  0.18247104601E+01 -0.15012788125E+03  0.15244990434E+03  0.41800000000E+01 0.  1.
        -11    1    1    2    0    0 -0.63362571687E+02  0.34851087436E+01 -0.28217371603E+02  0.69449129108E+02  0.00000000000E+00 0.  1.
         11    1    1    2    0    0  0.22755679405E+02 -0.15797754380E+02 -0.49751946172E+02  0.56944237080E+02  0.00000000000E+00 0. -1.
</event>
<event>
 7    1  0.2732144E-009  0.1010449E+03  0.7561462E-02  0.1278114E+00
         -1   -1    0    0    0  501 -0.00000000000E+00  0.00000000000E+00  0.26130979582E+02  0.26130979582E+02  0.00000000000E+00 0.  1.
          1   -1    0    0  501    0  0.00000000000E+00 -0.00000000000E+00 -0.68407049144E+03  0.68407049144E+03  0.00000000000E+00 0. -1.
         25    2    1    2    0    0 -0.66833259126E+02  0.40704316238E+02 -0.35111413193E+03  0.38085757275E+03  0.12509129144E+03 0.  0.
          5    1    3    3  502    0 -0.40664296654E+02  0.38349695293E+02 -0.40611999391E+02  0.69217707604E+02  0.41800000000E+01 0.  1.
         -5    1    3    3    0  502 -0.26168962472E+02  0.23546209453E+01 -0.31050213253E+03  0.31163986514E+03  0.41800000000E+01 0.  1.
        -11    1    1    2    0    0 -0.16778575088E+02  0.11971717769E+02 -0.45228631823E+02  0.49703840344E+02  0.00000000000E+00 0.  1.
         11    1    1    2    0    0  0.83611834214E+02 -0.52676034007E+02 -0.26159674811E+03  0.27964005794E+03  0.00000000000E+00 0. -1.
</event>
<event>
 7    1  0.2732144E-009  0.8116893E+02  0.7561462E-02  0.1325767E+00
         -1   -1    0    0    0  501 -0.00000000000E+00  0.00000000000E+00  0.70430144328E+02  0.70430144328E+02  0.00000000000E+00 0.  1.
          1   -1    0    0  501    0  0.00000000000E+00 -0.00000000000E+00 -0.21092503562E+03  0.21092503562E+03  0.00000000000E+00 0. -1.
         25    2    1    2    0    0 -0.45011805982E+02 -0.16988598662E+02 -0.53811187656E+02  0.14442107758E+03  0.12508848296E+03 0.  0.
          5    1    3    3  502    0  0.54921734470E+01  0.11930695202E+02 -0.79487553517E+02  0.80673719521E+02  0.41800000000E+01 0.  1.
         -5    1    3    3    0  502 -0.50503979429E+02 -0.28919293863E+02  0.25676365862E+02  0.63747358060E+02  0.41800000000E+01 0.  1.
        -11    1    1    2    0    0  0.54950544770E+01  0.42706394118E+02 -0.59862880868E+01  0.43472604791E+02  0.00000000000E+00 0.  1.
         11    1    1    2    0    0  0.39516751505E+02 -0.25717795457E+02 -0.80697415551E+02  0.93461497577E+02  0.00000000000E+00 0. -1.
</event>
<event>
 7    1  0.2732144E-009  0.1309724E+03  0.7561462E-02  0.1226020E+00
          1   -1    0    0  501    0  0.00000000000E+00  0.00000000000E+00  0.56894916640E+03  0.56894916640E+03  0.00000000000E+00 0. -1.
         -1   -1    0    0    0  501 -0.00000000000E+00 -0.00000000000E+00 -0.34289994573E+02  0.34289994573E+02  0.00000000000E+00 0.  1.
         25    2    1    2    0    0  0.30811557462E+02 -0.77939176271E+02  0.23171444347E+03  0.27633467369E+03  0.12508157857E+03 0.  0.
          5    1    3    3  502    0  0.74427954287E+02 -0.58179813738E+02  0.10764778787E+03  0.14328269169E+03  0.41800000000E+01 0.  1.
         -5    1    3    3    0  502 -0.43616396825E+02 -0.19759362533E+02  0.12406665560E+03  0.13305198199E+03  0.41800000000E+01 0.  1.
        -11    1    1    2    0    0 -0.13067497039E+02 -0.17725369080E+02  0.92055379551E+02  0.94652739486E+02  0.00000000000E+00 0.  1.
         11    1    1    2    0    0 -0.17744060423E+02  0.95664545350E+02  0.21088934881E+03  0.23225174780E+03  0.00000000000E+00 0. -1.
</event>
<event>
 7    1  0.2732144E-009  0.1307241E+03  0.7561462E-02  0.1226385E+00
          2   -1    0    0  501    0  0.00000000000E+00  0.00000000000E+00  0.29055408298E+04  0.29055408298E+04  0.00000000000E+00 0. -1.
         -2   -1    0    0    0  501 -0.00000000000E+00 -0.00000000000E+00 -0.14268926323E+02  0.14268926323E+02  0.00000000000E+00 0.  1.
         25    2    1    2    0    0 -0.12561260352E+03  0.32419799943E+02  0.23165937482E+04  0.23235928633E+04  0.12509048958E+03 0.  0.
          5    1    3    3  502    0 -0.76768363335E+02  0.10523890496E+02  0.48142094401E+03  0.48763483429E+03  0.41800000000E+01 0.  1.
         -5    1    3    3    0  502 -0.48844240187E+02  0.21895909448E+02  0.18351728041E+04  0.18359580290E+04  0.41800000000E+01 0.  1.
        -11    1    1    2    0    0  0.15853185686E+02 -0.78175779853E+01  0.97245122051E+01  0.20174344093E+02  0.00000000000E+00 0.  1.
         11    1    1    2    0    0  0.10975941784E+03 -0.24602221958E+02  0.56495364313E+03  0.57604254879E+03  0.00000000000E+00 0. -1.
</event>
<event>
 7    1  0.2732144E-009  0.8448691E+02  0.7561462E-02  0.1316780E+00
          1   -1    0    0  501    0  0.00000000000E+00  0.00000000000E+00  0.68390812578E+02  0.68390812578E+02  0.00000000000E+00 0. -1.
         -1   -1    0    0    0  501 -0.00000000000E+00 -0.00000000000E+00 -0.24881202839E+03  0.24881202839E+03  0.00000000000E+00 0.  1.
         25    2    1    2    0    0 -0.14272213165E+02 -0.49487242199E+02 -0.16031094674E+03  0.20976312549E+03  0.12509310917E+03 0.  0.
          5    1    3    3  502    0 -0.36365377920E+02 -0.49414796914E+01 -0.15527829525E+03  0.15961102815E+03  0.41800000000E+01 0.  1.
         -5    1    3    3    0  502  0.22093164755E+02 -0.44545762508E+02 -0.50326514891E+01  0.50152097337E+02  0.41800000000E+01 0.  1.
        -11    1    1    2    0    0  0.14064639612E+02 -0.13295943305E+02  0.23909793680E+02  0.30761573913E+02  0.00000000000E+00 0. -1.
         11    1    1    2    0    0  0.20757355392E+00  0.62783185504E+02 -0.44020062753E+02  0.76678141563E+02  0.00000000000E+00 0.  1.
</event>
<event>
 7    1  0.2732144E-009  0.1361034E+03  0.7561462E-02  0.1218670E+00
         -2   -1    0    0    0  501 -0.00000000000E+00  0.00000000000E+00  0.73839535703E+02  0.73839535703E+02  0.00000000000E+00 0.  1.
          2   -1    0    0  501    0  0.00000000000E+00 -0.00000000000E+00 -0.25459049852E+03  0.25459049852E+03  0.00000000000E+00 0. -1.
         25    2    1    2    0    0  0.21018960756E+02 -0.79612370903E+02 -0.10609997912E+03  0.18353535385E+03  0.12509234282E+03 0.  0.
          5    1    3    3  502    0  0.44074899855E+02  0.17903466370E+02 -0.21693378562E+02  0.52451939703E+02  0.41800000000E+01 0.  1.
         -5    1    3    3    0  502 -0.23055939099E+02 -0.97515837273E+02 -0.84406600554E+02  0.13108341414E+03  0.41800000000E+01 0.  1.
        -11    1    1    2    0    0 -0.13599086358E+01  0.97542434968E+02 -0.59828120739E+02  0.11443679479E+03  0.00000000000E+00 0.  1.
         11    1    1    2    0    0 -0.19659052120E+02 -0.17930064065E+02 -0.14822862959E+02  0.30457885579E+02  0.00000000000E+00 0. -1.
</event>
<event>
 7    1  0.2732144E-009  0.2645295E+03  0.7561462E-02  0.1104452E+00
          2   -1    0    0  501    0  0.00000000000E+00  0.00000000000E+00  0.51640021586E+03  0.51640021586E+03  0.00000000000E+00 0. -1.
         -2   -1    0    0    0  501 -0.00000000000E+00 -0.00000000000E+00 -0.14378710422E+03  0.14378710422E+03  0.00000000000E+00 0.  1.
         25    2    1    2    0    0 -0.18505467217E+03  0.16722909207E+03  0.17567187333E+03  0.32972624757E+03  0.12509192752E+03 0.  0.
          5    1    3    3  502    0 -0.70714338436E+02  0.14653465791E+03  0.10238923817E+03  0.19228612046E+03  0.41800000000E+01 0.  1.
         -5    1    3    3    0  502 -0.11434033373E+03  0.20694434160E+02  0.73282635163E+02  0.13744012711E+03  0.41800000000E+01 0.  1.
        -11    1    1    2    0    0  0.80322783274E+02 -0.84283795848E+02  0.37222673732E+02  0.12223352730E+03  0.00000000000E+00 0.  1.
         11    1    1    2    0    0  0.10473188890E+03 -0.82945296226E+02  0.15971856457E+03  0.20822754521E+03  0.00000000000E+00 0. -1.
</event>
<event>
 7    1  0.2732144E-009  0.1474296E+03  0.7561462E-02  0.1203668E+00
         -1   -1    0    0    0  501 -0.00000000000E+00  0.00000000000E+00  0.79288566289E+02  0.79288566289E+02  0.00000000000E+00 0.  1.
          1   -1    0    0  501    0  0.00000000000E+00 -0.00000000000E+00 -0.35334424356E+03  0.35334424356E+03  0.00000000000E+00 0. -1.
         25    2    1    2    0    0 -0.83830606286E+02  0.87741247680E+02 -0.11697103976E+03  0.20989503400E+03  0.12509038357E+03 0.  0.
          5    1    3    3  502    0 -0.80336108072E+02  0.26463260825E+02 -0.83940979101E+01  0.85100691615E+02  0.41800000000E+01 0. -1.
         -5    1    3    3    0  502 -0.34944982144E+01  0.61277986855E+02 -0.10857694185E+03  0.12479434238E+03  0.41800000000E+01 0. -1.
        -11    1    1    2    0    0  0.51113993643E+02  0.39834220872E+01 -0.21013355988E+02  0.55408204515E+02  0.00000000000E+00 0. -1.
         11    1    1    2    0    0  0.32716612643E+02 -0.91724669767E+02 -0.13607128153E+03  0.16732957134E+03  0.00000000000E+00 0.  1.
</event>
<event>
 7    1  0.3173883E-009  0.7271594E+02  0.7561462E-02  0.1351094E+00
         -1   -1    0    0    0  501 -0.00000000000E+00  0.00000000000E+00  0.23106709355E+02  0.23106709355E+02  0.00000000000E+00 0.  1.
          1   -1    0    0  501    0  0.00000000000E+00 -0.00000000000E+00 -0.61607846720E+03  0.61607846720E+03  0.00000000000E+00 0. -1.
         25    2    1    2    0    0  0.41256176501E+02 -0.68032933757E+01 -0.40925316293E+03  0.42998351575E+03  0.12509722439E+03 0.  0.
          5    1    3    3  502    0  0.22535939445E+01 -0.49316558273E+01 -0.38228126327E+03  0.38234256441E+03  0.41800000000E+01 0.  1.
         -5    1    3    3    0  502  0.39002582556E+02 -0.18716375484E+01 -0.26971899662E+02  0.47640951339E+02  0.41800000000E+01 0.  1.
        -11    1    1    2    0    0 -0.35928045585E+02 -0.39101894002E+02 -0.11087987804E+03  0.12293953770E+03  0.00000000000E+00 0.  1.
         11    1    1    2    0    0 -0.53281309158E+01  0.45905187378E+02 -0.72838716868E+02  0.86262123103E+02  0.00000000000E+00 0. -1.
</event>
<event>
 7    1  0.2732144E-009  0.1291782E+03  0.7561462E-02  0.1228680E+00
         -2   -1    0    0    0  501 -0.00000000000E+00  0.00000000000E+00  0.19298612450E+03  0.19298612450E+03  0.00000000000E+00 0.  1.
          2   -1    0    0  501    0  0.00000000000E+00 -0.00000000000E+00 -0.12412927270E+03  0.12412927270E+03  0.00000000000E+00 0. -1.
         25    2    1    2    0    0  0.61129070446E+02  0.81061531950E+02  0.76010828592E+02  0.17813770412E+03  0.12509060856E+03 0.  0.
          5    1    3    3  502    0  0.83279336219E+02  0.77163767574E+02  0.17033787047E+02  0.11487957681E+03  0.41800000000E+01 0. -1.
         -5    1    3    3    0  502 -0.22150265773E+02  0.38977643765E+01  0.58977041545E+02  0.63258127306E+02  0.41800000000E+01 0. -1.
        -11    1    1    2    0    0  0.12343768867E+02  0.16478840714E+00 -0.25118449554E+02  0.27988074121E+02  0.00000000000E+00 0.  1.
         11    1    1    2    0    0 -0.73472839313E+02 -0.81226320357E+02  0.17964472769E+02  0.11098961896E+03  0.00000000000E+00 0. -1.
</event>
<event>
 7    1  0.2732144E-009  0.1026757E+03  0.7561462E-02  0.1274768E+00
          2   -1    0    0  501    0  0.00000000000E+00  0.00000000000E+00  0.73332744969E+03  0.73332744969E+03  0.00000000000E+00 0. -1.
         -2   -1    0    0    0  501 -0.00000000000E+00 -0.00000000000E+00 -0.20512206110E+02  0.20512206110E+02  0.00000000000E+00 0.  1.
         25    2    1    2    0    0 -0.38453731969E+02 -0.50023537515E+01  0.52746181514E+03  0.54347680112E+03  0.12508938356E+03 0.  0.
          5    1    3    3  502    0 -0.76746993511E+02  0.11466347480E+02  0.43607414903E+03  0.44294436896E+03  0.41800000000E+01 0. -1.
         -5    1    3    3    0  502  0.38293261543E+02 -0.16468701232E+02  0.91387666113E+02  0.10053243217E+03  0.41800000000E+01 0. -1.
        -11    1    1    2    0    0 -0.21573298819E+02 -0.10142506090E+02  0.11137799880E+03  0.11390055430E+03  0.00000000000E+00 0. -1.
         11    1    1    2    0    0  0.60027030788E+02  0.15144859842E+02  0.73975429629E+02  0.96462300375E+02  0.00000000000E+00 0.  1.
</event>
<event>
 7    1  0.2732144E-009  0.1571185E+03  0.7561462E-02  0.1191989E+00
         -2   -1    0    0    0  501 -0.00000000000E+00  0.00000000000E+00  0.25882439132E+03  0.25882439132E+03  0.00000000000E+00 0.  1.
          2   -1    0    0  501    0  0.00000000000E+00 -0.00000000000E+00 -0.13372131974E+03  0.13372131974E+03  0.00000000000E+00 0. -1.
         25    2    1    2    0    0  0.95419170975E+02 -0.11614159089E+03  0.82192724915E+02  0.21212431096E+03  0.12508953573E+03 0.  0.
          5    1    3    3  502    0  0.62009141252E+02 -0.85733424712E+02 -0.12987499025E+02  0.10668411898E+03  0.41800000000E+01 0. -1.
         -5    1    3    3    0  502  0.33410029723E+02 -0.30408166174E+02  0.95180223940E+02  0.10544019198E+03  0.41800000000E+01 0. -1.
        -11    1    1    2    0    0 -0.72244353429E+02  0.11941953205E+03  0.59507919820E+02  0.15172825629E+03  0.00000000000E+00 0.  1.
         11    1    1    2    0    0 -0.23174817545E+02 -0.32779411618E+01 -0.16597573150E+02  0.28693143798E+02  0.00000000000E+00 0. -1.
</event>
<event>
 7    1  0.2732144E-009  0.9929962E+02  0.7561462E-02  0.1281776E+00
          2   -1    0    0  501    0  0.00000000000E+00  0.00000000000E+00  0.33510905889E+03  0.33510905889E+03  0.00000000000E+00 0. -1.
         -2   -1    0    0    0  501 -0.00000000000E+00 -0.00000000000E+00 -0.49725960763E+02  0.49725960763E+02  0.00000000000E+00 0.  1.
         25    2    1    2    0    0 -0.63922837071E+02  0.81312426095E+01  0.15878773279E+03  0.21216368881E+03  0.12509052946E+03 0.  0.
          5    1    3    3  502    0 -0.32775568050E+02 -0.47413500533E+02  0.23136193643E+02  0.62249769077E+02  0.41800000000E+01 0.  1.
         -5    1    3    3    0  502 -0.31147269021E+02  0.55544743143E+02  0.13565153915E+03  0.14991391974E+03  0.41800000000E+01 0.  1.
        -11    1    1    2    0    0  0.51821947796E+02 -0.23937406965E+02  0.13827293657E+03  0.14959250888E+03  0.00000000000E+00 0. -1.
         11    1    1    2    0    0  0.12100889276E+02  0.15806164356E+02 -0.11677571236E+02  0.23078821956E+02  0.00000000000E+00 0.  1.
</event>
<event>
 7    1  0.2732144E-009  0.1049807E+03  0.7561462E-02  0.1270158E+00
          2   -1    0    0  501    0  0.00000000000E+00  0.00000000000E+00  0.72621171062E+02  0.72621171062E+02  0.00000000000E+00 0.  1.
         -2   -1    0    0    0  501 -0.00000000000E+00 -0.00000000000E+00 -0.24046233358E+03  0.24046233358E+03  0.00000000000E+00 0. -1.
         25    2    1    2    0    0 -0.15300612411E+02  0.26506057163E+02 -0.17560987546E+03  0.21776698201E+03  0.12508777032E+03 0.  0.
          5    1    3    3  502    0 -0.29068902670E+02  0.73439638048E+02 -0.11832517084E+03  0.14232603413E+03  0.41800000000E+01 0.  1.
         -5    1    3    3    0  502  0.13768290259E+02 -0.46933580885E+02 -0.57284704629E+02  0.75440947872E+02  0.41800000000E+01 0.  1.
        -11    1    1    2    0    0 -0.29174968212E+02  0.15093866565E+01  0.26571985698E+02  0.39490852639E+02  0.00000000000E+00 0.  1.
         11    1    1    2    0    0  0.44475580622E+02 -0.28015443819E+02 -0.18803272748E+02  0.55825669993E+02  0.00000000000E+00 0. -1.
</event>
<event>
 7    1  0.2732144E-009  0.1068543E+03  0.7561462E-02  0.1266509E+00
         -1   -1    0    0    0  501 -0.00000000000E+00  0.00000000000E+00  0.22170740982E+03  0.22170740982E+03  0.00000000000E+00 0.  1.
          1   -1    0    0  501    0  0.00000000000E+00 -0.00000000000E+00 -0.91965287170E+02  0.91965287170E+02  0.00000000000E+00 0. -1.
         25    2    1    2    0    0 -0.63969036049E+02  0.48051645592E+02  0.12548732929E+03  0.19441225134E+03  0.12509218778E+03 0.  0.
          5    1    3    3  502    0 -0.72280073095E+02  0.75407194084E+02  0.12816806711E+03  0.16539401354E+03  0.41800000000E+01 0.  1.
         -5    1    3    3    0  502  0.83110370463E+01 -0.27355548492E+02 -0.26807378265E+01  0.29018237806E+02  0.41800000000E+01 0.  1.
        -11    1    1    2    0    0  0.53519330941E+02 -0.43084812159E+02  0.41494594860E+02  0.80264694766E+02  0.00000000000E+00 0.  1.
         11    1    1    2    0    0  0.10449705107E+02 -0.49668334333E+01 -0.37239801497E+02  0.38995750881E+02  0.00000000000E+00 0. -1.
</event>
<event>
 7    1  0.2732144E-009  0.2425681E+03  0.7561462E-02  0.1118094E+00
          2   -1    0    0  501    0  0.00000000000E+00  0.00000000000E+00  0.16646724379E+04  0.16646724379E+04  0.00000000000E+00 0. -1.
         -2   -1    0    0    0  501 -0.00000000000E+00 -0.00000000000E+00 -0.43593348584E+02  0.43593348584E+02  0.00000000000E+00 0.  1.
         25    2    1    2    0    0 -0.12503559441E+03 -0.20295421537E+03  0.63295978184E+03  0.68782090178E+03  0.12504076972E+03 0.  0.
          5    1    3    3  502    0 -0.27147045882E+02 -0.37123427200E+02  0.29695449747E+03  0.30052380424E+03  0.41800000000E+01 0. -1.
         -5    1    3    3    0  502 -0.97888548525E+02 -0.16583078817E+03  0.33600528437E+03  0.38729709754E+03  0.41800000000E+01 0. -1.
        -11    1    1    2    0    0  0.53173060424E+02  0.34990906909E+02  0.15560362358E+03  0.16811967640E+03  0.00000000000E+00 0.  1.
         11    1    1    2    0    0  0.71862533983E+02  0.16796330846E+03  0.83251568387E+03  0.85232520828E+03  0.00000000000E+00 0. -1.
</event>
<event>
 7    1  0.2732144E-009  0.1918312E+03  0.7561462E-02  0.1156820E+00
          1   -1    0    0  501    0  0.00000000000E+00  0.00000000000E+00  0.14365805558E+04  0.14365805558E+04  0.00000000000E+00 0. -1.
         -1   -1    0    0    0  501 -0.00000000000E+00 -0.00000000000E+00 -0.27611005941E+02  0.27611005941E+02  0.00000000000E+00 0.  1.
         25    2    1    2    0    0  0.29299314299E+02 -0.16121015332E+03  0.65596718248E+03  0.68759484107E+03  0.12508620074E+03 0.  0.
          5    1    3    3  502    0 -0.42964877987E+02 -0.94759341813E+02  0.27189752570E+03  0.29115468481E+03  0.41800000000E+01 0. -1.
         -5    1    3    3    0  502  0.72264192286E+02 -0.66450811503E+02  0.38406965678E+03  0.39644015626E+03  0.41800000000E+01 0. -1.
        -11    1    1    2    0    0 -0.55130305251E+02  0.90244609267E+02  0.31898236162E+03  0.33605533337E+03  0.00000000000E+00 0.  1.
         11    1    1    2    0    0  0.25830990952E+02  0.70965544048E+02  0.43402000579E+03  0.44054138734E+03  0.00000000000E+00 0. -1.
</event>
<event>
 7    1  0.2732144E-009  0.3360652E+03  0.7561462E-02  0.1068484E+00
          1   -1    0    0  501    0  0.00000000000E+00  0.00000000000E+00  0.14730129783E+03  0.14730129783E+03  0.00000000000E+00 0. -1.
         -1   -1    0    0    0  501 -0.00000000000E+00 -0.00000000000E+00 -0.12532246025E+04  0.12532246025E+04  0.00000000000E+00 0.  1.
         25    2    1    2    0    0 -0.32781967717E+03  0.49048432955E+01 -0.97196791334E+03  0.10333724832E+04  0.12508903322E+03 0.  0.
          5    1    3    3  502    0 -0.58108452789E+02 -0.23951210888E+02 -0.33770341322E+03  0.34352775796E+03  0.41800000000E+01 0.  1.
         -5    1    3    3    0  502 -0.26971122438E+03  0.28856054184E+02 -0.63426450012E+03  0.68984472523E+03  0.41800000000E+01 0.  1.
        -11    1    1    2    0    0  0.58490289222E+02 -0.32847883281E+02 -0.49983284725E+02  0.83656596400E+02  0.00000000000E+00 0.  1.
         11    1    1    2    0    0  0.26932938794E+03  0.27943039986E+02 -0.83972106633E+02  0.28349682077E+03  0.00000000000E+00 0. -1.
</event>
<event>
 7    1  0.2732144E-009  0.1275181E+03  0.7561462E-02  0.1231186E+00
         -3   -1    0    0    0  501 -0.00000000000E+00  0.00000000000E+00  0.16801678291E+03  0.16801678291E+03  0.00000000000E+00 0.  1.
          3   -1    0    0  501    0  0.00000000000E+00 -0.00000000000E+00 -0.17037334517E+03  0.17037334517E+03  0.00000000000E+00 0. -1.
         25    2    1    2    0    0  0.57774563736E+02 -0.48591943349E+02  0.10246605274E+03  0.17844972441E+03  0.12508371199E+03 0.  0.
          5    1    3    3  502    0 -0.22064297213E+02 -0.52948087603E+02  0.14122799212E+02  0.59222116223E+02  0.41800000000E+01 0. -1.
         -5    1    3    3    0  502  0.79838860949E+02  0.43561442545E+01  0.88343253530E+02  0.11922760819E+03  0.41800000000E+01 0. -1.
        -11    1    1    2    0    0  0.24494721297E+02  0.13968073479E+02 -0.42781798695E+02  0.51238469412E+02  0.00000000000E+00 0.  1.
         11    1    1    2    0    0 -0.82269285033E+02  0.34623869870E+02 -0.62040816303E+02  0.10870193426E+03  0.00000000000E+00 0. -1.
</event>
<event>
 7    1  0.2732144E-009  0.1128458E+03  0.7561462E-02  0.1255389E+00
         -1   -1    0    0    0  501 -0.00000000000E+00  0.00000000000E+00  0.33813276057E+02  0.33813276057E+02  0.00000000000E+00 0.  1.
          1   -1    0    0  501    0  0.00000000000E+00 -0.00000000000E+00 -0.42533890819E+03  0.42533890819E+03  0.00000000000E+00 0. -1.
         25    2    1    2    0    0  0.39215300268E+02 -0.14517148643E+02 -0.28184657102E+03  0.31118143937E+03  0.12509121165E+03 0.  0.
          5    1    3    3  502    0  0.39963897653E+02  0.48649012865E+02 -0.96288517785E+02  0.11512076540E+03  0.41800000000E+01 0. -1.
         -5    1    3    3    0  502 -0.74859738532E+00 -0.63166161508E+02 -0.18555805323E+03  0.19606067397E+03  0.41800000000E+01 0. -1.
        -11    1    1    2    0    0 -0.68212837812E+02  0.36236249664E+01 -0.77429766714E+02  0.10325449469E+03  0.00000000000E+00 0.  1.
         11    1    1    2    0    0  0.28997537544E+02  0.10893523677E+02 -0.32249294400E+02  0.44716250189E+02  0.00000000000E+00 0. -1.
</event>
<event>
 7    1  0.2897038E-009  0.1063709E+03  0.7561462E-02  0.1267442E+00
          2   -1    0    0  501    0  0.00000000000E+00  0.00000000000E+00  0.94614598256E+03  0.94614598256E+03  0.00000000000E+00 0. -1.
         -2   -1    0    0    0  501 -0.00000000000E+00 -0.00000000000E+00 -0.22048468832E+02  0.22048468832E+02  0.00000000000E+00 0.  1.
         25    2    1    2    0    0 -0.20511408859E+02 -0.91577646586E+02  0.45879626692E+03  0.48471480507E+03  0.12508894622E+03 0.  0.
          5    1    3    3  502    0 -0.14636991331E+01 -0.45106486715E+02  0.41639217311E+03  0.41885158683E+03  0.41800000000E+01 0. -1.
         -5    1    3    3    0  502 -0.19047709726E+02 -0.46471159871E+02  0.42404093812E+02  0.65863218245E+02  0.41800000000E+01 0. -1.
        -11    1    1    2    0    0 -0.15849724958E+02 -0.26060732834E+01  0.14924792545E+02  0.21926122131E+02  0.00000000000E+00 0.  1.
         11    1    1    2    0    0  0.36361133817E+02  0.94183719869E+02  0.45037645426E+03  0.46155352419E+03  0.00000000000E+00 0. -1.
</event>
<event>
 7    1  0.2732144E-009  0.2408634E+03  0.7561462E-02  0.1119219E+00
          2   -1    0    0  501    0  0.00000000000E+00  0.00000000000E+00  0.12779805784E+04  0.12779805784E+04  0.00000000000E+00 0.  1.
         -2   -1    0    0    0  501 -0.00000000000E+00 -0.00000000000E+00 -0.56628734953E+02  0.56628734953E+02  0.00000000000E+00 0. -1.
         25    2    1    2    0    0  0.10998959430E+03 -0.20743203252E+03  0.80742061183E+03  0.85011839478E+03  0.12508989476E+03 0.  0.
          5    1    3    3  502    0  0.91171498730E+02 -0.11648334861E+03  0.65560387122E+03  0.67209710685E+03  0.41800000000E+01 0.  1.
         -5    1    3    3    0  502  0.18818095567E+02 -0.90948683914E+02  0.15181674061E+03  0.17802128793E+03  0.41800000000E+01 0.  1.
        -11    1    1    2    0    0 -0.64222127034E+02  0.65850402379E+02  0.93308088927E+02  0.13102349619E+03  0.00000000000E+00 0. -1.
         11    1    1    2    0    0 -0.45767467263E+02  0.14158163014E+03  0.32062314264E+03  0.35346742233E+03  0.00000000000E+00 0.  1.
</event>
<event>
 7    1  0.2732144E-009  0.1651317E+03  0.7561462E-02  0.1183022E+00
         -2   -1    0    0    0  501 -0.00000000000E+00  0.00000000000E+00  0.27118991664E+03  0.27118991664E+03  0.00000000000E+00 0.  1.
          2   -1    0    0  501    0  0.00000000000E+00 -0.00000000000E+00 -0.11536117139E+03  0.11536117139E+03  0.00000000000E+00 0. -1.
         25    2    1    2    0    0 -0.48557882504E+02  0.11554551398E+03  0.14944748675E+03  0.23170981778E+03  0.12508498952E+03 0.  0.
          5    1    3    3  502    0  0.27750390469E+02  0.92380119094E+02  0.91749920136E+02  0.13319043066E+03  0.41800000000E+01 0.  1.
         -5    1    3    3    0  502 -0.76308272973E+02  0.23165394889E+02  0.57697566617E+02  0.98519387117E+02  0.41800000000E+01 0.  1.
        -11    1    1    2    0    0  0.69196674635E+02 -0.11374720050E+03  0.11068707917E+02  0.13360060515E+03  0.00000000000E+00 0.  1.
         11    1    1    2    0    0 -0.20638792132E+02 -0.17983134830E+01 -0.46874494178E+01  0.21240665105E+02  0.00000000000E+00 0. -1.
</event>
<event>
 7    1  0.2732144E-009  0.1127940E+03  0.7561462E-02  0.1255482E+00
          2   -1    0    0  501    0  0.00000000000E+00  0.00000000000E+00  0.14362704213E+04  0.14362704213E+04  0.00000000000E+00 0.  1.
         -2   -1    0    0    0  501 -0.00000000000E+00 -0.00000000000E+00 -0.12768593080E+02  0.12768593080E+02  0.00000000000E+00 0. -1.
         25    2    1    2    0    0 -0.12354322344E+02  0.52255894918E+02  0.10667210391E+04  0.10753718358E+04  0.12508997607E+03 0.  0.
          5    1    3    3  502    0 -0.42148098129E+02 -0.17101374037E+02  0.66713137149E+03  0.66869324686E+03  0.41800000000E+01 0. -1.
         -5    1    3    3    0  502  0.29793775784E+02  0.69357268955E+02  0.39958966762E+03  0.40667858894E+03  0.41800000000E+01 0. -1.
        -11    1    1    2    0    0  0.32556977989E+02 -0.70140418223E+02  0.19716302027E+03  0.21178501280E+03  0.00000000000E+00 0. -1.
         11    1    1    2    0    0 -0.20202655645E+02  0.17884523306E+02  0.15961776886E+03  0.16188216580E+03  0.00000000000E+00 0.  1.
</event>
<event>
 7    1  0.2732144E-009  0.1627674E+03  0.7561462E-02  0.1185607E+00
         -1   -1    0    0    0  501 -0.00000000000E+00  0.00000000000E+00  0.49001113422E+03  0.49001113422E+03  0.00000000000E+00 0.  1.
          1   -1    0    0  501    0  0.00000000000E+00 -0.00000000000E+00 -0.58186806424E+02  0.58186806424E+02  0.00000000000E+00 0. -1.
         25    2    1    2    0    0 -0.58986553749E+02 -0.11214749916E+03  0.18940010859E+03  0.25995536795E+03  0.12509163481E+03 0.  0.
          5    1    3    3  502    0  0.33743769686E+02 -0.60841122490E+02  0.95993799126E+02  0.11862784685E+03  0.41800000000E+01 0.  1.
         -5    1    3    3    0  502 -0.92730323434E+02 -0.51306376669E+02  0.93406309463E+02  0.14132752109E+03  0.41800000000E+01 0.  1.
        -11    1    1    2    0    0 -0.19502213101E+02  0.32856812037E+02  0.10181005846E+03  0.10874370978E+03  0.00000000000E+00 0.  1.
         11    1    1    2    0    0  0.78488766849E+02  0.79290687122E+02  0.14061416075E+03  0.17949886292E+03  0.00000000000E+00 0. -1.
</event>
<event>
 7    1  0.2732144E-009  0.7217589E+02  0.7561462E-02  0.1352846E+00
         -3   -1    0    0    0  501 -0.00000000000E+00  0.00000000000E+00  0.20507570991E+02  0.20507570991E+02  0.00000000000E+00 0.  1.
          3   -1    0    0  501    0  0.00000000000E+00 -0.00000000000E+00 -0.69029876909E+03  0.69029876909E+03  0.00000000000E+00 0. -1.
         25    2    1    2    0    0 -0.35611817841E+01 -0.44910138152E+02 -0.42352915218E+03  0.44391077101E+03  0.12510086869E+03 0.  0.
          5    1    3    3  502    0 -0.93438716797E+01 -0.10929243236E+02  0.35769978924E+01  0.15395571103E+02  0.41800000000E+01 0. -1.
         -5    1    3    3    0  502  0.57826898956E+01 -0.33980894916E+02 -0.42710615008E+03  0.42851519991E+03  0.41800000000E+01 0. -1.
        -11    1    1    2    0    0  0.20101837525E+02 -0.19589774160E+02 -0.12926288372E+03  0.13227522909E+03  0.00000000000E+00 0.  1.
         11    1    1    2    0    0 -0.16540655741E+02  0.64499912312E+02 -0.11699916219E+03  0.13462033997E+03  0.00000000000E+00 0. -1.
</event>
<event>
 7    1  0.2732144E-009  0.1264196E+03  0.7561462E-02  0.1232867E+00
          1   -1    0    0  501    0  0.00000000000E+00  0.00000000000E+00  0.10335379238E+03  0.10335379238E+03  0.00000000000E+00 0. -1.
         -1   -1    0    0    0  501 -0.00000000000E+00 -0.00000000000E+00 -0.28228640340E+03  0.28228640340E+03  0.00000000000E+00 0.  1.
         25    2    1    2    0    0 -0.52875466621E+02 -0.29776851664E+02  0.29587089910E+02  0.14214592165E+03  0.12509033251E+03 0.  0.
          5    1    3    3  502    0  0.24655265766E+02  0.30747140867E+02  0.10475091592E+01  0.39646418211E+02  0.41800000000E+01 0.  1.
         -5    1    3    3    0  502 -0.77530732387E+02 -0.60523992532E+02  0.28539580751E+02  0.10249950344E+03  0.41800000000E+01 0.  1.
        -11    1    1    2    0    0  0.37618154352E+02 -0.33070457249E+02 -0.43814530942E+02  0.66546929314E+02  0.00000000000E+00 0. -1.
         11    1    1    2    0    0  0.15257312269E+02  0.62847308913E+02 -0.16470516999E+03  0.17694734482E+03  0.00000000000E+00 0.  1.
</event>
<event>
 7    1  0.2732144E-009  0.7566726E+02  0.7561462E-02  0.1341817E+00
          1   -1    0    0  501    0  0.00000000000E+00  0.00000000000E+00  0.25028457664E+03  0.25028457664E+03  0.00000000000E+00 0. -1.
         -1   -1    0    0    0  501 -0.00000000000E+00 -0.00000000000E+00 -0.54797298432E+02  0.54797298432E+02  0.00000000000E+00 0.  1.
         25    2    1    2    0    0  0.32193091523E+02  0.57429940536E+01  0.16829942877E+03  0.21223079131E+03  0.12509130239E+03 0.  0.
          5    1    3    3  502    0 -0.32482459370E+02  0.34607037759E+02  0.11181798241E+03  0.12154624971E+03  0.41800000000E+01 0.  1.
         -5    1    3    3    0  502  0.64675550893E+02 -0.28864043705E+02  0.56481446361E+02  0.90684541601E+02  0.41800000000E+01 0.  1.
        -11    1    1    2    0    0 -0.12900286371E+02 -0.15088636777E+01 -0.29816024586E+02  0.32522136772E+02  0.00000000000E+00 0.  1.
         11    1    1    2    0    0 -0.19292805152E+02 -0.42341303758E+01  0.57003874021E+02  0.60328946983E+02  0.00000000000E+00 0. -1.
</event>
<event>
 7    1  0.2732144E-009  0.2046884E+03  0.7561462E-02  0.1145843E+00
         -2   -1    0    0    0  501 -0.00000000000E+00  0.00000000000E+00  0.95800114604E+02  0.95800114604E+02  0.00000000000E+00 0.  1.
          2   -1    0    0  501    0  0.00000000000E+00 -0.00000000000E+00 -0.10115599845E+04  0.10115599845E+04  0.00000000000E+00 0. -1.
         25    2    1    2    0    0  0.19828001630E+03 -0.35749677124E+02 -0.83944335783E+03  0.87229896485E+03  0.12508928332E+03 0.  0.
          5    1    3    3  502    0  0.41566754597E+02  0.55968459453E+00 -0.43524766068E+03  0.43724833546E+03  0.41800000000E+01 0. -1.
         -5    1    3    3    0  502  0.15671326170E+03 -0.36309361719E+02 -0.40419569715E+03  0.43505062939E+03  0.41800000000E+01 0. -1.
        -11    1    1    2    0    0 -0.86357821300E+02 -0.75153637742E+01  0.99828237052E+01  0.87257153067E+02  0.00000000000E+00 0.  1.
         11    1    1    2    0    0 -0.11192219500E+03  0.43265040898E+02 -0.86299335755E+02  0.14780398117E+03  0.00000000000E+00 0. -1.
</event>
<event>
 7    1  0.2732144E-009  0.5927340E+02  0.7561462E-02  0.1400906E+00
          1   -1    0    0  501    0  0.00000000000E+00  0.00000000000E+00  0.13599539175E+03  0.13599539175E+03  0.00000000000E+00 0. -1.
         -1   -1    0    0    0  501 -0.00000000000E+00 -0.00000000000E+00 -0.88055736287E+02  0.88055736287E+02  0.00000000000E+00 0.  1.
         25    2    1    2    0    0 -0.11168977468E+02  0.75680199849E+01  0.51559046130E+02  0.13596517701E+03  0.12508466388E+03 0.  0.
          5    1    3    3  502    0  0.44339468053E+01 -0.27297623105E+02 -0.32896175844E+02  0.43179287820E+02  0.41800000000E+01 0. -1.
         -5    1    3    3    0  502 -0.15602924273E+02  0.34865643090E+02  0.84455221974E+02  0.92785889189E+02  0.41800000000E+01 0. -1.
        -11    1    1    2    0    0  0.25574935744E+02 -0.20512159628E+02  0.33090097893E+02  0.46580903915E+02  0.00000000000E+00 0. -1.
         11    1    1    2    0    0 -0.14405958276E+02  0.12944139643E+02 -0.36709488564E+02  0.41505047110E+02  0.00000000000E+00 0.  1.
</event>
<event>
 7    1  0.2732144E-009  0.1242722E+03  0.7561462E-02  0.1236211E+00
         -1   -1    0    0    0  501 -0.00000000000E+00  0.00000000000E+00  0.55014783252E+02  0.55014783252E+02  0.00000000000E+00 0.  1.
          1   -1    0    0  501    0  0.00000000000E+00 -0.00000000000E+00 -0.55863196639E+03  0.55863196639E+03  0.00000000000E+00 0. -1.
         25    2    1    2    0    0 -0.24761801496E+02  0.84419628733E+02 -0.45164496617E+03  0.47683259073E+03  0.12508526527E+03 0.  0.
          5    1    3    3  502    0 -0.16457371046E+02 -0.20492586575E+02 -0.22890088765E+03  0.23044279102E+03  0.41800000000E+01 0. -1.
         -5    1    3    3    0  502 -0.83044304496E+01  0.10491221531E+03 -0.22274407852E+03  0.24638979971E+03  0.41800000000E+01 0. -1.
        -11    1    1    2    0    0  0.52027702899E+02 -0.45682742988E+02 -0.39349736618E+01  0.69348964618E+02  0.00000000000E+00 0.  1.
         11    1    1    2    0    0 -0.27265901403E+02 -0.38736885746E+02 -0.48037243311E+02  0.67465194297E+02  0.00000000000E+00 0. -1.
</event>
<event>
 7    1  0.2732144E-009  0.1090084E+03  0.7561462E-02  0.1262417E+00
         -2   -1    0    0    0  501 -0.00000000000E+00  0.00000000000E+00  0.67250860648E+02  0.67250860648E+02  0.00000000000E+00 0.  1.
          2   -1    0    0  501    0  0.00000000000E+00 -0.00000000000E+00 -0.36013219520E+03  0.36013219520E+03  0.00000000000E+00 0. -1.
         25    2    1    2    0    0  0.91573791588E+01  0.71993107582E+02 -0.27399679710E+03  0.30982176263E+03  0.12509362352E+03 0.  0.
          5    1    3    3  502    0  0.12919474771E+02  0.91792394105E+02 -0.10729279878E+03  0.14185194223E+03  0.41800000000E+01 0.  1.
         -5    1    3    3    0  502 -0.37620956119E+01 -0.19799286523E+02 -0.16670399832E+03  0.16796982040E+03  0.41800000000E+01 0.  1.
        -11    1    1    2    0    0 -0.41325312197E+02 -0.53279918115E+02  0.12863535358E+02  0.68644021185E+02  0.00000000000E+00 0.  1.
         11    1    1    2    0    0  0.32167933039E+02 -0.18713189467E+02 -0.31748072809E+02  0.48917272033E+02  0.00000000000E+00 0. -1.
</event>
<event>
 7    1  0.2732144E-009  0.2697668E+03  0.7561462E-02  0.1101413E+00
         -2   -1    0    0    0  501 -0.00000000000E+00  0.00000000000E+00  0.12644412495E+03  0.12644412495E+03  0.00000000000E+00 0.  1.
          2   -1    0    0  501    0  0.00000000000E+00 -0.00000000000E+00 -0.65513990845E+03  0.65513990845E+03  0.00000000000E+00 0. -1.
         25    2    1    2    0    0 -0.23277337096E+03  0.10334325518E+03 -0.18338271409E+03  0.33784642265E+03  0.12509082640E+03 0.  0.
          5    1    3    3  502    0 -0.50200515266E+02  0.79836627658E+02 -0.32641030737E+02  0.99884373835E+02  0.41800000000E+01 0. -1.
         -5    1    3    3    0  502 -0.18257285570E+03  0.23506627520E+02 -0.15074168336E+03  0.23796204882E+03  0.41800000000E+01 0. -1.
        -11    1    1    2    0    0  0.59024356156E+02 -0.35112256441E+00 -0.22961293878E+02  0.63334184476E+02  0.00000000000E+00 0.  1.
         11    1    1    2    0    0  0.17374901481E+03 -0.10299213261E+03 -0.32235177553E+03  0.38040342627E+03  0.00000000000E+00 0. -1.
</event>
<event>
 7    1  0.2732144E-009  0.1222975E+03  0.7561462E-02  0.1239354E+00
         -1   -1    0    0    0  501 -0.00000000000E+00  0.00000000000E+00  0.59252817443E+02  0.59252817443E+02  0.00000000000E+00 0.  1.
          1   -1    0    0  501    0  0.00000000000E+00 -0.00000000000E+00 -0.64836233131E+03  0.64836233131E+03  0.00000000000E+00 0. -1.
         25    2    1    2    0    0 -0.92640113115E+02  0.32046770755E+02 -0.75848926275E+02  0.17609771330E+03  0.12509260145E+03 0.  0.
          5    1    3    3  502    0 -0.28377424665E+01  0.16473239500E+02  0.31078089301E+02  0.35535059259E+02  0.41800000000E+01 0. -1.
         -5    1    3    3    0  502 -0.89802370649E+02  0.15573531254E+02 -0.10692701558E+03  0.14056265404E+03  0.41800000000E+01 0. -1.
        -11    1    1    2    0    0  0.22811936087E+02 -0.57455530375E+02 -0.18905529886E+03  0.19890557666E+03  0.00000000000E+00 0.  1.
         11    1    1    2    0    0  0.69828177028E+02  0.25408759620E+02 -0.32420528873E+03  0.33261185880E+03  0.00000000000E+00 0. -1.
</event>
<event>
 7    1  0.2732144E-009  0.6900224E+02  0.7561462E-02  0.1363519E+00
         -2   -1    0    0    0  501 -0.00000000000E+00  0.00000000000E+00  0.11541062425E+03  0.11541062425E+03  0.00000000000E+00 0.  1.
          2   -1    0    0  501    0  0.00000000000E+00 -0.00000000000E+00 -0.12441462573E+03  0.12441462573E+03  0.00000000000E+00 0. -1.
         25    2    1    2    0    0  0.36430256442E+02 -0.18358644359E+02  0.21455759008E+02  0.13331402826E+03  0.12509227446E+03 0.  0.
          5    1    3    3  502    0  0.21024355688E+02  0.10450050088E+02 -0.49578525961E+02  0.55015722438E+02  0.41800000000E+01 0. -1.
         -5    1    3    3    0  502  0.15405900754E+02 -0.28808694446E+02  0.71034284969E+02  0.78298305824E+02  0.41800000000E+01 0. -1.
        -11    1    1    2    0    0  0.21122604955E+02  0.11629166654E+01  0.19204692105E+02  0.28571612032E+02  0.00000000000E+00 0.  1.
         11    1    1    2    0    0 -0.57552861397E+02  0.17195727693E+02 -0.49664452596E+02  0.77939609683E+02  0.00000000000E+00 0. -1.
</event>
<event>
 7    1  0.2732144E-009  0.9289339E+02  0.7561462E-02  0.1295992E+00
          2   -1    0    0  501    0  0.00000000000E+00  0.00000000000E+00  0.21154852472E+03  0.21154852472E+03  0.00000000000E+00 0. -1.
         -2   -1    0    0    0  501 -0.00000000000E+00 -0.00000000000E+00 -0.79725956216E+02  0.79725956216E+02  0.00000000000E+00 0.  1.
         25    2    1    2    0    0  0.27302069083E+02 -0.13174921558E+02  0.14582001268E+01  0.12871681197E+03  0.12508760851E+03 0.  0.
          5    1    3    3  502    0  0.65601372316E+02  0.16011656619E+02 -0.26751224578E+02  0.72753100373E+02  0.41800000000E+01 0.  1.
         -5    1    3    3    0  502 -0.38299303233E+02 -0.29186578177E+02  0.28209424705E+02  0.55963711599E+02  0.41800000000E+01 0.  1.
        -11    1    1    2    0    0  0.19370371852E+02 -0.45055034538E+01  0.10444116166E+03  0.10631776482E+03  0.00000000000E+00 0. -1.
         11    1    1    2    0    0 -0.46672440935E+02  0.17680425012E+02  0.25923206712E+02  0.56239904140E+02  0.00000000000E+00 0.  1.
</event>
<event>
 7    1  0.2732144E-009  0.1043023E+03  0.7561462E-02  0.1271500E+00
         -1   -1    0    0    0  501 -0.00000000000E+00  0.00000000000E+00  0.45437209541E+02  0.45437209541E+02  0.00000000000E+00 0.  1.
          1   -1    0    0  501    0  0.00000000000E+00 -0.00000000000E+00 -0.34444505601E+03  0.34444505601E+03  0.00000000000E+00 0. -1.
         25    2    1    2    0    0 -0.19269206936E+02  0.41580266645E+02 -0.23066900599E+03  0.26637669907E+03  0.12509250408E+03 0.  0.
          5    1    3    3  502    0 -0.26663257973E+01  0.84065762113E+02 -0.17559223800E+03  0.19474154179E+03  0.41800000000E+01 0. -1.
         -5    1    3    3    0  502 -0.16602881139E+02 -0.42485495468E+02 -0.55076767991E+02  0.71635157287E+02  0.41800000000E+01 0. -1.
        -11    1    1    2    0    0 -0.21433414609E+02 -0.28849552688E+02  0.72985068215E+01  0.36673643859E+02  0.00000000000E+00 0.  1.
         11    1    1    2    0    0  0.40702621545E+02 -0.12730713958E+02 -0.75637347306E+02  0.86831922620E+02  0.00000000000E+00 0. -1.
</event>
<event>
 7    1  0.2732144E-009  0.1443493E+03  0.7561462E-02  0.1207594E+00
          1   -1    0    0  501    0  0.00000000000E+00  0.00000000000E+00  0.46984830127E+03  0.46984830127E+03  0.00000000000E+00 0. -1.
         -1   -1    0    0    0  501 -0.00000000000E+00 -0.00000000000E+00 -0.63433872760E+02  0.63433872760E+02  0.00000000000E+00 0.  1.
         25    2    1    2    0    0 -0.55247836333E+02  0.11716578503E+03  0.25423376482E+03  0.31154891074E+03  0.12509105487E+03 0.  0.
          5    1    3    3  502    0 -0.46537280709E+02  0.95846901096E+02  0.73975692293E+02  0.12977758819E+03  0.41800000000E+01 0. -1.
         -5    1    3    3    0  502 -0.87105556242E+01  0.21318883931E+02  0.18025807253E+03  0.18177132255E+03  0.41800000000E+01 0. -1.
        -11    1    1    2    0    0  0.39337183343E+02 -0.13149402723E+03  0.14366665539E+03  0.19869122039E+03  0.00000000000E+00 0. -1.
         11    1    1    2    0    0  0.15910652990E+02  0.14328242208E+02  0.85140083006E+01  0.23042042893E+02  0.00000000000E+00 0.  1.
</event>
<event>
 7    1  0.2732144E-009  0.1383891E+03  0.7561462E-02  0.1215513E+00
          1   -1    0    0  501    0  0.00000000000E+00  0.00000000000E+00  0.17000935706E+03  0.17000935706E+03  0.00000000000E+00 0. -1.
         -1   -1    0    0    0  501 -0.00000000000E+00 -0.00000000000E+00 -0.15045764293E+03  0.15045764293E+03  0.00000000000E+00 0.  1.
         25    2    1    2    0    0  0.98935174883E+01 -0.11023314381E+03  0.33610213453E+02  0.17036922545E+03  0.12508716502E+03 0.  0.
          5    1    3    3  502    0  0.54301534386E+02 -0.96542979244E+02 -0.32731908945E+01  0.11089359610E+03  0.41800000000E+01 0. -1.
         -5    1    3    3    0  502 -0.44408016898E+02 -0.13690164562E+02  0.36883404347E+02  0.59475629352E+02  0.41800000000E+01 0. -1.
        -11    1    1    2    0    0  0.17495553823E+02  0.53265941975E+02 -0.51922490836E+02  0.76415312816E+02  0.00000000000E+00 0.  1.
         11    1    1    2    0    0 -0.27389071312E+02  0.56967201831E+02  0.37863991508E+02  0.73682461717E+02  0.00000000000E+00 0. -1.
</event>
<event>
 7    1  0.2732144E-009  0.1534527E+03  0.7561462E-02  0.1196293E+00
          2   -1    0    0  501    0  0.00000000000E+00  0.00000000000E+00  0.77554103710E+03  0.77554103710E+03  0.00000000000E+00 0. -1.
         -2   -1    0    0    0  501 -0.00000000000E+00 -0.00000000000E+00 -0.47634039706E+02  0.47634039706E+02  0.00000000000E+00 0.  1.
         25    2    1    2    0    0 -0.59889399755E+01 -0.13620619188E+03  0.55250438196E+03  0.58266351726E+03  0.12509071969E+03 0.  0.
          5    1    3    3  502    0  0.38442431822E+02 -0.56923756273E+02  0.10186064228E+03  0.12292761056E+03  0.41800000000E+01 0.  1.
         -5    1    3    3    0  502 -0.44431371798E+02 -0.79282435610E+02  0.45064373968E+03  0.45973590670E+03  0.41800000000E+01 0.  1.
        -11    1    1    2    0    0  0.30751113980E+02  0.79023167471E+02  0.15179847496E+03  0.17387659132E+03  0.00000000000E+00 0. -1.
         11    1    1    2    0    0 -0.24762174005E+02  0.57183024412E+02  0.23604140464E+02  0.66634968217E+02  0.00000000000E+00 0.  1.
</event>
<event>
 7    1  0.2732144E-009  0.1123936E+03  0.7561462E-02  0.1256200E+00
         -1   -1    0    0    0  501 -0.00000000000E+00  0.00000000000E+00  0.59306122450E+03  0.59306122450E+03  0.00000000000E+00 0.  1.
          1   -1    0    0  501    0  0.00000000000E+00 -0.00000000000E+00 -0.25766347374E+02  0.25766347374E+02  0.00000000000E+00 0. -1.
         25    2    1    2    0    0  0.11919378556E+02 -0.56650832488E+02  0.33453009783E+03  0.36180801698E+03  0.12507304424E+03 0.  0.
          5    1    3    3  502    0  0.49043832695E+02  0.19536222689E+02  0.13071927470E+03  0.14103886947E+03  0.41800000000E+01 0. -1.
         -5    1    3    3    0  502 -0.37124454139E+02 -0.76187055177E+02  0.20381082313E+03  0.22076914752E+03  0.41800000000E+01 0. -1.
        -11    1    1    2    0    0  0.26458834815E+02  0.31283341194E+02  0.34729047612E+02  0.53710558777E+02  0.00000000000E+00 0. -1.
         11    1    1    2    0    0 -0.38378213371E+02  0.25367491293E+02  0.19803573168E+03  0.20330899611E+03  0.00000000000E+00 0.  1.
</event>
<event>
 7    1  0.2732144E-009  0.2008376E+03  0.7561462E-02  0.1149034E+00
         -2   -1    0    0    0  501 -0.00000000000E+00  0.00000000000E+00  0.10934905061E+03  0.10934905061E+03  0.00000000000E+00 0.  1.
          2   -1    0    0  501    0  0.00000000000E+00 -0.00000000000E+00 -0.40026202469E+03  0.40026202469E+03  0.00000000000E+00 0. -1.
         25    2    1    2    0    0  0.13524607189E+03  0.11435883623E+03 -0.14879497064E+03  0.26297716408E+03  0.12509037595E+03 0.  0.
          5    1    3    3  502    0  0.40584114140E+02 -0.16918498331E+02 -0.70366537269E+02  0.83079647769E+02  0.41800000000E+01 0.  1.
         -5    1    3    3    0  502  0.94661957748E+02  0.13127733456E+03 -0.78428433370E+02  0.17989751631E+03  0.41800000000E+01 0.  1.
        -11    1    1    2    0    0 -0.68093349163E+02 -0.63041200907E+01 -0.22450936671E+02  0.71975625650E+02  0.00000000000E+00 0.  1.
         11    1    1    2    0    0 -0.67152722724E+02 -0.10805471614E+03 -0.11966706677E+03  0.17465828557E+03  0.00000000000E+00 0. -1.
</event>
<event>
 7    1  0.2732144E-009  0.7310723E+02  0.7561462E-02  0.1349835E+00
          2   -1    0    0  501    0  0.00000000000E+00  0.00000000000E+00  0.40788353809E+03  0.40788353809E+03  0.00000000000E+00 0. -1.
         -2   -1    0    0    0  501 -0.00000000000E+00 -0.00000000000E+00 -0.40468990353E+02  0.40468990353E+02  0.00000000000E+00 0.  1.
         25    2    1    2    0    0 -0.61067265334E+02 -0.29469602591E+02  0.21021781236E+03  0.25384759782E+03  0.12509758557E+03 0.  0.
          5    1    3    3  502    0 -0.16391482004E+02  0.38986023937E+00 -0.14790748703E+02  0.22473791858E+02  0.41800000000E+01 0. -1.
         -5    1    3    3    0  502 -0.44675783330E+02 -0.29859462831E+02  0.22500856106E+03  0.23137380596E+03  0.41800000000E+01 0. -1.
        -11    1    1    2    0    0  0.31731367972E+02  0.33080330393E+02  0.15842393271E+03  0.16492219507E+03  0.00000000000E+00 0. -1.
         11    1    1    2    0    0  0.29335897362E+02 -0.36107278018E+01 -0.12271973273E+01  0.29582735549E+02  0.00000000000E+00 0.  1.
</event>
<event>
 7    1  0.2732144E-009  0.1049716E+03  0.7561462E-02  0.1270176E+00
         -1   -1    0    0    0  501 -0.00000000000E+00  0.00000000000E+00  0.22373454192E+03  0.22373454192E+03  0.00000000000E+00 0.  1.
          1   -1    0    0  501    0  0.00000000000E+00 -0.00000000000E+00 -0.52298605099E+02  0.52298605099E+02  0.00000000000E+00 0. -1.
         25    2    1    2    0    0 -0.21861278597E+02 -0.12005757956E+02  0.93628021533E+02  0.15822954085E+03  0.12509327503E+03 0.  0.
          5    1    3    3  502    0 -0.70093129284E+02  0.80271723003E+01  0.73871243403E+02  0.10223460896E+03  0.41800000000E+01 0.  1.
         -5    1    3    3    0  502  0.48231850687E+02 -0.20032930256E+02  0.19756778129E+02  0.55994931890E+02  0.41800000000E+01 0.  1.
        -11    1    1    2    0    0  0.32503957635E+02  0.43115290094E+02  0.37273376936E+02  0.65610518441E+02  0.00000000000E+00 0. -1.
         11    1    1    2    0    0 -0.10642679038E+02 -0.31109532138E+02  0.40534538355E+02  0.52193087728E+02  0.00000000000E+00 0.  1.
</event>
<event>
 7    1  0.2732144E-009  0.1108446E+03  0.7561462E-02  0.1259014E+00
         -2   -1    0    0    0  501 -0.00000000000E+00  0.00000000000E+00  0.42315935336E+02  0.42315935336E+02  0.00000000000E+00 0.  1.
          2   -1    0    0  501    0  0.00000000000E+00 -0.00000000000E+00 -0.42211171819E+03  0.42211171819E+03  0.00000000000E+00 0. -1.
         25    2    1    2    0    0  0.72418946439E+01  0.45431734398E+02 -0.31836628287E+03  0.34513955664E+03  0.12509091077E+03 0.  0.
          5    1    3    3  502    0  0.64426320070E+02  0.12696991974E+02 -0.13343937529E+03  0.14878005109E+03  0.41800000000E+01 0. -1.
         -5    1    3    3    0  502 -0.57184425426E+02  0.32734742424E+02 -0.18492690758E+03  0.19635950555E+03  0.41800000000E+01 0. -1.
        -11    1    1    2    0    0 -0.41712106719E+02 -0.33128630363E+02 -0.70398064097E+01  0.53730483628E+02  0.00000000000E+00 0.  1.
         11    1    1    2    0    0  0.34470212075E+02 -0.12303104035E+02 -0.54389693567E+02  0.65557613255E+02  0.00000000000E+00 0. -1.
</event>
<event>
 7    1  0.2732144E-009  0.1040502E+03  0.7561462E-02  0.1272002E+00
          1   -1    0    0  501    0  0.00000000000E+00  0.00000000000E+00  0.34240538186E+03  0.34240538186E+03  0.00000000000E+00 0. -1.
         -1   -1    0    0    0  501 -0.00000000000E+00 -0.00000000000E+00 -0.47800805114E+02  0.47800805114E+02  0.00000000000E+00 0.  1.
         25    2    1    2    0    0  0.19779495698E+02 -0.89023127656E+01  0.24889049883E+03  0.27940113501E+03  0.12509210294E+03 0.  0.
          5    1    3    3  502    0  0.27026763587E+02 -0.58319407856E+02  0.19697601399E+03  0.20724049259E+03  0.41800000000E+01 0.  1.
         -5    1    3    3    0  502 -0.72472678887E+01  0.49417095091E+02  0.51914484839E+02  0.72160642425E+02  0.41800000000E+01 0.  1.
        -11    1    1    2    0    0 -0.56316938629E+02  0.18008402119E+01  0.47275075280E+02  0.73551161410E+02  0.00000000000E+00 0. -1.
         11    1    1    2    0    0  0.36537442931E+02  0.71014725537E+01 -0.15609973601E+01  0.37253890550E+02  0.00000000000E+00 0.  1.
</event>
<event>
 7    1  0.2732144E-009  0.1468909E+03  0.7561462E-02  0.1204346E+00
         -2   -1    0    0    0  501 -0.00000000000E+00  0.00000000000E+00  0.24758427501E+02  0.24758427501E+02  0.00000000000E+00 0.  1.
          2   -1    0    0  501    0  0.00000000000E+00 -0.00000000000E+00 -0.12283514615E+04  0.12283514615E+04  0.00000000000E+00 0. -1.
         25    2    1    2    0    0  0.12716373056E+03 -0.25218481347E+02 -0.67267502421E+03  0.69638050883E+03  0.12509012233E+03 0.  0.
          5    1    3    3  502    0  0.61977553233E+02 -0.10178524020E+02 -0.89803348530E+02  0.10966737556E+03  0.41800000000E+01 0.  1.
         -5    1    3    3    0  502  0.65186177330E+02 -0.15039957327E+02 -0.58287167568E+03  0.58671313327E+03  0.41800000000E+01 0.  1.
        -11    1    1    2    0    0 -0.33263870550E+02 -0.38080505911E+02 -0.22265710826E+03  0.22832607796E+03  0.00000000000E+00 0.  1.
         11    1    1    2    0    0 -0.93899860013E+02  0.63298987258E+02 -0.30826090151E+03  0.32840330221E+03  0.00000000000E+00 0. -1.
</event>
<event>
 6    1  0.2732144E-009  0.7123635E+02  0.7561462E-02  0.1355939E+00
         -3   -1    0    0    0  501 -0.00000000000E+00  0.00000000000E+00  0.62537495619E+03  0.62537495619E+03  0.00000000000E+00 0.  1.
          3   -1    0    0  501    0  0.00000000000E+00 -0.00000000000E+00 -0.20535188529E+02  0.20535188529E+02  0.00000000000E+00 0. -1.
          5    1    1    2  502    0  0.16183893055E+02  0.11236719730E+02 -0.32374195759E+01  0.20399400732E+02  0.41800000000E+01 0.  1.
         -5    1    1    2    0  502 -0.24486910548E+02  0.18200211476E+02  0.32125567621E+03  0.32272827330E+03  0.41800000000E+01 0.  1.
        -11    1    1    2    0    0 -0.38587921149E+02 -0.57869678786E+01  0.74944104541E+02  0.84493404839E+02  0.00000000000E+00 0.  1.
         11    1    1    2    0    0  0.46890938642E+02 -0.23649963328E+02  0.21187740648E+03  0.21828906585E+03  0.00000000000E+00 0. -1.
</event>
<event>
 7    1  0.2732144E-009  0.1144601E+03  0.7561462E-02  0.1252526E+00
          3   -1    0    0  501    0  0.00000000000E+00  0.00000000000E+00  0.51660261858E+03  0.51660261858E+03  0.00000000000E+00 0. -1.
         -3   -1    0    0    0  501 -0.00000000000E+00 -0.00000000000E+00 -0.38953711738E+02  0.38953711738E+02  0.00000000000E+00 0.  1.
         25    2    1    2    0    0 -0.62369707828E+02 -0.53876529161E+02  0.18666382590E+03  0.23934145802E+03  0.12509312043E+03 0.  0.
          5    1    3    3  502    0 -0.65364231794E+02 -0.87890929675E+02  0.10988346199E+03  0.15520678444E+03  0.41800000000E+01 0.  1.
         -5    1    3    3    0  502  0.29945239661E+01  0.34014400515E+02  0.76780363918E+02  0.84134673587E+02  0.41800000000E+01 0.  1.
        -11    1    1    2    0    0  0.23960694806E+02  0.84211828447E+01  0.74008023100E+01  0.26453791618E+02  0.00000000000E+00 0.  1.
         11    1    1    2    0    0  0.38409013021E+02  0.45455346316E+02  0.28358427863E+03  0.28976108068E+03  0.00000000000E+00 0. -1.
</event>
<event>
 7    1  0.2732144E-009  0.9810680E+02  0.7561462E-02  0.1284328E+00
          1   -1    0    0  501    0  0.00000000000E+00  0.00000000000E+00  0.39692358297E+02  0.39692358297E+02  0.00000000000E+00 0. -1.
         -1   -1    0    0    0  501 -0.00000000000E+00 -0.00000000000E+00 -0.42346081632E+03  0.42346081632E+03  0.00000000000E+00 0.  1.
         25    2    1    2    0    0  0.28598194759E+02 -0.60653869266E+02 -0.24770743241E+03  0.28548998445E+03  0.12509520594E+03 0.  0.
          5    1    3    3  502    0 -0.35293941303E+02  0.10999042492E+01 -0.19490972960E+02  0.40549260276E+02  0.41800000000E+01 0. -1.
         -5    1    3    3    0  502  0.63892136062E+02 -0.61753773515E+02 -0.22821645945E+03  0.24494072417E+03  0.41800000000E+01 0. -1.
        -11    1    1    2    0    0 -0.29280325341E+02  0.33319143743E+02 -0.14277600241E+03  0.14950749030E+03  0.00000000000E+00 0.  1.
         11    1    1    2    0    0  0.68213058189E+00  0.27334725523E+02  0.67149767982E+01  0.28155699866E+02  0.00000000000E+00 0. -1.
</event>
<event>
 7    1  0.2732144E-009  0.1310322E+03  0.7561462E-02  0.1225932E+00
          1   -1    0    0  501    0  0.00000000000E+00  0.00000000000E+00  0.41782376940E+03  0.41782376940E+03  0.00000000000E+00 0. -1.
         -1   -1    0    0    0  501 -0.00000000000E+00 -0.00000000000E+00 -0.53102299197E+02  0.53102299197E+02  0.00000000000E+00 0.  1.
         25    2    1    2    0    0  0.10048458816E+03  0.76593926134E+01  0.28585119664E+03  0.32789433300E+03  0.12509183921E+03 0.  0.
          5    1    3    3  502    0 -0.28744191729E+02 -0.12534477316E+01  0.34661403066E+02  0.45240302296E+02  0.41800000000E+01 0.  1.
         -5    1    3    3    0  502  0.12922877989E+03  0.89128403450E+01  0.25118979357E+03  0.28265403070E+03  0.41800000000E+01 0.  1.
        -11    1    1    2    0    0 -0.39494561672E+02 -0.14374235334E+02 -0.13320475951E+01  0.42050129535E+02  0.00000000000E+00 0.  1.
         11    1    1    2    0    0 -0.60990026492E+02  0.67148427207E+01  0.80202321157E+02  0.10098160606E+03  0.00000000000E+00 0. -1.
</event>
<event>
 7    1  0.2732144E-009  0.1797623E+03  0.7561462E-02  0.1168033E+00
          2   -1    0    0  501    0  0.00000000000E+00  0.00000000000E+00  0.12897747634E+04  0.12897747634E+04  0.00000000000E+00 0. -1.
         -2   -1    0    0    0  501 -0.00000000000E+00 -0.00000000000E+00 -0.26294478004E+02  0.26294478004E+02  0.00000000000E+00 0.  1.
         25    2    1    2    0    0 -0.12351921476E+03 -0.72790588113E+02  0.52954066280E+03  0.56268466198E+03  0.12508097033E+03 0.  0.
          5    1    3    3  502    0 -0.67802121698E+02  0.28910072180E+02  0.18837867355E+03  0.20232873506E+03  0.41800000000E+01 0. -1.
         -5    1    3    3    0  502 -0.55717093065E+02 -0.10170066029E+03  0.34116198924E+03  0.36035592692E+03  0.41800000000E+01 0. -1.
        -11    1    1    2    0    0  0.12819963705E+03  0.36815466532E+02  0.55475324230E+03  0.57056260424E+03  0.00000000000E+00 0.  1.
         11    1    1    2    0    0 -0.46804222885E+01  0.35975121582E+02  0.17918638033E+03  0.18282197521E+03  0.00000000000E+00 0. -1.
</event>
<event>
 7    1  0.2732144E-009  0.1034440E+03  0.7561462E-02  0.1273216E+00
          2   -1    0    0  501    0  0.00000000000E+00  0.00000000000E+00  0.77486545988E+03  0.77486545988E+03  0.00000000000E+00 0. -1.
         -2   -1    0    0    0  501 -0.00000000000E+00 -0.00000000000E+00 -0.21978630245E+02  0.21978630245E+02  0.00000000000E+00 0.  1.
         25    2    1    2    0    0 -0.37262228631E+02  0.16620385035E+02  0.22956688724E+03  0.26460722280E+03  0.12510521876E+03 0.  0.
          5    1    3    3  502    0 -0.17868596455E+02 -0.43152084128E+02  0.30802552603E+02  0.56103999418E+02  0.41800000000E+01 0. -1.
         -5    1    3    3    0  502 -0.19393632177E+02  0.59772469163E+02  0.19876433463E+03  0.20850322338E+03  0.41800000000E+01 0. -1.
        -11    1    1    2    0    0 -0.26326150698E+02  0.98917347645E+01  0.15158518495E+03  0.15417192002E+03  0.00000000000E+00 0. -1.
         11    1    1    2    0    0  0.63588379329E+02 -0.26512119799E+02  0.37173475745E+03  0.37806494731E+03  0.00000000000E+00 0.  1.
</event>
<event>
 7    1  0.2732144E-009  0.1059742E+03  0.7561462E-02  0.1268212E+00
         -2   -1    0    0    0  501 -0.00000000000E+00  0.00000000000E+00  0.17412415538E+03  0.17412415538E+03  0.00000000000E+00 0.  1.
          2   -1    0    0  501    0  0.00000000000E+00 -0.00000000000E+00 -0.76920326723E+02  0.76920326723E+02  0.00000000000E+00 0. -1.
         25    2    1    2    0    0 -0.38120064789E+02  0.22711712589E+01  0.50680880096E+02  0.14026540951E+03  0.12509011128E+03 0.  0.
          5    1    3    3  502    0 -0.35700687910E+02 -0.50024066479E+02  0.61057871708E+02  0.86732245687E+02  0.41800000000E+01 0. -1.
         -5    1    3    3    0  502 -0.24193768795E+01  0.52295237738E+02 -0.10376991612E+02  0.53533163828E+02  0.41800000000E+01 0. -1.
        -11    1    1    2    0    0 -0.18651324337E+02  0.27885439266E+02  0.28492005205E+02  0.44014361101E+02  0.00000000000E+00 0.  1.
         11    1    1    2    0    0  0.56771389126E+02 -0.30156610525E+02  0.18030943356E+02  0.66764711487E+02  0.00000000000E+00 0. -1.
</event>
<event>
 7    1  0.2732144E-009  0.8764540E+02  0.7561462E-02  0.1308656E+00
          2   -1    0    0  501    0  0.00000000000E+00  0.00000000000E+00  0.75125226102E+03  0.75125226102E+03  0.00000000000E+00 0. -1.
         -2   -1    0    0    0  501 -0.00000000000E+00 -0.00000000000E+00 -0.25170204778E+02  0.25170204778E+02  0.00000000000E+00 0.  1.
         25    2    1    2    0    0 -0.15951375300E+02 -0.56443387154E+02  0.62206179343E+03  0.63721878650E+03  0.12508638894E+03 0.  0.
          5    1    3    3  502    0 -0.27871231949E+02 -0.63536674157E+02  0.15429885421E+03  0.16923156722E+03  0.41800000000E+01 0. -1.
         -5    1    3    3    0  502  0.11919856650E+02  0.70932870026E+01  0.46776293921E+03  0.46798721927E+03  0.41800000000E+01 0. -1.
        -11    1    1    2    0    0 -0.18637685111E+02  0.53418040087E+02  0.53237147745E+02  0.77685547002E+02  0.00000000000E+00 0. -1.
         11    1    1    2    0    0  0.34589060410E+02  0.30253470671E+01  0.50783115069E+02  0.61518132295E+02  0.00000000000E+00 0.  1.
</event>
<event>
 7    1  0.2732144E-009  0.8647812E+02  0.7561462E-02  0.1311612E+00
         -3   -1    0    0    0  501 -0.00000000000E+00  0.00000000000E+00  0.52713586383E+02  0.52713586383E+02  0.00000000000E+00 0.  1.
          3   -1    0    0  501    0  0.00000000000E+00 -0.00000000000E+00 -0.38150352542E+03  0.38150352542E+03  0.00000000000E+00 0. -1.
         25    2    1    2    0    0 -0.57331203348E+02 -0.22609598343E+02 -0.28455588128E+03  0.31688830720E+03  0.12509232131E+03 0.  0.
          5    1    3    3  502    0 -0.43050884245E+02  0.19891806690E+02 -0.26243361444E+03  0.26671696046E+03  0.41800000000E+01 0. -1.
         -5    1    3    3    0  502 -0.14280319102E+02 -0.42501405033E+02 -0.22122266843E+02  0.50171346740E+02  0.41800000000E+01 0. -1.
        -11    1    1    2    0    0 -0.97120381244E+01  0.53498589051E+01  0.20014087530E+02  0.22880305385E+02  0.00000000000E+00 0.  1.
         11    1    1    2    0    0  0.67043241472E+02  0.17259739438E+02 -0.64248145284E+02  0.94448499220E+02  0.00000000000E+00 0. -1.
</event>
<event>
 7    1  0.2732144E-009  0.1013757E+03  0.7561462E-02  0.1277429E+00
         -2   -1    0    0    0  501 -0.00000000000E+00  0.00000000000E+00  0.29481923732E+02  0.29481923732E+02  0.00000000000E+00 0.  1.
          2   -1    0    0  501    0  0.00000000000E+00 -0.00000000000E+00 -0.43136903248E+03  0.43136903248E+03  0.00000000000E+00 0. -1.
         25    2    1    2    0    0 -0.79779442158E+01 -0.11806066515E+02 -0.28564633802E+03  0.31216146231E+03  0.12509163573E+03 0.  0.
          5    1    3    3  502    0  0.30721646332E+02  0.38785816938E+02 -0.19547234250E+03  0.20168060946E+03  0.41800000000E+01 0. -1.
         -5    1    3    3    0  502 -0.38699590548E+02 -0.50591883453E+02 -0.90173995513E+02  0.11048085285E+03  0.41800000000E+01 0. -1.
        -11    1    1    2    0    0 -0.42925294552E+01  0.49467380186E+02 -0.84169105040E+02  0.97723516897E+02  0.00000000000E+00 0. -1.
         11    1    1    2    0    0  0.12270473671E+02 -0.37661313671E+02 -0.32071665691E+02  0.50965977002E+02  0.00000000000E+00 0.  1.
</event>
<event>
 7    1  0.2990951E-009  0.6805398E+02  0.7561462E-02  0.1366838E+00
         -1   -1    0    0    0  501 -0.00000000000E+00  0.00000000000E+00  0.20762229595E+02  0.20762229595E+02  0.00000000000E+00 0.  1.
          1   -1    0    0  501    0  0.00000000000E+00 -0.00000000000E+00 -0.79152046788E+03  0.79152046788E+03  0.00000000000E+00 0. -1.
         25    2    1    2    0    0  0.62627714912E+01 -0.61647601416E+02 -0.51537043474E+03  0.53394188465E+03  0.12509037581E+03 0.  0.
          5    1    3    3  502    0 -0.38349365341E+01 -0.19393114522E+02 -0.47193246106E+03  0.47236481646E+03  0.41800000000E+01 0.  1.
         -5    1    3    3    0  502  0.10097708025E+02 -0.42254486895E+02 -0.43437973680E+02  0.61577068195E+02  0.41800000000E+01 0.  1.
        -11    1    1    2    0    0  0.13979025859E+02  0.11240153221E+02 -0.72813584926E+00  0.17952280919E+02  0.00000000000E+00 0.  1.
         11    1    1    2    0    0 -0.20241797350E+02  0.50407448195E+02 -0.25465966770E+03  0.26038853191E+03  0.00000000000E+00 0. -1.
</event>
<event>
 7    1  0.2732144E-009  0.5939223E+02  0.7561462E-02  0.1400400E+00
         -1   -1    0    0    0  501 -0.00000000000E+00  0.00000000000E+00  0.21865076000E+03  0.21865076000E+03  0.00000000000E+00 0.  1.
          1   -1    0    0  501    0  0.00000000000E+00 -0.00000000000E+00 -0.65398111064E+02  0.65398111064E+02  0.00000000000E+00 0. -1.
         25    2    1    2    0    0 -0.23725325292E+02 -0.26061390318E+02  0.61373681640E+02  0.14372082733E+03  0.12508741057E+03 0.  0.
          5    1    3    3  502    0 -0.12589874552E+01  0.94650036288E+01 -0.36053773705E+02  0.37530232366E+02  0.41800000000E+01 0.  1.
         -5    1    3    3    0  502 -0.22466337837E+02 -0.35526393947E+02  0.97427455345E+02  0.10619059496E+03  0.41800000000E+01 0.  1.
        -11    1    1    2    0    0 -0.19258163332E+01  0.37843334696E+02  0.10318338503E+03  0.10992105211E+03  0.00000000000E+00 0.  1.
         11    1    1    2    0    0  0.25651141625E+02 -0.11781944378E+02 -0.11304417734E+02  0.30406991636E+02  0.00000000000E+00 0. -1.
</event>
<event>
 7    1  0.2732144E-009  0.1231137E+03  0.7561462E-02  0.1238047E+00
          4   -1    0    0  501    0  0.00000000000E+00  0.00000000000E+00  0.15727056492E+03  0.15727056492E+03  0.00000000000E+00 0.  1.
         -4   -1    0    0    0  501 -0.00000000000E+00 -0.00000000000E+00 -0.19640919475E+03  0.19640919475E+03  0.00000000000E+00 0. -1.
         25    2    1    2    0    0 -0.10258727538E+02 -0.10051799060E+03 -0.11482174801E+03  0.19758568057E+03  0.12508780686E+03 0.  0.
          5    1    3    3  502    0  0.38976872458E+02 -0.39716440451E+02  0.32338167098E+01  0.55897425694E+02  0.41800000000E+01 0. -1.
         -5    1    3    3    0  502 -0.49235599996E+02 -0.60801550149E+02 -0.11805556472E+03  0.14168825487E+03  0.41800000000E+01 0. -1.
        -11    1    1    2    0    0 -0.91538198887E+01  0.89068805204E+02  0.91916755208E+02  0.12831887767E+03  0.00000000000E+00 0.  1.
         11    1    1    2    0    0  0.19412547426E+02  0.11449185396E+02 -0.16233637030E+02  0.27775201440E+02  0.00000000000E+00 0. -1.
</event>
<event>
 7    1  0.2732144E-009  0.1828412E+03  0.7561462E-02  0.1165081E+00
         -2   -1    0    0    0  501 -0.00000000000E+00  0.00000000000E+00  0.41353065839E+02  0.41353065839E+02  0.00000000000E+00 0.  1.
          2   -1    0    0  501    0  0.00000000000E+00 -0.00000000000E+00 -0.12982475369E+04  0.12982475369E+04  0.00000000000E+00 0. -1.
         25    2    1    2    0    0 -0.14537178767E+02 -0.15094764501E+03 -0.97941813542E+03  0.99895139558E+03  0.12508991023E+03 0.  0.
          5    1    3    3  502    0 -0.29979118083E+02  0.72165973223E+01 -0.27842541135E+03  0.28015889935E+03  0.41800000000E+01 0. -1.
         -5    1    3    3    0  502  0.15441939316E+02 -0.15816424233E+03 -0.70099272407E+03  0.71879249623E+03  0.41800000000E+01 0. -1.
        -11    1    1    2    0    0  0.37338033723E+02  0.14795942020E+03 -0.27856963933E+03  0.31762739609E+03  0.00000000000E+00 0. -1.
         11    1    1    2    0    0 -0.22800854956E+02  0.29882248049E+01  0.10933036455E+01  0.23021811116E+02  0.00000000000E+00 0.  1.
</event>
<event>
 7    1  0.2732144E-009  0.2226883E+03  0.7561462E-02  0.1131895E+00
         -1   -1    0    0    0  501 -0.00000000000E+00  0.00000000000E+00  0.57324707398E+03  0.57324707398E+03  0.00000000000E+00 0.  1.
          1   -1    0    0  501    0  0.00000000000E+00 -0.00000000000E+00 -0.10086403816E+03  0.10086403816E+03  0.00000000000E+00 0. -1.
         25    2    1    2    0    0  0.15982306033E+03  0.13750263072E+03  0.26324175728E+03  0.35971757719E+03  0.12510047362E+03 0.  0.
          5    1    3    3  502    0  0.31085147580E+02  0.46851942315E+02  0.41852469876E+01  0.56536533243E+02  0.41800000000E+01 0.  1.
         -5    1    3    3    0  502  0.12873791275E+03  0.90650688408E+02  0.25905651029E+03  0.30318104395E+03  0.41800000000E+01 0.  1.
        -11    1    1    2    0    0  0.12479438418E+02 -0.17586489090E+02  0.37386372592E+02  0.43159724713E+02  0.00000000000E+00 0.  1.
         11    1    1    2    0    0 -0.17230249874E+03 -0.11991614163E+03  0.17175490596E+03  0.27123381024E+03  0.00000000000E+00 0. -1.
</event>
<event>
 7    1  0.2732144E-009  0.1103076E+03  0.7561462E-02  0.1260001E+00
         -3   -1    0    0    0  501 -0.00000000000E+00  0.00000000000E+00  0.97784182260E+02  0.97784182260E+02  0.00000000000E+00 0.  1.
          3   -1    0    0  501    0  0.00000000000E+00 -0.00000000000E+00 -0.14293827640E+03  0.14293827640E+03  0.00000000000E+00 0. -1.
         25    2    1    2    0    0 -0.44309352286E+02 -0.10380375331E+02 -0.29222537051E+02  0.13628021140E+03  0.12508904210E+03 0.  0.
          5    1    3    3  502    0 -0.63600059341E+02  0.42213814100E+02 -0.22573288868E+02  0.79711977891E+02  0.41800000000E+01 0. -1.
         -5    1    3    3    0  502  0.19290707055E+02 -0.52594189431E+02 -0.66492481827E+01  0.56568233505E+02  0.41800000000E+01 0. -1.
        -11    1    1    2    0    0  0.17766873142E+02 -0.32800871766E+02  0.19985653566E+02  0.42320034479E+02  0.00000000000E+00 0.  1.
         11    1    1    2    0    0  0.26542479144E+02  0.43181247097E+02 -0.35917210654E+02  0.62122212784E+02  0.00000000000E+00 0. -1.
</event>
<event>
 7    1  0.3257606E-009  0.2557666E+03  0.7561462E-02  0.1109714E+00
          2   -1    0    0  501    0  0.00000000000E+00  0.00000000000E+00  0.39596413240E+03  0.39596413240E+03  0.00000000000E+00 0. -1.
         -2   -1    0    0    0  501 -0.00000000000E+00 -0.00000000000E+00 -0.18546606383E+03  0.18546606383E+03  0.00000000000E+00 0.  1.
         25    2    1    2    0    0 -0.13214198737E+03  0.20785864012E+03  0.77011561310E+02  0.28678392633E+03  0.12509005046E+03 0.  0.
          5    1    3    3  502    0  0.82646026567E+01  0.45903833016E+02 -0.20677839282E+02  0.51190926735E+02  0.41800000000E+01 0. -1.
         -5    1    3    3    0  502 -0.14040659003E+03  0.16195480711E+03  0.97689400591E+02  0.23559299959E+03  0.41800000000E+01 0. -1.
        -11    1    1    2    0    0  0.30081346272E+02 -0.87432430038E+02  0.94153219525E+02  0.13196266882E+03  0.00000000000E+00 0.  1.
         11    1    1    2    0    0  0.10206064110E+03 -0.12042621009E+03  0.39333287731E+02  0.16268360108E+03  0.00000000000E+00 0. -1.
</event>
<event>
 7    1  0.2732144E-009  0.1973866E+03  0.7561462E-02  0.1151963E+00
          1   -1    0    0  501    0  0.00000000000E+00  0.00000000000E+00  0.66727642680E+03  0.66727642680E+03  0.00000000000E+00 0. -1.
         -1   -1    0    0    0  501 -0.00000000000E+00 -0.00000000000E+00 -0.87209677743E+02  0.87209677743E+02  0.00000000000E+00 0.  1.
         25    2    1    2    0    0  0.17736868642E+03 -0.69805326760E+02  0.45566178089E+03  0.50951726729E+03  0.12509097703E+03 0.  0.
          5    1    3    3  502    0  0.14330411885E+03 -0.79160390076E+02  0.44208255121E+03  0.47144129255E+03  0.41800000000E+01 0. -1.
         -5    1    3    3    0  502  0.34064567573E+02  0.93550633156E+01  0.13579229678E+02  0.38075974737E+02  0.41800000000E+01 0. -1.
        -11    1    1    2    0    0 -0.10267481993E+03  0.17277146451E+02  0.11182406940E+03  0.15279149496E+03  0.00000000000E+00 0. -1.
         11    1    1    2    0    0 -0.74693866490E+02  0.52528180309E+02  0.12580898766E+02  0.92177342290E+02  0.00000000000E+00 0.  1.
</event>
<event>
 7    1  0.2732144E-009  0.9654361E+02  0.7561462E-02  0.1287737E+00
         -1   -1    0    0    0  501 -0.00000000000E+00  0.00000000000E+00  0.28550433782E+03  0.28550433782E+03  0.00000000000E+00 0.  1.
          1   -1    0    0  501    0  0.00000000000E+00 -0.00000000000E+00 -0.56605960143E+02  0.56605960143E+02  0.00000000000E+00 0. -1.
         25    2    1    2    0    0 -0.42639339621E+02 -0.11924891410E+02  0.58789608234E+02  0.14513835492E+03  0.12509439522E+03 0.  0.
          5    1    3    3  502    0  0.33215866711E+02  0.28622991301E+00 -0.16641121234E+02  0.37386829832E+02  0.41800000000E+01 0. -1.
         -5    1    3    3    0  502 -0.75855206333E+02 -0.12211121323E+02  0.75430729468E+02  0.10775152509E+03  0.41800000000E+01 0. -1.
        -11    1    1    2    0    0 -0.19345363564E+02 -0.89552339421E+00  0.47894921327E+01  0.19949543565E+02  0.00000000000E+00 0. -1.
         11    1    1    2    0    0  0.61984703185E+02  0.12820414804E+02  0.16531927731E+03  0.17702239947E+03  0.00000000000E+00 0.  1.
</event>
<event>
 7    1  0.3966235E-009  0.1580627E+03  0.7561462E-02  0.1190901E+00
         -1   -1    0    0    0  501 -0.00000000000E+00  0.00000000000E+00  0.42421257820E+02  0.42421257820E+02  0.00000000000E+00 0. -1.
          1   -1    0    0  501    0  0.00000000000E+00 -0.00000000000E+00 -0.80887483120E+03  0.80887483120E+03  0.00000000000E+00 0.  1.
         25    2    1    2    0    0 -0.98036181567E+02 -0.88197387017E+02 -0.24084743966E+03  0.30173636510E+03  0.12508985914E+03 0.  0.
          5    1    3    3  502    0 -0.64871204364E+02 -0.37886993313E+01 -0.29051955134E+02  0.71302986581E+02  0.41800000000E+01 0. -1.
         -5    1    3    3    0  502 -0.33164977203E+02 -0.84408687686E+02 -0.21179548453E+03  0.23043337852E+03  0.41800000000E+01 0. -1.
        -11    1    1    2    0    0  0.74552266715E+01  0.66713595090E+02 -0.20497910289E+03  0.21569125341E+03  0.00000000000E+00 0.  1.
         11    1    1    2    0    0  0.90580954895E+02  0.21483791927E+02 -0.32062703083E+03  0.33386847051E+03  0.00000000000E+00 0. -1.
</event>
<event>
 7    1  0.2732144E-009  0.1089728E+03  0.7561462E-02  0.1262484E+00
         -2   -1    0    0    0  501 -0.00000000000E+00  0.00000000000E+00  0.32014503905E+03  0.32014503905E+03  0.00000000000E+00 0. -1.
          2   -1    0    0  501    0  0.00000000000E+00 -0.00000000000E+00 -0.43378618100E+02  0.43378618100E+02  0.00000000000E+00 0.  1.
         25    2    1    2    0    0 -0.32189128594E+02  0.18730447440E+02  0.19643475810E+03  0.23583487223E+03  0.12507798812E+03 0.  0.
          5    1    3    3  502    0 -0.50033849356E+02 -0.35670303323E+02  0.14948435707E+03  0.16167498888E+03  0.41800000000E+01 0. -1.
         -5    1    3    3    0  502  0.17844720762E+02  0.54400750763E+02  0.46950401029E+02  0.74159883356E+02  0.41800000000E+01 0. -1.
        -11    1    1    2    0    0  0.58881489761E+02  0.10011569725E+02  0.43567097031E+02  0.73928027896E+02  0.00000000000E+00 0.  1.
         11    1    1    2    0    0 -0.26692361167E+02 -0.28742017165E+02  0.36764565822E+02  0.53760757021E+02  0.00000000000E+00 0. -1.
</event>
<event>
 7    1  0.2732144E-009  0.1310363E+03  0.7561462E-02  0.1225926E+00
         -1   -1    0    0    0  501 -0.00000000000E+00  0.00000000000E+00  0.33804618263E+02  0.33804618263E+02  0.00000000000E+00 0.  1.
          1   -1    0    0  501    0  0.00000000000E+00 -0.00000000000E+00 -0.62899320696E+03  0.62899320696E+03  0.00000000000E+00 0. -1.
         25    2    1    2    0    0  0.74023490058E+02 -0.61767924365E+02 -0.28494871683E+03  0.32578961395E+03  0.12509335624E+03 0.  0.
          5    1    3    3  502    0 -0.12604665260E+02 -0.55101142990E+02 -0.51197995226E+02  0.76378797190E+02  0.41800000000E+01 0. -1.
         -5    1    3    3    0  502  0.86628155318E+02 -0.66667813753E+01 -0.23375072161E+03  0.24941081676E+03  0.41800000000E+01 0. -1.
        -11    1    1    2    0    0 -0.58347376804E+02  0.39246474064E+01 -0.79990677878E+02  0.99087475418E+02  0.00000000000E+00 0.  1.
         11    1    1    2    0    0 -0.15676113253E+02  0.57843276959E+02 -0.23024919398E+03  0.23792073585E+03  0.00000000000E+00 0. -1.
</event>
<event>
 7    1  0.2732144E-009  0.1755024E+03  0.7561462E-02  0.1172228E+00
          2   -1    0    0  501    0  0.00000000000E+00  0.00000000000E+00  0.25843681083E+04  0.25843681083E+04  0.00000000000E+00 0. -1.
         -2   -1    0    0    0  501 -0.00000000000E+00 -0.00000000000E+00 -0.15560236861E+02  0.15560236861E+02  0.00000000000E+00 0.  1.
         25    2    1    2    0    0  0.14096431799E+03 -0.47317695644E+02  0.19184905988E+04  0.19283058955E+04  0.12509014990E+03 0.  0.
          5    1    3    3  502    0  0.52036410526E+02 -0.79868445368E+02  0.76510338609E+03  0.77103010343E+03  0.41800000000E+01 0.  1.
         -5    1    3    3    0  502  0.88927907466E+02  0.32550749724E+02  0.11533872127E+04  0.11572757920E+04  0.41800000000E+01 0.  1.
        -11    1    1    2    0    0 -0.11160085851E+03  0.82212524120E+01  0.53122786955E+03  0.54288616670E+03  0.00000000000E+00 0. -1.
         11    1    1    2    0    0 -0.29363459485E+02  0.39096443232E+02  0.11908940309E+03  0.12873628297E+03  0.00000000000E+00 0.  1.
</event>
<event>
 7    1  0.2732144E-009  0.1800814E+03  0.7561462E-02  0.1167724E+00
         -1   -1    0    0    0  501 -0.00000000000E+00  0.00000000000E+00  0.86775871087E+02  0.86775871087E+02  0.00000000000E+00 0.  1.
          1   -1    0    0  501    0  0.00000000000E+00 -0.00000000000E+00 -0.46691460999E+03  0.46691460999E+03  0.00000000000E+00 0. -1.
         25    2    1    2    0    0 -0.15909164869E+03  0.58093178877E+01 -0.27690457515E+03  0.34302734916E+03  0.12509083770E+03 0.  0.
          5    1    3    3  502    0 -0.98978892495E+02  0.55409524981E+02 -0.21607515894E+03  0.24407577374E+03  0.41800000000E+01 0. -1.
         -5    1    3    3    0  502 -0.60112756196E+02 -0.49600207093E+02 -0.60829416214E+02  0.98951575420E+02  0.41800000000E+01 0. -1.
        -11    1    1    2    0    0  0.14606341972E+03 -0.22122790233E+02 -0.54180282199E+02  0.15735133749E+03  0.00000000000E+00 0.  1.
         11    1    1    2    0    0  0.13028228966E+02  0.16313472345E+02 -0.49053881547E+02  0.53311794425E+02  0.00000000000E+00 0. -1.
</event>
<event>
 7    1  0.2732144E-009  0.1131425E+03  0.7561462E-02  0.1254859E+00
         -2   -1    0    0    0  501 -0.00000000000E+00  0.00000000000E+00  0.66961472759E+02  0.66961472759E+02  0.00000000000E+00 0.  1.
          2   -1    0    0  501    0  0.00000000000E+00 -0.00000000000E+00 -0.35015982949E+03  0.35015982949E+03  0.00000000000E+00 0. -1.
         25    2    1    2    0    0  0.23444109806E+02 -0.76998594369E+02 -0.24822403515E+03  0.28938020583E+03  0.12508925647E+03 0.  0.
          5    1    3    3  502    0  0.14962239943E+02 -0.88049403497E+02 -0.78339934466E+02  0.11887465589E+03  0.41800000000E+01 0.  1.
         -5    1    3    3    0  502  0.84818698634E+01  0.11050809128E+02 -0.16988410068E+03  0.17050554995E+03  0.41800000000E+01 0.  1.
        -11    1    1    2    0    0 -0.42431786143E+02 -0.60763672409E+00 -0.65418436617E+01  0.42937412779E+02  0.00000000000E+00 0.  1.
         11    1    1    2    0    0  0.18987676337E+02  0.77606231093E+02 -0.28432477922E+02  0.84803683634E+02  0.00000000000E+00 0. -1.
</event>
<event>
 7    1  0.2732144E-009  0.1142774E+03  0.7561462E-02  0.1252848E+00
          2   -1    0    0  501    0  0.00000000000E+00  0.00000000000E+00  0.54111757907E+03  0.54111757907E+03  0.00000000000E+00 0. -1.
         -2   -1    0    0    0  501 -0.00000000000E+00 -0.00000000000E+00 -0.62423837710E+02  0.62423837710E+02  0.00000000000E+00 0.  1.
         25    2    1    2    0    0 -0.50422787923E+02 -0.23210534543E+02  0.47722366265E+03  0.49645932454E+03  0.12509296653E+03 0.  0.
          5    1    3    3  502    0  0.85998007016E+01  0.44515622214E+02  0.12858548443E+03  0.13640856424E+03  0.41800000000E+01 0. -1.
         -5    1    3    3    0  502 -0.59022588624E+02 -0.67726156756E+02  0.34863817822E+03  0.36005076030E+03  0.41800000000E+01 0. -1.
        -11    1    1    2    0    0  0.34274324050E+02 -0.24885681134E+02  0.27056959807E+02  0.50260376924E+02  0.00000000000E+00 0. -1.
         11    1    1    2    0    0  0.16148463873E+02  0.48096215676E+02 -0.25586881092E+02  0.56821715320E+02  0.00000000000E+00 0.  1.
</event>
<event>
 7    1  0.2732144E-009  0.2164122E+03  0.7561462E-02  0.1136586E+00
          2   -1    0    0  501    0  0.00000000000E+00  0.00000000000E+00  0.12408575706E+04  0.12408575706E+04  0.00000000000E+00 0.  1.
         -2   -1    0    0    0  501 -0.00000000000E+00 -0.00000000000E+00 -0.13924096328E+03  0.13924096328E+03  0.00000000000E+00 0. -1.
         25    2    1    2    0    0 -0.55596074617E+02  0.19042971567E+03  0.11357315618E+04  0.11596929601E+04  0.12508869302E+03 0.  0.
          5    1    3    3  502    0 -0.49500055728E+02  0.20675797675E+03  0.10905205316E+04  0.11110587827E+04  0.41800000000E+01 0. -1.
         -5    1    3    3    0  502 -0.60960188886E+01 -0.16328261080E+02  0.45211030264E+02  0.48634177424E+02  0.41800000000E+01 0. -1.
        -11    1    1    2    0    0 -0.58080089784E+01 -0.28328035281E+02  0.24001856311E+02  0.37580575535E+02  0.00000000000E+00 0.  1.
         11    1    1    2    0    0  0.61404083595E+02 -0.16210168039E+03 -0.58116810829E+02  0.18282499821E+03  0.00000000000E+00 0. -1.
</event>
<event>
 7    1  0.2732144E-009  0.9063980E+02  0.7561462E-02  0.1301310E+00
          1   -1    0    0  501    0  0.00000000000E+00  0.00000000000E+00  0.39819920255E+02  0.39819920255E+02  0.00000000000E+00 0.  1.
         -1   -1    0    0    0  501 -0.00000000000E+00 -0.00000000000E+00 -0.46815272403E+03  0.46815272403E+03  0.00000000000E+00 0. -1.
         25    2    1    2    0    0 -0.14973120118E+02  0.73605548142E+02 -0.29220759620E+03  0.32661330736E+03  0.12509597205E+03 0.  0.
          5    1    3    3  502    0  0.24528262482E+01  0.30458662347E+02 -0.14979691799E+00  0.30842200111E+02  0.41800000000E+01 0. -1.
         -5    1    3    3    0  502 -0.17425946366E+02  0.43146885795E+02 -0.29205779928E+03  0.29577110725E+03  0.41800000000E+01 0. -1.
        -11    1    1    2    0    0  0.43121780464E+02 -0.32956339450E+02 -0.25048156486E+02  0.59774730478E+02  0.00000000000E+00 0.  1.
         11    1    1    2    0    0 -0.28148660346E+02 -0.40649208693E+02 -0.11107705109E+03  0.12158460645E+03  0.00000000000E+00 0. -1.
</event>
<event>
 7    1  0.2991790E-009  0.1085093E+03  0.7561462E-02  0.1263356E+00
         -1   -1    0    0    0  501 -0.00000000000E+00  0.00000000000E+00  0.71945655639E+02  0.71945655639E+02  0.00000000000E+00 0.  1.
          1   -1    0    0  501    0  0.00000000000E+00 -0.00000000000E+00 -0.34672072730E+03  0.34672072730E+03  0.00000000000E+00 0. -1.
         25    2    1    2    0    0 -0.58017053924E+02 -0.52170479098E+02 -0.25876219369E+03  0.29781453421E+03  0.12509151238E+03 0.  0.
          5    1    3    3  502    0 -0.90039489528E+02 -0.22317998034E+02 -0.22148586576E+03  0.24016382709E+03  0.41800000000E+01 0.  1.
         -5    1    3    3    0  502  0.32022435604E+02 -0.29852481064E+02 -0.37276327926E+02  0.57650707119E+02  0.41800000000E+01 0.  1.
        -11    1    1    2    0    0  0.19926679940E+02  0.30283201822E+02  0.37136649198E+02  0.51896778317E+02  0.00000000000E+00 0.  1.
         11    1    1    2    0    0  0.38090373984E+02  0.21887277276E+02 -0.53149527171E+02  0.68955070410E+02  0.00000000000E+00 0. -1.
</event>
<event>
 7    1  0.2732144E-009  0.1280758E+03  0.7561462E-02  0.1230339E+00
         -2   -1    0    0    0  501 -0.00000000000E+00  0.00000000000E+00  0.30698893253E+02  0.30698893253E+02  0.00000000000E+00 0.  1.
          2   -1    0    0  501    0  0.00000000000E+00 -0.00000000000E+00 -0.88393716247E+03  0.88393716247E+03  0.00000000000E+00 0. -1.
         25    2    1    2    0    0  0.75914453365E+01 -0.72061863142E+02 -0.73362350728E+03  0.74773101048E+03  0.12509065289E+03 0.  0.
          5    1    3    3  502    0  0.58636232802E+02 -0.99369338204E+01 -0.40628488013E+03  0.41063588089E+03  0.41800000000E+01 0.  1.
         -5    1    3    3    0  502 -0.51044787465E+02 -0.62124929322E+02 -0.32733862714E+03  0.33709512959E+03  0.41800000000E+01 0.  1.
        -11    1    1    2    0    0 -0.40922622965E+02  0.51255543056E+01 -0.49124826044E+02  0.64141881100E+02  0.00000000000E+00 0.  1.
         11    1    1    2    0    0  0.33331177629E+02  0.66936308836E+02 -0.70489935903E+02  0.10276316415E+03  0.00000000000E+00 0. -1.
</event>
<event>
 7    1  0.3192084E-009  0.1290425E+03  0.7561462E-02  0.1228883E+00
         -1   -1    0    0    0  501 -0.00000000000E+00  0.00000000000E+00  0.70240317249E+02  0.70240317249E+02  0.00000000000E+00 0.  1.
          1   -1    0    0  501    0  0.00000000000E+00 -0.00000000000E+00 -0.35796447121E+03  0.35796447121E+03  0.00000000000E+00 0. -1.
         25    2    1    2    0    0 -0.19933386114E+02 -0.11139260670E+03 -0.18234551726E+03  0.24840241139E+03  0.12509283597E+03 0.  0.
          5    1    3    3  502    0 -0.15984845399E+02 -0.33604870372E+01  0.15504707246E+02  0.22905818089E+02  0.41800000000E+01 0. -1.
         -5    1    3    3    0  502 -0.39485407152E+01 -0.10803211966E+03 -0.19785022451E+03  0.22549659330E+03  0.41800000000E+01 0. -1.
        -11    1    1    2    0    0 -0.25273780176E+02  0.56727949412E+02 -0.13202932136E+02  0.63491272044E+02  0.00000000000E+00 0. -1.
         11    1    1    2    0    0  0.45207166290E+02  0.54664657287E+02 -0.92175704560E+02  0.11631110502E+03  0.00000000000E+00 0.  1.
</event>
<event>
 7    1  0.2732144E-009  0.4155140E+03  0.7561462E-02  0.1038536E+00
         -2   -1    0    0    0  501 -0.00000000000E+00  0.00000000000E+00  0.16687749663E+03  0.16687749663E+03  0.00000000000E+00 0.  1.
          2   -1    0    0  501    0  0.00000000000E+00 -0.00000000000E+00 -0.10819230705E+04  0.10819230705E+04  0.00000000000E+00 0. -1.
         25    2    1    2    0    0 -0.22613408306E+03  0.34046487150E+03 -0.52417352081E+03  0.67635650492E+03  0.12508912655E+03 0.  0.
          5    1    3    3  502    0 -0.70790118363E+02  0.15768356332E+03 -0.13577620777E+03  0.21983629818E+03  0.41800000000E+01 0. -1.
         -5    1    3    3    0  502 -0.15534396469E+03  0.18278130818E+03 -0.38839731304E+03  0.45652020674E+03  0.41800000000E+01 0. -1.
        -11    1    1    2    0    0  0.45824769721E+02 -0.14601235971E+03 -0.14178206651E+03  0.20861848694E+03  0.00000000000E+00 0.  1.
         11    1    1    2    0    0  0.18030931333E+03 -0.19445251180E+03 -0.24908998653E+03  0.36382557525E+03  0.00000000000E+00 0. -1.
</event>
<event>
 7    1  0.2732144E-009  0.1265697E+03  0.7561462E-02  0.1232636E+00
          1   -1    0    0  501    0  0.00000000000E+00  0.00000000000E+00  0.94992259827E+03  0.94992259827E+03  0.00000000000E+00 0. -1.
         -1   -1    0    0    0  501 -0.00000000000E+00 -0.00000000000E+00 -0.21198654059E+02  0.21198654059E+02  0.00000000000E+00 0.  1.
         25    2    1    2    0    0 -0.62936124999E+02 -0.16895296610E+02  0.72047943687E+03  0.73415592160E+03  0.12509153205E+03 0.  0.
          5    1    3    3  502    0 -0.45352023262E+02 -0.70455519288E+02  0.39595749125E+03  0.40474756761E+03  0.41800000000E+01 0.  1.
         -5    1    3    3    0  502 -0.17584101737E+02  0.53560222678E+02  0.32452194562E+03  0.32940835399E+03  0.41800000000E+01 0.  1.
        -11    1    1    2    0    0  0.18119629765E+01  0.45285542520E+02  0.93143574128E+02  0.10358469468E+03  0.00000000000E+00 0.  1.
         11    1    1    2    0    0  0.61124162022E+02 -0.28390245910E+02  0.11510093321E+03  0.13338063605E+03  0.00000000000E+00 0. -1.
</event>
<event>
 7    1  0.2732144E-009  0.1210208E+03  0.7561462E-02  0.1241422E+00
          1   -1    0    0  501    0  0.00000000000E+00  0.00000000000E+00  0.53130159513E+03  0.53130159513E+03  0.00000000000E+00 0. -1.
         -1   -1    0    0    0  501 -0.00000000000E+00 -0.00000000000E+00 -0.38133104324E+02  0.38133104324E+02  0.00000000000E+00 0.  1.
         25    2    1    2    0    0  0.11985904612E+02  0.88113323886E+02  0.28197646748E+03  0.32103900984E+03  0.12509075855E+03 0.  0.
          5    1    3    3  502    0  0.56391894772E+02  0.72857776846E+02  0.11433141381E+03  0.14689263435E+03  0.41800000000E+01 0. -1.
         -5    1    3    3    0  502 -0.44405990160E+02  0.15255547040E+02  0.16764505367E+03  0.17414637549E+03  0.41800000000E+01 0. -1.
        -11    1    1    2    0    0 -0.32308475976E+02 -0.51320711125E+02  0.19352014400E+03  0.20279965272E+03  0.00000000000E+00 0. -1.
         11    1    1    2    0    0  0.20322571364E+02 -0.36792612761E+02  0.17671879320E+02  0.45596036882E+02  0.00000000000E+00 0.  1.
</event>
<event>
 7    1  0.2732144E-009  0.9978479E+02  0.7561462E-02  0.1280749E+00
          1   -1    0    0  501    0  0.00000000000E+00  0.00000000000E+00  0.91491858641E+02  0.91491858641E+02  0.00000000000E+00 0. -1.
         -1   -1    0    0    0  501 -0.00000000000E+00 -0.00000000000E+00 -0.14995231831E+03  0.14995231831E+03  0.00000000000E+00 0.  1.
         25    2    1    2    0    0 -0.50790557905E+01 -0.63185929014E+01 -0.76261540638E+02  0.14672743241E+03  0.12508954959E+03 0.  0.
          5    1    3    3  502    0  0.49238934330E+02 -0.14782823208E+02  0.12662176689E+01  0.51595350790E+02  0.41800000000E+01 0. -1.
         -5    1    3    3    0  502 -0.54317990120E+02  0.84642303066E+01 -0.77527758307E+02  0.95132081621E+02  0.41800000000E+01 0. -1.
        -11    1    1    2    0    0  0.13354768974E+02  0.48277361471E+02  0.12464259629E+02  0.51617935382E+02  0.00000000000E+00 0.  1.
         11    1    1    2    0    0 -0.82757131832E+01 -0.41958768570E+02  0.53368213433E+01  0.43098809156E+02  0.00000000000E+00 0. -1.
</event>
<event>
 7    1  0.2732144E-009  0.2158514E+03  0.7561462E-02  0.1137014E+00
         -1   -1    0    0    0  501 -0.00000000000E+00  0.00000000000E+00  0.10588721109E+03  0.10588721109E+03  0.00000000000E+00 0.  1.
          1   -1    0    0  501    0  0.00000000000E+00 -0.00000000000E+00 -0.52829069680E+03  0.52829069680E+03  0.00000000000E+00 0. -1.
         25    2    1    2    0    0  0.49851814532E+02 -0.20284426795E+03 -0.20932157293E+03  0.32108276385E+03  0.12509044687E+03 0.  0.
          5    1    3    3  502    0  0.15920800618E+02  0.49089100544E+00  0.10628498541E+02  0.19599751211E+02  0.41800000000E+01 0.  1.
         -5    1    3    3    0  502  0.33931013914E+02 -0.20333515896E+03 -0.21995007147E+03  0.30148301264E+03  0.41800000000E+01 0.  1.
        -11    1    1    2    0    0 -0.31871069813E+02  0.14545547805E+03 -0.20355482053E+03  0.25220552363E+03  0.00000000000E+00 0. -1.
         11    1    1    2    0    0 -0.17980744720E+02  0.57388789898E+02 -0.95270922431E+01  0.60889620407E+02  0.00000000000E+00 0.  1.
</event>
<event>
 7    1  0.2732144E-009  0.9097806E+02  0.7561462E-02  0.1300500E+00
         -2   -1    0    0    0  501 -0.00000000000E+00  0.00000000000E+00  0.74835240138E+03  0.74835240138E+03  0.00000000000E+00 0.  1.
          2   -1    0    0  501    0  0.00000000000E+00 -0.00000000000E+00 -0.19473337640E+02  0.19473337640E+02  0.00000000000E+00 0. -1.
         25    2    1    2    0    0  0.20344004632E+02 -0.27612821787E+02  0.29358045226E+03  0.32095684106E+03  0.12508982939E+03 0.  0.
          5    1    3    3  502    0  0.11687397542E+02  0.25386821349E+02  0.66717716541E+01  0.29035683159E+02  0.41800000000E+01 0.  1.
         -5    1    3    3    0  502  0.86566070895E+01 -0.52999643136E+02  0.28690868061E+03  0.29192115790E+03  0.41800000000E+01 0.  1.
        -11    1    1    2    0    0  0.18264202130E+02 -0.27215057129E+02  0.17691970369E+03  0.17993004743E+03  0.00000000000E+00 0.  1.
         11    1    1    2    0    0 -0.38608206762E+02  0.54827878916E+02  0.25837890778E+03  0.26693885053E+03  0.00000000000E+00 0. -1.
</event>
<event>
 7    1  0.2732144E-009  0.1067823E+03  0.7561462E-02  0.1266647E+00
          1   -1    0    0  501    0  0.00000000000E+00  0.00000000000E+00  0.59977838476E+03  0.59977838476E+03  0.00000000000E+00 0. -1.
         -1   -1    0    0    0  501 -0.00000000000E+00 -0.00000000000E+00 -0.27518592732E+02  0.27518592732E+02  0.00000000000E+00 0.  1.
         25    2    1    2    0    0  0.39376384072E+02  0.41181160191E+02  0.41664670972E+03  0.43873452567E+03  0.12508843159E+03 0.  0.
          5    1    3    3  502    0 -0.40122657829E+01 -0.26856669608E+02  0.26920082257E+03  0.27059921333E+03  0.41800000000E+01 0.  1.
         -5    1    3    3    0  502  0.43388649855E+02  0.68037829799E+02  0.14744588715E+03  0.16813531234E+03  0.41800000000E+01 0.  1.
        -11    1    1    2    0    0  0.11416433064E+02 -0.52097746528E+02  0.64665218315E+02  0.83821838425E+02  0.00000000000E+00 0.  1.
         11    1    1    2    0    0 -0.50792817136E+02  0.10916586337E+02  0.90947863995E+02  0.10474061340E+03  0.00000000000E+00 0. -1.
</event>
<event>
 7    1  0.3022182E-009  0.1430630E+03  0.7561462E-02  0.1209266E+00
         -1   -1    0    0    0  501 -0.00000000000E+00  0.00000000000E+00  0.65996655381E+02  0.65996655381E+02  0.00000000000E+00 0.  1.
          1   -1    0    0  501    0  0.00000000000E+00 -0.00000000000E+00 -0.42628454326E+03  0.42628454326E+03  0.00000000000E+00 0. -1.
         25    2    1    2    0    0  0.66773508964E+02  0.10870256009E+03 -0.20346559776E+03  0.27077676546E+03  0.12508740613E+03 0.  0.
          5    1    3    3  502    0  0.43517625136E+02  0.37349214362E+02 -0.40224753082E+01  0.57640265601E+02  0.41800000000E+01 0.  1.
         -5    1    3    3    0  502  0.23255883828E+02  0.71353345733E+02 -0.19944312245E+03  0.21313649986E+03  0.41800000000E+01 0.  1.
        -11    1    1    2    0    0 -0.57240934139E+02 -0.14861938882E+02 -0.82037025696E+02  0.10113098118E+03  0.00000000000E+00 0. -1.
         11    1    1    2    0    0 -0.95325748248E+01 -0.93840621213E+02 -0.74785264424E+02  0.12037345200E+03  0.00000000000E+00 0.  1.
</event>
<event>
 7    1  0.2732144E-009  0.1468691E+03  0.7561462E-02  0.1204374E+00
         -1   -1    0    0    0  501 -0.00000000000E+00  0.00000000000E+00  0.76973693353E+02  0.76973693353E+02  0.00000000000E+00 0.  1.
          1   -1    0    0  501    0  0.00000000000E+00 -0.00000000000E+00 -0.48340384053E+03  0.48340384053E+03  0.00000000000E+00 0. -1.
         25    2    1    2    0    0 -0.79720566378E+01 -0.13071870830E+03 -0.34575602048E+03  0.39031464414E+03  0.12508941338E+03 0.  0.
          5    1    3    3  502    0 -0.29428228033E+02 -0.83810417099E+02 -0.32073039021E+03  0.33282977965E+03  0.41800000000E+01 0.  1.
         -5    1    3    3    0  502  0.21456171395E+02 -0.46908291200E+02 -0.25025630278E+02  0.57484864487E+02  0.41800000000E+01 0.  1.
        -11    1    1    2    0    0 -0.17462013282E+02  0.12598643637E+03 -0.31427292572E+02  0.13101594856E+03  0.00000000000E+00 0.  1.
         11    1    1    2    0    0  0.25434069920E+02  0.47322719270E+01 -0.29246834123E+02  0.39046941193E+02  0.00000000000E+00 0. -1.
</event>
<event>
 7    1  0.2732144E-009  0.1692236E+03  0.7561462E-02  0.1178660E+00
          2   -1    0    0  501    0  0.00000000000E+00  0.00000000000E+00  0.31212953314E+03  0.31212953314E+03  0.00000000000E+00 0. -1.
         -2   -1    0    0    0  501 -0.00000000000E+00 -0.00000000000E+00 -0.16510134569E+03  0.16510134569E+03  0.00000000000E+00 0.  1.
         25    2    1    2    0    0  0.13779291740E+03 -0.89596375638E+02  0.19409071322E+03  0.28343398723E+03  0.12509684867E+03 0.  0.
          5    1    3    3  502    0  0.65846296583E+02 -0.75918335002E+02  0.18358249661E+03  0.20933068057E+03  0.41800000000E+01 0. -1.
         -5    1    3    3    0  502  0.71946620816E+02 -0.13678040636E+02  0.10508216606E+02  0.74103306666E+02  0.41800000000E+01 0. -1.
        -11    1    1    2    0    0 -0.14038142503E+02  0.66831388117E+01 -0.41958938796E+02  0.44746914242E+02  0.00000000000E+00 0.  1.
         11    1    1    2    0    0 -0.12375477490E+03  0.82913236827E+02 -0.51035869766E+01  0.14904997736E+03  0.00000000000E+00 0. -1.
</event>
<event>
 7    1  0.2732144E-009  0.2559151E+03  0.7561462E-02  0.1109623E+00
          1   -1    0    0  501    0  0.00000000000E+00  0.00000000000E+00  0.75375590309E+02  0.75375590309E+02  0.00000000000E+00 0. -1.
         -1   -1    0    0    0  501 -0.00000000000E+00 -0.00000000000E+00 -0.96803462492E+03  0.96803462492E+03  0.00000000000E+00 0.  1.
         25    2    1    2    0    0 -0.53945031109E+02 -0.24340019941E+03 -0.52054710488E+03  0.59056726588E+03  0.12508670464E+03 0.  0.
          5    1    3    3  502    0 -0.51861162308E+02 -0.11745767491E+03 -0.38319964879E+03  0.40416002868E+03  0.41800000000E+01 0.  1.
         -5    1    3    3    0  502 -0.20838688010E+01 -0.12594252450E+03 -0.13734745610E+03  0.18640723721E+03  0.41800000000E+01 0.  1.
        -11    1    1    2    0    0 -0.14331329259E+01  0.14027349145E+03 -0.18576985310E+03  0.23278561938E+03  0.00000000000E+00 0.  1.
         11    1    1    2    0    0  0.55378164035E+02  0.10312670796E+03 -0.18634207663E+03  0.22005732996E+03  0.00000000000E+00 0. -1.
</event>
<event>
 7    1  0.2732144E-009  0.1279050E+03  0.7561462E-02  0.1230598E+00
         -2   -1    0    0    0  501 -0.00000000000E+00  0.00000000000E+00  0.41413534281E+03  0.41413534281E+03  0.00000000000E+00 0.  1.
          2   -1    0    0  501    0  0.00000000000E+00 -0.00000000000E+00 -0.55531138009E+02  0.55531138009E+02  0.00000000000E+00 0. -1.
         25    2    1    2    0    0 -0.42003140658E+01 -0.21906305898E+02  0.76559994902E+02  0.14834677904E+03  0.12509118737E+03 0.  0.
          5    1    3    3  502    0 -0.51935391500E+02  0.29024469331E+01 -0.29371532626E+01  0.52266704102E+02  0.41800000000E+01 0.  1.
         -5    1    3    3    0  502  0.47735077434E+02 -0.24808752831E+02  0.79497148165E+02  0.96080074942E+02  0.41800000000E+01 0.  1.
        -11    1    1    2    0    0  0.31196065140E+01 -0.63838788744E+02  0.15878227225E+03  0.17116346828E+03  0.00000000000E+00 0.  1.
         11    1    1    2    0    0  0.10807075518E+01  0.85745094642E+02  0.12326193764E+03  0.15015623349E+03  0.00000000000E+00 0. -1.
</event>
<event>
 7    1  0.2732144E-009  0.1109867E+03  0.7561462E-02  0.1258753E+00
          1   -1    0    0  501    0  0.00000000000E+00  0.00000000000E+00  0.50559100854E+03  0.50559100854E+03  0.00000000000E+00 0.  1.
         -1   -1    0    0    0  501 -0.00000000000E+00 -0.00000000000E+00 -0.28550674010E+02  0.28550674010E+02  0.00000000000E+00 0. -1.
         25    2    1    2    0    0  0.25461943441E+02 -0.14881221788E+02  0.36537080604E+03  0.38731506538E+03  0.12508945855E+03 0.  0.
          5    1    3    3  502    0 -0.49225695129E+02 -0.15703743001E+02  0.11811269961E+03  0.12898782429E+03  0.41800000000E+01 0.  1.
         -5    1    3    3    0  502  0.74687638570E+02  0.82252121231E+00  0.24725810643E+03  0.25832724109E+03  0.41800000000E+01 0.  1.
        -11    1    1    2    0    0 -0.55534866146E+02 -0.98352826497E+01  0.65320070660E+02  0.86299280261E+02  0.00000000000E+00 0.  1.
         11    1    1    2    0    0  0.30072922705E+02  0.24716504438E+02  0.46349457827E+02  0.60527336903E+02  0.00000000000E+00 0. -1.
</event>
<event>
 7    1  0.2732144E-009  0.8979534E+02  0.7561462E-02  0.1303348E+00
          1   -1    0    0  501    0  0.00000000000E+00  0.00000000000E+00  0.25669861221E+03  0.25669861221E+03  0.00000000000E+00 0. -1.
         -1   -1    0    0    0  501 -0.00000000000E+00 -0.00000000000E+00 -0.82453648080E+02  0.82453648080E+02  0.00000000000E+00 0.  1.
         25    2    1    2    0    0 -0.47583380639E+02 -0.64242890470E+02  0.38740358581E+02  0.15342659879E+03  0.12509028237E+03 0.  0.
          5    1    3    3  502    0 -0.72155283714E+01  0.26577699140E+01 -0.40871881145E+02  0.41798452829E+02  0.41800000000E+01 0. -1.
         -5    1    3    3    0  502 -0.40367852268E+02 -0.66900660384E+02  0.79612239725E+02  0.11162814596E+03  0.41800000000E+01 0. -1.
        -11    1    1    2    0    0  0.45632588479E+02  0.22636660685E+02  0.79658589815E+01  0.51557797156E+02  0.00000000000E+00 0.  1.
         11    1    1    2    0    0  0.19507921605E+01  0.41606229785E+02  0.12753874657E+03  0.13416786435E+03  0.00000000000E+00 0. -1.
</event>
<event>
 7    1  0.2732144E-009  0.9031880E+02  0.7561462E-02  0.1302081E+00
          2   -1    0    0  501    0  0.00000000000E+00  0.00000000000E+00  0.28490674718E+02  0.28490674718E+02  0.00000000000E+00 0. -1.
         -2   -1    0    0    0  501 -0.00000000000E+00 -0.00000000000E+00 -0.48148561956E+03  0.48148561956E+03  0.00000000000E+00 0.  1.
         25    2    1    2    0    0 -0.63061985635E+01  0.66376142746E+01 -0.35484646803E+03  0.37636028314E+03  0.12508885158E+03 0.  0.
          5    1    3    3  502    0  0.48807397350E+02 -0.12311617867E+02 -0.74622897987E+02  0.90109862249E+02  0.41800000000E+01 0. -1.
         -5    1    3    3    0  502 -0.55113595914E+02  0.18949232141E+02 -0.28022357005E+03  0.28625042090E+03  0.41800000000E+01 0. -1.
        -11    1    1    2    0    0  0.12233314246E+02  0.31140883230E+02 -0.61927626167E+01  0.34025856266E+02  0.00000000000E+00 0. -1.
         11    1    1    2    0    0 -0.59271156825E+01 -0.37778497505E+02 -0.91955714195E+02  0.99590154871E+02  0.00000000000E+00 0.  1.
</event>
<event>
 7    1  0.2732144E-009  0.1824981E+03  0.7561462E-02  0.1165407E+00
          1   -1    0    0  501    0  0.00000000000E+00  0.00000000000E+00  0.13412428688E+04  0.13412428688E+04  0.00000000000E+00 0. -1.
         -1   -1    0    0    0  501 -0.00000000000E+00 -0.00000000000E+00 -0.28827560688E+02  0.28827560688E+02  0.00000000000E+00 0.  1.
         25    2    1    2    0    0 -0.16206429092E+03 -0.32752494586E+01  0.65671568271E+03  0.68789378256E+03  0.12508719564E+03 0.  0.
          5    1    3    3  502    0  0.53901855039E+01  0.74803083406E+01  0.58679656997E-01  0.10123485365E+02  0.41800000000E+01 0. -1.
         -5    1    3    3    0  502 -0.16745447642E+03 -0.10755557799E+02  0.65665700305E+03  0.67777029719E+03  0.41800000000E+01 0. -1.
        -11    1    1    2    0    0  0.49702125276E+01  0.27609888149E+02  0.73749011824E+02  0.78904535238E+02  0.00000000000E+00 0.  1.
         11    1    1    2    0    0  0.15709407839E+03 -0.24334638690E+02  0.58195061361E+03  0.60327211172E+03  0.00000000000E+00 0. -1.
</event>
<event>
 7    1  0.2732144E-009  0.1673213E+03  0.7561462E-02  0.1180670E+00
         -1   -1    0    0    0  501 -0.00000000000E+00  0.00000000000E+00  0.92791754484E+02  0.92791754484E+02  0.00000000000E+00 0.  1.
          1   -1    0    0  501    0  0.00000000000E+00 -0.00000000000E+00 -0.37111898867E+03  0.37111898867E+03  0.00000000000E+00 0. -1.
         25    2    1    2    0    0 -0.95019940447E+02 -0.90036623258E+02 -0.54809898192E+02  0.18917879435E+03  0.12509639755E+03 0.  0.
          5    1    3    3  502    0  0.17192883888E+02  0.17335951702E+02 -0.14371231075E+02  0.28638002032E+02  0.41800000000E+01 0. -1.
         -5    1    3    3    0  502 -0.11221282434E+03 -0.10737257496E+03 -0.40438667117E+02  0.16054079231E+03  0.41800000000E+01 0. -1.
        -11    1    1    2    0    0  0.86917558140E+02  0.27090114289E+02 -0.96063462416E+02  0.13235076508E+03  0.00000000000E+00 0.  1.
         11    1    1    2    0    0  0.81023823073E+01  0.62946508969E+02 -0.12745387358E+03  0.14238118373E+03  0.00000000000E+00 0. -1.
</event>
<event>
 7    1  0.2732144E-009  0.4720541E+03  0.7561462E-02  0.1021342E+00
         -2   -1    0    0    0  501 -0.00000000000E+00  0.00000000000E+00  0.35003236374E+03  0.35003236374E+03  0.00000000000E+00 0.  1.
          2   -1    0    0  501    0  0.00000000000E+00 -0.00000000000E+00 -0.73058637397E+03  0.73058637397E+03  0.00000000000E+00 0. -1.
         25    2    1    2    0    0 -0.29657528795E+03  0.36566354062E+03 -0.32849732224E+02  0.48825434351E+03  0.12508586127E+03 0.  0.
          5    1    3    3  502    0 -0.12501527464E+03  0.17144462054E+03  0.46392119021E+02  0.21723668639E+03  0.41800000000E+01 0.  1.
         -5    1    3    3    0  502 -0.17156001331E+03  0.19421892008E+03 -0.79241851245E+02  0.27101765712E+03  0.41800000000E+01 0.  1.
        -11    1    1    2    0    0  0.46116974669E+02 -0.34980654368E+02 -0.12945428269E+02  0.59312778097E+02  0.00000000000E+00 0.  1.
         11    1    1    2    0    0  0.25045831328E+03 -0.33068288625E+03 -0.33475884975E+03  0.53305161610E+03  0.00000000000E+00 0. -1.
</event>
<event>
 7    1  0.2732144E-009  0.1328966E+03  0.7561462E-02  0.1223220E+00
          1   -1    0    0  501    0  0.00000000000E+00  0.00000000000E+00  0.77668195627E+03  0.77668195627E+03  0.00000000000E+00 0. -1.
         -1   -1    0    0    0  501 -0.00000000000E+00 -0.00000000000E+00 -0.26688542473E+02  0.26688542473E+02  0.00000000000E+00 0.  1.
         25    2    1    2    0    0 -0.63243601633E+02  0.66524173542E+02  0.34326469722E+03  0.37670107738E+03  0.12509128879E+03 0.  0.
          5    1    3    3  502    0  0.33494425289E+02  0.31024499981E+02  0.15969044898E+03  0.16614122914E+03  0.41800000000E+01 0. -1.
         -5    1    3    3    0  502 -0.96738026922E+02  0.35499673561E+02  0.18357424823E+03  0.21055984824E+03  0.41800000000E+01 0. -1.
        -11    1    1    2    0    0  0.63638307340E+02 -0.80622601215E+02  0.39556291643E+03  0.40868063184E+03  0.00000000000E+00 0. -1.
         11    1    1    2    0    0 -0.39470570703E+00  0.14098427673E+02  0.11165800150E+02  0.17988789521E+02  0.00000000000E+00 0.  1.
</event>
<event>
 7    1  0.2732144E-009  0.9001777E+02  0.7561462E-02  0.1302809E+00
          1   -1    0    0  501    0  0.00000000000E+00  0.00000000000E+00  0.33895290326E+03  0.33895290326E+03  0.00000000000E+00 0. -1.
         -1   -1    0    0    0  501 -0.00000000000E+00 -0.00000000000E+00 -0.94909105307E+02  0.94909105307E+02  0.00000000000E+00 0.  1.
         25    2    1    2    0    0  0.61085163833E+02 -0.51447609392E+02  0.26999624927E+03  0.30809782634E+03  0.12509213495E+03 0.  0.
          5    1    3    3  502    0  0.36952598996E+02 -0.61090758127E+02  0.51771116070E+02  0.88290974398E+02  0.41800000000E+01 0.  1.
         -5    1    3    3    0  502  0.24132564838E+02  0.96431487351E+01  0.21822513320E+03  0.21980685194E+03  0.41800000000E+01 0.  1.
        -11    1    1    2    0    0 -0.15734054679E+02  0.33489080830E+01  0.33304386290E+02  0.36985913645E+02  0.00000000000E+00 0. -1.
         11    1    1    2    0    0 -0.45351109154E+02  0.48098701309E+02 -0.59256837604E+02  0.88778268579E+02  0.00000000000E+00 0.  1.
</event>
<event>
 7    1  0.2732144E-009  0.1923296E+03  0.7561462E-02  0.1156377E+00
          1   -1    0    0  501    0  0.00000000000E+00  0.00000000000E+00  0.47371075303E+03  0.47371075303E+03  0.00000000000E+00 0. -1.
         -1   -1    0    0    0  501 -0.00000000000E+00 -0.00000000000E+00 -0.94000236425E+02  0.94000236425E+02  0.00000000000E+00 0.  1.
         25    2    1    2    0    0  0.70541375489E+02 -0.15777044499E+03  0.26923787562E+03  0.34351788710E+03  0.12509159095E+03 0.  0.
          5    1    3    3  502    0  0.49603798581E+02 -0.17388622533E+00  0.36910336854E+02  0.61971061285E+02  0.41800000000E+01 0. -1.
         -5    1    3    3    0  502  0.20937576909E+02 -0.15759655877E+03  0.23232753876E+03  0.28154682582E+03  0.41800000000E+01 0. -1.
        -11    1    1    2    0    0 -0.17791495274E+02  0.79431515299E+02  0.34711898583E+01  0.81473628162E+02  0.00000000000E+00 0.  1.
         11    1    1    2    0    0 -0.52749880216E+02  0.78338929695E+02  0.10700145113E+03  0.14271947419E+03  0.00000000000E+00 0. -1.
</event>
<event>
 7    1  0.3265925E-009  0.2572403E+03  0.7561462E-02  0.1108813E+00
          2   -1    0    0  501    0  0.00000000000E+00  0.00000000000E+00  0.81324338987E+03  0.81324338987E+03  0.00000000000E+00 0. -1.
         -2   -1    0    0    0  501 -0.00000000000E+00 -0.00000000000E+00 -0.90913108897E+02  0.90913108897E+02  0.00000000000E+00 0.  1.
         25    2    1    2    0    0  0.11383370604E+03  0.22151866228E+03  0.36971262839E+03  0.46299435681E+03  0.12509083293E+03 0.  0.
          5    1    3    3  502    0  0.81091980495E+02  0.98208666708E+02  0.27799558353E+03  0.30581018357E+03  0.41800000000E+01 0. -1.
         -5    1    3    3    0  502  0.32741725546E+02  0.12330999557E+03  0.91717044859E+02  0.15718417324E+03  0.41800000000E+01 0. -1.
        -11    1    1    2    0    0 -0.46339600533E+02 -0.16494694268E+03  0.27373149937E+03  0.32293000205E+03  0.00000000000E+00 0. -1.
         11    1    1    2    0    0 -0.67494105508E+02 -0.56571719596E+02  0.78886153217E+02  0.11823213990E+03  0.00000000000E+00 0.  1.
</event>
<event>
 7    1  0.2732144E-009  0.7879657E+02  0.7561462E-02  0.1332502E+00
          1   -1    0    0  501    0  0.00000000000E+00  0.00000000000E+00  0.10334262300E+03  0.10334262300E+03  0.00000000000E+00 0. -1.
         -1   -1    0    0    0  501 -0.00000000000E+00 -0.00000000000E+00 -0.14263988873E+03  0.14263988873E+03  0.00000000000E+00 0.  1.
         25    2    1    2    0    0 -0.32146540801E+00  0.21952113354E+02  0.28681368185E+02  0.13019965840E+03  0.12508929429E+03 0.  0.
          5    1    3    3  502    0 -0.21850541885E+02  0.67744857496E+02  0.34283731508E+02  0.79118003918E+02  0.41800000000E+01 0.  1.
         -5    1    3    3    0  502  0.21529076477E+02 -0.45792744142E+02 -0.56023633230E+01  0.51081654484E+02  0.41800000000E+01 0.  1.
        -11    1    1    2    0    0  0.14110630993E+02 -0.10449091252E+02 -0.87508244906E+02  0.89252374431E+02  0.00000000000E+00 0.  1.
         11    1    1    2    0    0 -0.13789165585E+02 -0.11503022102E+02  0.19529610988E+02  0.26530478894E+02  0.00000000000E+00 0. -1.
</event>
<event>
 7    1  0.2732144E-009  0.8459550E+02  0.7561462E-02  0.1316494E+00
         -2   -1    0    0    0  501 -0.00000000000E+00  0.00000000000E+00  0.20761200000E+02  0.20761200000E+02  0.00000000000E+00 0.  1.
          2   -1    0    0  501    0  0.00000000000E+00 -0.00000000000E+00 -0.60479809192E+03  0.60479809192E+03  0.00000000000E+00 0. -1.
         25    2    1    2    0    0 -0.38005073417E+01 -0.20942211102E+02 -0.38975680035E+03  0.40989184626E+03  0.12509173494E+03 0.  0.
          5    1    3    3  502    0  0.17196440656E+01  0.33970606956E+02 -0.28940392968E+02  0.44855078395E+02  0.41800000000E+01 0.  1.
         -5    1    3    3    0  502 -0.55201514073E+01 -0.54912818058E+02 -0.36081640738E+03  0.36503676787E+03  0.41800000000E+01 0.  1.
        -11    1    1    2    0    0  0.39434749048E+02  0.26636931884E+01 -0.39841953979E+02  0.56121083300E+02  0.00000000000E+00 0.  1.
         11    1    1    2    0    0 -0.35634241706E+02  0.18278517914E+02 -0.15443813759E+03  0.15954636235E+03  0.00000000000E+00 0. -1.
</event>
<event>
 7    1  0.2732144E-009  0.3957343E+03  0.7561462E-02  0.1045267E+00
          2   -1    0    0  501    0  0.00000000000E+00  0.00000000000E+00  0.14101853711E+04  0.14101853711E+04  0.00000000000E+00 0. -1.
         -2   -1    0    0    0  501 -0.00000000000E+00 -0.00000000000E+00 -0.12760801259E+03  0.12760801259E+03  0.00000000000E+00 0.  1.
         25    2    1    2    0    0 -0.27688382592E+03  0.27101574397E+03  0.89008935582E+03  0.97878505097E+03  0.12508768174E+03 0.  0.
          5    1    3    3  502    0 -0.24647825122E+03  0.18390349322E+03  0.75400804833E+03  0.81432035004E+03  0.41800000000E+01 0. -1.
         -5    1    3    3    0  502 -0.30405574700E+02  0.87112250755E+02  0.13608130748E+03  0.16446470093E+03  0.41800000000E+01 0. -1.
        -11    1    1    2    0    0  0.20732931332E+03 -0.23445053126E+03  0.26927205866E+03  0.41286794177E+03  0.00000000000E+00 0. -1.
         11    1    1    2    0    0  0.69554512595E+02 -0.36565212719E+02  0.12321594402E+03  0.14614039094E+03  0.00000000000E+00 0.  1.
</event>
<event>
 7    1  0.2732144E-009  0.2636539E+03  0.7561462E-02  0.1104968E+00
          2   -1    0    0  501    0  0.00000000000E+00  0.00000000000E+00  0.22272233650E+03  0.22272233650E+03  0.00000000000E+00 0. -1.
         -2   -1    0    0    0  501 -0.00000000000E+00 -0.00000000000E+00 -0.32431805647E+03  0.32431805647E+03  0.00000000000E+00 0.  1.
         25    2    1    2    0    0 -0.17285123768E+03  0.16996640079E+03 -0.13522907091E+02  0.27311794701E+03  0.12507764068E+03 0.  0.
          5    1    3    3  502    0 -0.16528511069E+03  0.18929281805E+03 -0.15770476802E+02  0.25182755830E+03  0.41800000000E+01 0. -1.
         -5    1    3    3    0  502 -0.75661269997E+01 -0.19326417262E+02  0.22475697103E+01  0.21290388713E+02  0.41800000000E+01 0. -1.
        -11    1    1    2    0    0  0.13151792270E+03 -0.75400715928E+02 -0.77266865327E+02  0.17015404912E+03  0.00000000000E+00 0.  1.
         11    1    1    2    0    0  0.41333314984E+02 -0.94565684860E+02 -0.10805947552E+02  0.10376839684E+03  0.00000000000E+00 0. -1.
</event>
<event>
 7    1  0.2732144E-009  0.9065837E+02  0.7561462E-02  0.1301265E+00
          2   -1    0    0  501    0  0.00000000000E+00  0.00000000000E+00  0.22899672317E+03  0.22899672317E+03  0.00000000000E+00 0. -1.
         -2   -1    0    0    0  501 -0.00000000000E+00 -0.00000000000E+00 -0.72200621868E+02  0.72200621868E+02  0.00000000000E+00 0.  1.
         25    2    1    2    0    0 -0.35761679597E+02 -0.58204336558E+02  0.96265353048E+02  0.17200759282E+03  0.12511175512E+03 0.  0.
          5    1    3    3  502    0 -0.15605336443E+02 -0.18844527913E+02 -0.29544205315E+02  0.38587241745E+02  0.41800000000E+01 0.  1.
         -5    1    3    3    0  502 -0.20156343154E+02 -0.39359808645E+02  0.12580955836E+03  0.13342035108E+03  0.41800000000E+01 0.  1.
        -11    1    1    2    0    0  0.39368187837E+02  0.80436834318E+02  0.57595453514E+02  0.10647617008E+03  0.00000000000E+00 0. -1.
         11    1    1    2    0    0 -0.36065082399E+01 -0.22232497761E+02  0.29352947386E+01  0.22713582139E+02  0.00000000000E+00 0.  1.
</event>
<event>
 7    1  0.2732144E-009  0.1130533E+03  0.7561462E-02  0.1255018E+00
         -1   -1    0    0    0  501 -0.00000000000E+00  0.00000000000E+00  0.64641714658E+02  0.64641714658E+02  0.00000000000E+00 0.  1.
          1   -1    0    0  501    0  0.00000000000E+00 -0.00000000000E+00 -0.31151902802E+03  0.31151902802E+03  0.00000000000E+00 0. -1.
         25    2    1    2    0    0 -0.77318647443E+02  0.29449496428E+01 -0.67702426829E+02  0.16191784018E+03  0.12508765886E+03 0.  0.
          5    1    3    3  502    0 -0.95509007858E+02 -0.36416875890E+02 -0.37718655498E+02  0.10903361318E+03  0.41800000000E+01 0.  1.
         -5    1    3    3    0  502  0.18190360415E+02  0.39361825533E+02 -0.29983771331E+02  0.52884226992E+02  0.41800000000E+01 0.  1.
        -11    1    1    2    0    0  0.50855818801E+02 -0.12037067094E+02 -0.17877684305E+03  0.18625886530E+03  0.00000000000E+00 0. -1.
         11    1    1    2    0    0  0.26462828642E+02  0.90921174508E+01 -0.39804347797E+00  0.27984037201E+02  0.00000000000E+00 0.  1.
</event>
<event>
 7    1  0.2732144E-009  0.6469642E+02  0.7561462E-02  0.1379117E+00
         -2   -1    0    0    0  501 -0.00000000000E+00  0.00000000000E+00  0.31566952939E+02  0.31566952939E+02  0.00000000000E+00 0.  1.
          2   -1    0    0  501    0  0.00000000000E+00 -0.00000000000E+00 -0.39134227503E+03  0.39134227503E+03  0.00000000000E+00 0. -1.
         25    2    1    2    0    0 -0.54760685355E+01  0.20604881281E+02 -0.19785288528E+03  0.23505230627E+03  0.12509705836E+03 0.  0.
          5    1    3    3  502    0 -0.12666731177E+02  0.42265848749E+00  0.15575337801E+02  0.20510686641E+02  0.41800000000E+01 0.  1.
         -5    1    3    3    0  502  0.71906626411E+01  0.20182222793E+02 -0.21342822308E+03  0.21454161963E+03  0.41800000000E+01 0.  1.
        -11    1    1    2    0    0 -0.40272220876E+02 -0.26326771434E+02 -0.96390513676E+02  0.10773152647E+03  0.00000000000E+00 0.  1.
         11    1    1    2    0    0  0.45748289411E+02  0.57218901537E+01 -0.65531923139E+02  0.80125395233E+02  0.00000000000E+00 0. -1.
</event>
<event>
 7    1  0.2732144E-009  0.9606279E+02  0.7561462E-02  0.1288800E+00
          2   -1    0    0  501    0  0.00000000000E+00  0.00000000000E+00  0.42368370449E+03  0.42368370449E+03  0.00000000000E+00 0. -1.
         -2   -1    0    0    0  501 -0.00000000000E+00 -0.00000000000E+00 -0.30753803000E+02  0.30753803000E+02  0.00000000000E+00 0.  1.
         25    2    1    2    0    0 -0.19295018658E+02 -0.25410907019E+02  0.26682376127E+03  0.29641212885E+03  0.12508884286E+03 0.  0.
          5    1    3    3  502    0 -0.54475420595E+02  0.13349383959E+01  0.23630649202E+03  0.24254398381E+03  0.41800000000E+01 0. -1.
         -5    1    3    3    0  502  0.35180401938E+02 -0.26745845415E+02  0.30517269248E+02  0.53868145038E+02  0.41800000000E+01 0. -1.
        -11    1    1    2    0    0 -0.35112928025E+02  0.11089109912E+02  0.34133918677E+02  0.50209665179E+02  0.00000000000E+00 0. -1.
         11    1    1    2    0    0  0.54407946682E+02  0.14321797107E+02  0.91972221543E+02  0.10781571347E+03  0.00000000000E+00 0.  1.
</event>
<event>
 7    1  0.2732144E-009  0.9205814E+02  0.7561462E-02  0.1297943E+00
          2   -1    0    0  501    0  0.00000000000E+00  0.00000000000E+00  0.36539257363E+03  0.36539257363E+03  0.00000000000E+00 0. -1.
         -2   -1    0    0    0  501 -0.00000000000E+00 -0.00000000000E+00 -0.49991553932E+02  0.49991553932E+02  0.00000000000E+00 0.  1.
         25    2    1    2    0    0  0.94250707461E+01 -0.27411657915E+02  0.28571806437E+03  0.31324534220E+03  0.12509037196E+03 0.  0.
          5    1    3    3  502    0 -0.35591808143E+01  0.45706757522E+02  0.16632995277E+03  0.17258302651E+03  0.41800000000E+01 0.  1.
         -5    1    3    3    0  502  0.12984251560E+02 -0.73118415437E+02  0.11938811160E+03  0.14066231569E+03  0.41800000000E+01 0.  1.
        -11    1    1    2    0    0  0.17266770208E+02  0.32243234246E+02 -0.22772054792E+02  0.43085194528E+02  0.00000000000E+00 0.  1.
         11    1    1    2    0    0 -0.26691840955E+02 -0.48315763304E+01  0.52455010122E+02  0.59053590833E+02  0.00000000000E+00 0. -1.
</event>
<event>
 7    1  0.2732144E-009  0.1300092E+03  0.7561462E-02  0.1227442E+00
         -2   -1    0    0    0  501 -0.00000000000E+00  0.00000000000E+00  0.15853619787E+03  0.15853619787E+03  0.00000000000E+00 0.  1.
          2   -1    0    0  501    0  0.00000000000E+00 -0.00000000000E+00 -0.11731017160E+03  0.11731017160E+03  0.00000000000E+00 0. -1.
         25    2    1    2    0    0 -0.53180894059E+02 -0.53328311894E+02 -0.10144192184E+02  0.14636351079E+03  0.12508899357E+03 0.  0.
          5    1    3    3  502    0 -0.73837385098E+02  0.14126036931E+02 -0.33393696267E+01  0.75366624888E+02  0.41800000000E+01 0.  1.
         -5    1    3    3    0  502  0.20656491039E+02 -0.67454348825E+02 -0.68048225575E+01  0.70996885900E+02  0.41800000000E+01 0.  1.
        -11    1    1    2    0    0  0.74927484981E+02  0.26398729702E+02  0.18111900342E+02  0.81480438570E+02  0.00000000000E+00 0.  1.
         11    1    1    2    0    0 -0.21746590922E+02  0.26929582192E+02  0.33258318107E+02  0.48002420117E+02  0.00000000000E+00 0. -1.
</event>
<event>
 7    1  0.2732144E-009  0.1351882E+03  0.7561462E-02  0.1219954E+00
          1   -1    0    0  501    0  0.00000000000E+00  0.00000000000E+00  0.84011044859E+03  0.84011044859E+03  0.00000000000E+00 0. -1.
         -1   -1    0    0    0  501 -0.00000000000E+00 -0.00000000000E+00 -0.23151531425E+02  0.23151531425E+02  0.00000000000E+00 0.  1.
         25    2    1    2    0    0  0.51872122521E+02  0.62705386944E+02  0.34526830182E+03  0.37613813610E+03  0.12508802717E+03 0.  0.
          5    1    3    3  502    0  0.48133462181E+02  0.10017148772E+03  0.25048876924E+03  0.27406797158E+03  0.41800000000E+01 0. -1.
         -5    1    3    3    0  502  0.37386603395E+01 -0.37466100774E+02  0.94779532584E+02  0.10207016452E+03  0.41800000000E+01 0. -1.
        -11    1    1    2    0    0  0.35042275981E+01 -0.65726457647E+02  0.27470660097E+03  0.28248179315E+03  0.00000000000E+00 0. -1.
         11    1    1    2    0    0 -0.55376350119E+02  0.30210707026E+01  0.19698401437E+03  0.20464205076E+03  0.00000000000E+00 0.  1.
</event>
<event>
 7    1  0.2732144E-009  0.1048537E+03  0.7561462E-02  0.1270408E+00
          4   -1    0    0  501    0  0.00000000000E+00  0.00000000000E+00  0.15179723431E+03  0.15179723431E+03  0.00000000000E+00 0. -1.
         -4   -1    0    0    0  501 -0.00000000000E+00 -0.00000000000E+00 -0.10416579739E+03  0.10416579739E+03  0.00000000000E+00 0.  1.
         25    2    1    2    0    0 -0.39631847386E+02 -0.30412421672E+02  0.68323573591E+02  0.15103354964E+03  0.12508966260E+03 0.  0.
          5    1    3    3  502    0 -0.13486530279E+02  0.40226252730E+02 -0.83816678980E+01  0.43448390815E+02  0.41800000000E+01 0. -1.
         -5    1    3    3    0  502 -0.26145317107E+02 -0.70638674402E+02  0.76705241489E+02  0.10758515883E+03  0.41800000000E+01 0. -1.
        -11    1    1    2    0    0  0.39519775746E+02 -0.17857585343E+02 -0.33717904604E+02  0.54932714481E+02  0.00000000000E+00 0.  1.
         11    1    1    2    0    0  0.11207163967E+00  0.48270007015E+02  0.13025767930E+02  0.49996767570E+02  0.00000000000E+00 0. -1.
</event>
<event>
 7    1  0.2877299E-009  0.1715120E+03  0.7561462E-02  0.1176280E+00
         -3   -1    0    0    0  501 -0.00000000000E+00  0.00000000000E+00  0.72943773369E+02  0.72943773369E+02  0.00000000000E+00 0.  1.
          3   -1    0    0  501    0  0.00000000000E+00 -0.00000000000E+00 -0.46107646530E+03  0.46107646530E+03  0.00000000000E+00 0. -1.
         25    2    1    2    0    0  0.69459579995E+02 -0.11678930868E+03 -0.28825901592E+03  0.34235237948E+03  0.12509002999E+03 0.  0.
          5    1    3    3  502    0  0.62562027178E+02  0.46380919291E+01 -0.10425703224E+03  0.12174777334E+03  0.41800000000E+01 0. -1.
         -5    1    3    3    0  502  0.68975528171E+01 -0.12142740061E+03 -0.18400198368E+03  0.22060460615E+03  0.41800000000E+01 0. -1.
        -11    1    1    2    0    0 -0.77563256018E+02  0.52505552499E+02 -0.35026487389E+02  0.99998732723E+02  0.00000000000E+00 0.  1.
         11    1    1    2    0    0  0.81036760229E+01  0.64283756184E+02 -0.64847188621E+02  0.91669126462E+02  0.00000000000E+00 0. -1.
</event>
<event>
 7    1  0.2732144E-009  0.2337529E+03  0.7561462E-02  0.1124026E+00
         -2   -1    0    0    0  501 -0.00000000000E+00  0.00000000000E+00  0.10545273337E+03  0.10545273337E+03  0.00000000000E+00 0.  1.
          2   -1    0    0  501    0  0.00000000000E+00 -0.00000000000E+00 -0.55688289205E+03  0.55688289205E+03  0.00000000000E+00 0. -1.
         25    2    1    2    0    0  0.19488979589E+03 -0.93519432331E+02 -0.20873039914E+03  0.32548977126E+03  0.12508914785E+03 0.  0.
          5    1    3    3  502    0 -0.11816156166E+02 -0.31419060076E+02 -0.30541468716E+02  0.45574473052E+02  0.41800000000E+01 0.  1.
         -5    1    3    3    0  502  0.20670595205E+03 -0.62100372255E+02 -0.17818893042E+03  0.27991529821E+03  0.41800000000E+01 0.  1.
        -11    1    1    2    0    0 -0.14898523987E+03  0.83613569654E+02 -0.23294998315E+03  0.28888323831E+03  0.00000000000E+00 0. -1.
         11    1    1    2    0    0 -0.45904556017E+02  0.99058626776E+01 -0.97497764007E+01  0.47962615842E+02  0.00000000000E+00 0.  1.
</event>
<event>
 7    1  0.2732144E-009  0.1519164E+03  0.7561462E-02  0.1198138E+00
         -2   -1    0    0    0  501 -0.00000000000E+00  0.00000000000E+00  0.28448443673E+02  0.28448443673E+02  0.00000000000E+00 0.  1.
          2   -1    0    0  501    0  0.00000000000E+00 -0.00000000000E+00 -0.10573895562E+04  0.10573895562E+04  0.00000000000E+00 0. -1.
         25    2    1    2    0    0 -0.39636326663E-01  0.12729939471E+03 -0.41386391235E+03  0.45070577579E+03  0.12508885212E+03 0.  0.
          5    1    3    3  502    0  0.32359372472E+01 -0.23355451116E+02 -0.30566004716E+02  0.38829131216E+02  0.41800000000E+01 0.  1.
         -5    1    3    3    0  502 -0.32755735739E+01  0.15065484582E+03 -0.38329790763E+03  0.41187664458E+03  0.41800000000E+01 0.  1.
        -11    1    1    2    0    0  0.68028131051E+01 -0.11414062191E+03 -0.60813178399E+03  0.61878803037E+03  0.00000000000E+00 0. -1.
         11    1    1    2    0    0 -0.67631767784E+01 -0.13158772797E+02 -0.69454161768E+01  0.16344193695E+02  0.00000000000E+00 0.  1.
</event>
<event>
 7    1  0.2732144E-009  0.1183531E+03  0.7561462E-02  0.1245839E+00
         -3   -1    0    0    0  501 -0.00000000000E+00  0.00000000000E+00  0.11269704104E+02  0.11269704104E+02  0.00000000000E+00 0.  1.
          3   -1    0    0  501    0  0.00000000000E+00 -0.00000000000E+00 -0.14124381536E+04  0.14124381536E+04  0.00000000000E+00 0. -1.
         25    2    1    2    0    0 -0.46349769322E+02 -0.42466198638E+02 -0.88989198808E+03  0.90083687242E+03  0.12509053172E+03 0.  0.
          5    1    3    3  502    0  0.29614971253E+02 -0.41456639547E+02 -0.55792834317E+03  0.56026530144E+03  0.41800000000E+01 0. -1.
         -5    1    3    3    0  502 -0.75964740575E+02 -0.10095590909E+01 -0.33196364491E+03  0.34057157098E+03  0.41800000000E+01 0. -1.
        -11    1    1    2    0    0 -0.25952114405E+02  0.61414131318E+00 -0.12081586762E+03  0.12357331136E+03  0.00000000000E+00 0.  1.
         11    1    1    2    0    0  0.72301883727E+02  0.41852057325E+02 -0.39046059384E+03  0.39929767396E+03  0.00000000000E+00 0. -1.
</event>
<event>
 7    1  0.2732144E-009  0.1647455E+03  0.7561462E-02  0.1183441E+00
          2   -1    0    0  501    0  0.00000000000E+00  0.00000000000E+00  0.91183916755E+02  0.91183916755E+02  0.00000000000E+00 0. -1.
         -2   -1    0    0    0  501 -0.00000000000E+00 -0.00000000000E+00 -0.36941725788E+03  0.36941725788E+03  0.00000000000E+00 0.  1.
         25    2    1    2    0    0 -0.14264138851E+03 -0.34572114612E+02 -0.15868267546E+03  0.24974059060E+03  0.12509346216E+03 0.  0.
          5    1    3    3  502    0 -0.90375103057E+02 -0.60277902414E+02 -0.15744653938E+03  0.19133209332E+03  0.41800000000E+01 0.  1.
         -5    1    3    3    0  502 -0.52266285454E+02  0.25705787803E+02 -0.12361360827E+01  0.58408497277E+02  0.41800000000E+01 0.  1.
        -11    1    1    2    0    0  0.12654967922E+03  0.25854076882E+01 -0.57069550075E+02  0.13884681915E+03  0.00000000000E+00 0.  1.
         11    1    1    2    0    0  0.16091709295E+02  0.31986706923E+02 -0.62481115584E+02  0.72013764882E+02  0.00000000000E+00 0. -1.
</event>
<event>
 7    1  0.2732144E-009  0.1165725E+03  0.7561462E-02  0.1248861E+00
         -2   -1    0    0    0  501 -0.00000000000E+00  0.00000000000E+00  0.10956814304E+02  0.10956814304E+02  0.00000000000E+00 0.  1.
          2   -1    0    0  501    0  0.00000000000E+00 -0.00000000000E+00 -0.15511229669E+04  0.15511229669E+04  0.00000000000E+00 0. -1.
         25    2    1    2    0    0  0.52942110687E+02 -0.23589326421E+02 -0.11049459220E+04  0.11135131728E+04  0.12508705792E+03 0.  0.
          5    1    3    3  502    0  0.83189575559E+02  0.41788370218E+01 -0.47885361264E+03  0.48606195376E+03  0.41800000000E+01 0. -1.
         -5    1    3    3    0  502 -0.30247464873E+02 -0.27768163443E+02 -0.62609230938E+03  0.62745121906E+03  0.41800000000E+01 0. -1.
        -11    1    1    2    0    0 -0.19993903863E+02 -0.35543031763E+02 -0.17453131617E+03  0.17923237325E+03  0.00000000000E+00 0.  1.
         11    1    1    2    0    0 -0.32948206823E+02  0.59132358184E+02 -0.26068891445E+03  0.26933423517E+03  0.00000000000E+00 0. -1.
</event>
<event>
 7    1  0.2732144E-009  0.1028063E+03  0.7561462E-02  0.1274503E+00
          2   -1    0    0  501    0  0.00000000000E+00  0.00000000000E+00  0.13465183031E+03  0.13465183031E+03  0.00000000000E+00 0. -1.
         -2   -1    0    0    0  501 -0.00000000000E+00 -0.00000000000E+00 -0.11162364388E+03  0.11162364388E+03  0.00000000000E+00 0.  1.
         25    2    1    2    0    0  0.22207676726E+02  0.35537951727E+02 -0.23336307557E+02  0.13395749425E+03  0.12507557754E+03 0.  0.
          5    1    3    3  502    0  0.51524603911E+02 -0.29418614550E+02 -0.18990981484E+02  0.62436923915E+02  0.41800000000E+01 0. -1.
         -5    1    3    3    0  502 -0.29316927185E+02  0.64956566277E+02 -0.43453260724E+01  0.71520570333E+02  0.41800000000E+01 0. -1.
        -11    1    1    2    0    0 -0.43981519951E+02 -0.23992976343E+02  0.64534282490E+02  0.81698902242E+02  0.00000000000E+00 0. -1.
         11    1    1    2    0    0  0.21773843225E+02 -0.11544975384E+02 -0.18169788496E+02  0.30619077704E+02  0.00000000000E+00 0.  1.
</event>
<event>
 7    1  0.2732144E-009  0.1315558E+03  0.7561462E-02  0.1225165E+00
          2   -1    0    0  501    0  0.00000000000E+00  0.00000000000E+00  0.64339058299E+03  0.64339058299E+03  0.00000000000E+00 0. -1.
         -2   -1    0    0    0  501 -0.00000000000E+00 -0.00000000000E+00 -0.38434553125E+02  0.38434553125E+02  0.00000000000E+00 0.  1.
         25    2    1    2    0    0 -0.10251785451E+03 -0.18398192452E+02  0.22525963267E+03  0.27791797821E+03  0.12509235197E+03 0.  0.
          5    1    3    3  502    0 -0.12355265598E+03 -0.28752652007E+02  0.21928021132E+03  0.25336388313E+03  0.41800000000E+01 0. -1.
         -5    1    3    3    0  502  0.21034801467E+02  0.10354459554E+02  0.59794213436E+01  0.24554095076E+02  0.41800000000E+01 0. -1.
        -11    1    1    2    0    0  0.11640057747E+02 -0.11833941569E+02  0.52549061973E+01  0.17411121634E+02  0.00000000000E+00 0.  1.
         11    1    1    2    0    0  0.90877796767E+02  0.30232134021E+02  0.37444149100E+03  0.38649603627E+03  0.00000000000E+00 0. -1.
</event>
<event>
 7    1  0.2732144E-009  0.9811914E+02  0.7561462E-02  0.1284302E+00
         -1   -1    0    0    0  501 -0.00000000000E+00  0.00000000000E+00  0.14993647465E+03  0.14993647465E+03  0.00000000000E+00 0.  1.
          1   -1    0    0  501    0  0.00000000000E+00 -0.00000000000E+00 -0.13657659757E+03  0.13657659757E+03  0.00000000000E+00 0. -1.
         25    2    1    2    0    0  0.51438238806E+01  0.24282039585E+02 -0.83269628685E+02  0.15230700264E+03  0.12509003006E+03 0.  0.
          5    1    3    3  502    0 -0.52446793184E+02 -0.11137076985E+02 -0.60255823562E+02  0.80764703133E+02  0.41800000000E+01 0. -1.
         -5    1    3    3    0  502  0.57590617065E+02  0.35419116570E+02 -0.23013805123E+02  0.71542299507E+02  0.41800000000E+01 0. -1.
        -11    1    1    2    0    0  0.32222206298E+02 -0.47936200298E+01  0.84178767043E+02  0.90262473889E+02  0.00000000000E+00 0.  1.
         11    1    1    2    0    0 -0.37366030179E+02 -0.19488419555E+02  0.12450738722E+02  0.43943595697E+02  0.00000000000E+00 0. -1.
</event>
<event>
 7    1  0.2732144E-009  0.1179521E+03  0.7561462E-02  0.1246514E+00
         -1   -1    0    0    0  501 -0.00000000000E+00  0.00000000000E+00  0.33518980343E+02  0.33518980343E+02  0.00000000000E+00 0.  1.
          1   -1    0    0  501    0  0.00000000000E+00 -0.00000000000E+00 -0.49870353170E+03  0.49870353170E+03  0.00000000000E+00 0. -1.
         25    2    1    2    0    0 -0.71149962871E+01 -0.45431579317E+02 -0.15142195678E+03  0.20172680965E+03  0.12510173925E+03 0.  0.
          5    1    3    3  502    0 -0.41773938848E+02  0.28920788644E+02 -0.62923648596E+02  0.80983528790E+02  0.41800000000E+01 0. -1.
         -5    1    3    3    0  502  0.34658942561E+02 -0.74352367961E+02 -0.88498308181E+02  0.12074328086E+03  0.41800000000E+01 0. -1.
        -11    1    1    2    0    0 -0.39045930633E+02  0.40668602132E+02 -0.19507033002E+03  0.20305406559E+03  0.00000000000E+00 0.  1.
         11    1    1    2    0    0  0.46160926920E+02  0.47629771853E+01 -0.11869226456E+03  0.12744163681E+03  0.00000000000E+00 0. -1.
</event>
<event>
 7    1  0.2732144E-009  0.1007042E+03  0.7561462E-02  0.1278822E+00
          1   -1    0    0  501    0  0.00000000000E+00  0.00000000000E+00  0.13873279832E+04  0.13873279832E+04  0.00000000000E+00 0. -1.
         -1   -1    0    0    0  501 -0.00000000000E+00 -0.00000000000E+00 -0.91001613771E+01  0.91001613771E+01  0.00000000000E+00 0.  1.
         25    2    1    2    0    0  0.16924903073E+02 -0.71853525635E+01  0.92025393391E+03  0.92889901687E+03  0.12509196228E+03 0.  0.
          5    1    3    3  502    0  0.62997439374E+02 -0.23397009510E+01  0.28379205055E+03  0.29073966349E+03  0.41800000000E+01 0. -1.
         -5    1    3    3    0  502 -0.46072536301E+02 -0.48456516125E+01  0.63646188336E+03  0.63815935338E+03  0.41800000000E+01 0. -1.
        -11    1    1    2    0    0 -0.52104039220E+02 -0.91939120445E+01  0.31355653026E+03  0.31798908250E+03  0.00000000000E+00 0. -1.
         11    1    1    2    0    0  0.35179136147E+02  0.16379264608E+02  0.14441735768E+03  0.14954004523E+03  0.00000000000E+00 0.  1.
</event>
<event>
 7    1  0.2732144E-009  0.9777260E+02  0.7561462E-02  0.1285051E+00
         -2   -1    0    0    0  501 -0.00000000000E+00  0.00000000000E+00  0.19768026091E+02  0.19768026091E+02  0.00000000000E+00 0.  1.
          2   -1    0    0  501    0  0.00000000000E+00 -0.00000000000E+00 -0.79862079255E+03  0.79862079255E+03  0.00000000000E+00 0. -1.
         25    2    1    2    0    0 -0.85954080248E+01 -0.18408805164E+02 -0.62501457668E+03  0.63773429017E+03  0.12509611764E+03 0.  0.
          5    1    3    3  502    0 -0.50475460167E+01 -0.69895632394E+02 -0.44183959247E+03  0.44738191182E+03  0.41800000000E+01 0.  1.
         -5    1    3    3    0  502 -0.35478620081E+01  0.51486827230E+02 -0.18317498421E+03  0.19035237835E+03  0.41800000000E+01 0.  1.
        -11    1    1    2    0    0  0.13451530850E+02  0.44776789202E+02 -0.14511347922E+03  0.15245926140E+03  0.00000000000E+00 0. -1.
         11    1    1    2    0    0 -0.48561228253E+01 -0.26367984038E+02 -0.87247105539E+01  0.28195267074E+02  0.00000000000E+00 0.  1.
</event>
<event>
 7    1  0.2732144E-009  0.1987762E+03  0.7561462E-02  0.1150776E+00
         -2   -1    0    0    0  501 -0.00000000000E+00  0.00000000000E+00  0.11869442428E+03  0.11869442428E+03  0.00000000000E+00 0. -1.
          2   -1    0    0  501    0  0.00000000000E+00 -0.00000000000E+00 -0.37903873100E+03  0.37903873100E+03  0.00000000000E+00 0.  1.
         25    2    1    2    0    0 -0.12467905654E+03  0.12760590242E+03 -0.15990852517E+03  0.27027097706E+03  0.12509009212E+03 0.  0.
          5    1    3    3  502    0 -0.13727977967E+03  0.13687686223E+03 -0.12210767218E+03  0.22914792019E+03  0.41800000000E+01 0. -1.
         -5    1    3    3    0  502  0.12600723127E+02 -0.92709598182E+01 -0.37800852998E+02  0.41123056874E+02  0.41800000000E+01 0. -1.
        -11    1    1    2    0    0  0.10606995683E+03 -0.70416870085E+02 -0.22937172866E+02  0.12936570347E+03  0.00000000000E+00 0. -1.
         11    1    1    2    0    0  0.18609099707E+02 -0.57189032332E+02 -0.77498608676E+02  0.98096474746E+02  0.00000000000E+00 0.  1.
</event>
<event>
 7    1  0.2732144E-009  0.9710977E+02  0.7561462E-02  0.1286494E+00
          2   -1    0    0  501    0  0.00000000000E+00  0.00000000000E+00  0.17475395420E+03  0.17475395420E+03  0.00000000000E+00 0. -1.
         -2   -1    0    0    0  501 -0.00000000000E+00 -0.00000000000E+00 -0.87803446873E+02  0.87803446873E+02  0.00000000000E+00 0.  1.
         25    2    1    2    0    0  0.11274033654E+02  0.34100626672E+02  0.90221307286E+00  0.13014707413E+03  0.12508992902E+03 0.  0.
          5    1    3    3  502    0  0.19997853746E+02  0.70344712344E+02 -0.32294944853E+02  0.80054534989E+02  0.41800000000E+01 0. -1.
         -5    1    3    3    0  502 -0.87238200918E+01 -0.36244085672E+02  0.33197157926E+02  0.50092539141E+02  0.41800000000E+01 0. -1.
        -11    1    1    2    0    0 -0.27807757035E+02 -0.52074164726E+02  0.90037659099E+02  0.10766508273E+03  0.00000000000E+00 0. -1.
         11    1    1    2    0    0  0.16533723381E+02  0.17973538054E+02 -0.39893648492E+01  0.24745244208E+02  0.00000000000E+00 0.  1.
</event>
<event>
 7    1  0.2732144E-009  0.9698643E+02  0.7561462E-02  0.1286764E+00
          2   -1    0    0  501    0  0.00000000000E+00  0.00000000000E+00  0.27323878790E+02  0.27323878790E+02  0.00000000000E+00 0. -1.
         -2   -1    0    0    0  501 -0.00000000000E+00 -0.00000000000E+00 -0.59527567440E+03  0.59527567440E+03  0.00000000000E+00 0.  1.
         25    2    1    2    0    0  0.44864474839E+01  0.79355967916E+01 -0.47709826494E+03  0.49330843585E+03  0.12508939430E+03 0.  0.
          5    1    3    3  502    0  0.55648159496E+02 -0.16207358614E+02 -0.34012443847E+03  0.34505289764E+03  0.41800000000E+01 0.  1.
         -5    1    3    3    0  502 -0.51161712012E+02  0.24142955405E+02 -0.13697382648E+03  0.14825553821E+03  0.41800000000E+01 0.  1.
        -11    1    1    2    0    0 -0.35687368887E+02 -0.25000402771E+02 -0.81662228597E+02  0.92559861798E+02  0.00000000000E+00 0. -1.
         11    1    1    2    0    0  0.31200921403E+02  0.17064805980E+02 -0.91913020705E+01  0.36731255536E+02  0.00000000000E+00 0.  1.
</event>
<event>
 7    1  0.2732144E-009  0.9653842E+02  0.7561462E-02  0.1287748E+00
         -1   -1    0    0    0  501 -0.00000000000E+00  0.00000000000E+00  0.52560065317E+03  0.52560065317E+03  0.00000000000E+00 0.  1.
          1   -1    0    0  501    0  0.00000000000E+00 -0.00000000000E+00 -0.23337149406E+02  0.23337149406E+02  0.00000000000E+00 0. -1.
         25    2    1    2    0    0 -0.13069831559E+02  0.19051770105E+02  0.31361674490E+03  0.33843049444E+03  0.12508375772E+03 0.  0.
          5    1    3    3  502    0  0.16503119735E+02  0.52920013325E+02  0.64044427610E+02  0.84805907101E+02  0.41800000000E+01 0.  1.
         -5    1    3    3    0  502 -0.29572951294E+02 -0.33868243220E+02  0.24957231729E+03  0.25362458734E+03  0.41800000000E+01 0.  1.
        -11    1    1    2    0    0 -0.25809638872E+02 -0.40425769989E+02  0.11387301211E+03  0.12356149572E+03  0.00000000000E+00 0.  1.
         11    1    1    2    0    0  0.38879470431E+02  0.21373999884E+02  0.74773746755E+02  0.86945812412E+02  0.00000000000E+00 0. -1.
</event>
<event>
 7    1  0.2732144E-009  0.9749781E+02  0.7561462E-02  0.1285647E+00
          2   -1    0    0  501    0  0.00000000000E+00  0.00000000000E+00  0.10533213226E+04  0.10533213226E+04  0.00000000000E+00 0. -1.
         -2   -1    0    0    0  501 -0.00000000000E+00 -0.00000000000E+00 -0.16856313976E+02  0.16856313976E+02  0.00000000000E+00 0.  1.
         25    2    1    2    0    0 -0.29279869777E+02  0.52622557482E+02  0.76667541133E+03  0.77914385624E+03  0.12509003976E+03 0.  0.
          5    1    3    3  502    0 -0.47885687560E+02  0.31670176163E+02  0.13407828609E+03  0.14591263939E+03  0.41800000000E+01 0. -1.
         -5    1    3    3    0  502  0.18605817783E+02  0.20952381319E+02  0.63259712524E+03  0.63323121686E+03  0.41800000000E+01 0. -1.
        -11    1    1    2    0    0 -0.28842386459E+02 -0.40512866274E+02  0.11855989491E+03  0.12856758639E+03  0.00000000000E+00 0.  1.
         11    1    1    2    0    0  0.58122256236E+02 -0.12109691207E+02  0.15122970241E+03  0.16246619396E+03  0.00000000000E+00 0. -1.
</event>
<event>
 7    1  0.2732144E-009  0.1550344E+03  0.7561462E-02  0.1194420E+00
          1   -1    0    0  501    0  0.00000000000E+00  0.00000000000E+00  0.92450606188E+03  0.92450606188E+03  0.00000000000E+00 0. -1.
         -1   -1    0    0    0  501 -0.00000000000E+00 -0.00000000000E+00 -0.34555628103E+02  0.34555628103E+02  0.00000000000E+00 0.  1.
         25    2    1    2    0    0 -0.14176558396E+03  0.22662285085E+02  0.41138302209E+03  0.45331449544E+03  0.12508789292E+03 0.  0.
          5    1    3    3  502    0 -0.70005221603E+02  0.28525290823E+02  0.35153676694E+03  0.35959698855E+03  0.41800000000E+01 0.  1.
         -5    1    3    3    0  502 -0.71760362357E+02 -0.58630057378E+01  0.59846255153E+02  0.93717506890E+02  0.41800000000E+01 0.  1.
        -11    1    1    2    0    0  0.74977352323E+02 -0.49948744249E+02  0.29726357555E+03  0.31061570109E+03  0.00000000000E+00 0. -1.
         11    1    1    2    0    0  0.66788231637E+02  0.27286459164E+02  0.18130383613E+03  0.19513149345E+03  0.00000000000E+00 0.  1.
</event>
<event>
 7    1  0.2732144E-009  0.2913840E+03  0.7561462E-02  0.1089629E+00
         -3   -1    0    0    0  501 -0.00000000000E+00  0.00000000000E+00  0.20829744873E+03  0.20829744873E+03  0.00000000000E+00 0.  1.
          3   -1    0    0  501    0  0.00000000000E+00 -0.00000000000E+00 -0.55624528080E+03  0.55624528080E+03  0.00000000000E+00 0. -1.
         25    2    1    2    0    0 -0.16035479598E+03  0.23328374392E+03 -0.52314857009E+01  0.30953259257E+03  0.12509233250E+03 0.  0.
          5    1    3    3  502    0 -0.76578306268E+02  0.14552351127E+03  0.55738977589E+02  0.17368257065E+03  0.41800000000E+01 0. -1.
         -5    1    3    3    0  502 -0.83776489716E+02  0.87760232642E+02 -0.60970463290E+02  0.13585002192E+03  0.41800000000E+01 0. -1.
        -11    1    1    2    0    0  0.89170496552E+02 -0.19857576818E+03 -0.22437554943E+03  0.31261493941E+03  0.00000000000E+00 0.  1.
         11    1    1    2    0    0  0.71184299432E+02 -0.34707975739E+02 -0.11834079693E+03  0.14239519755E+03  0.00000000000E+00 0. -1.
</event>
<event>
 7    1  0.2732144E-009  0.1178638E+03  0.7561462E-02  0.1246663E+00
         -1   -1    0    0    0  501 -0.00000000000E+00  0.00000000000E+00  0.82809534730E+02  0.82809534730E+02  0.00000000000E+00 0.  1.
          1   -1    0    0  501    0  0.00000000000E+00 -0.00000000000E+00 -0.18009408315E+03  0.18009408315E+03  0.00000000000E+00 0. -1.
         25    2    1    2    0    0  0.48925025278E+02  0.54205553008E+01 -0.85007917464E+02  0.15904622346E+03  0.12508522953E+03 0.  0.
          5    1    3    3  502    0  0.86830056584E+02  0.24009664115E+02 -0.69568601354E+02  0.11389989197E+03  0.41800000000E+01 0. -1.
         -5    1    3    3    0  502 -0.37905031306E+02 -0.18589108814E+02 -0.15439316110E+02  0.45146331487E+02  0.41800000000E+01 0. -1.
        -11    1    1    2    0    0 -0.15248171774E+01  0.38480567663E+02 -0.53289264032E+01  0.38877713560E+02  0.00000000000E+00 0.  1.
         11    1    1    2    0    0 -0.47400208100E+02 -0.43901122963E+02 -0.69477045486E+01  0.64979680854E+02  0.00000000000E+00 0. -1.
</event>
<event>
 7    1  0.2732144E-009  0.8310913E+02  0.7561462E-02  0.1320453E+00
         -2   -1    0    0    0  501 -0.00000000000E+00  0.00000000000E+00  0.27649586156E+02  0.27649586156E+02  0.00000000000E+00 0. -1.
          2   -1    0    0  501    0  0.00000000000E+00 -0.00000000000E+00 -0.74347763265E+03  0.74347763265E+03  0.00000000000E+00 0.  1.
         25    2    1    2    0    0 -0.32898210875E+02 -0.42029546526E+02 -0.17933264633E+03  0.22507121649E+03  0.12509228350E+03 0.  0.
          5    1    3    3  502    0 -0.33991903674E+02 -0.13271019971E+02  0.62210543513E+01  0.37252428158E+02  0.41800000000E+01 0.  1.
         -5    1    3    3    0  502  0.10936927986E+01 -0.28758526555E+02 -0.18555370068E+03  0.18781878833E+03  0.41800000000E+01 0.  1.
        -11    1    1    2    0    0  0.34499460925E+02  0.67013442758E+02 -0.43743417782E+03  0.44388024763E+03  0.00000000000E+00 0.  1.
         11    1    1    2    0    0 -0.16012500501E+01 -0.24983896232E+02 -0.99061222348E+02  0.10217575469E+03  0.00000000000E+00 0. -1.
</event>
<event>
 7    1  0.2732144E-009  0.1066769E+03  0.7561462E-02  0.1266850E+00
         -2   -1    0    0    0  501 -0.00000000000E+00  0.00000000000E+00  0.10138377320E+03  0.10138377320E+03  0.00000000000E+00 0.  1.
          2   -1    0    0  501    0  0.00000000000E+00 -0.00000000000E+00 -0.17414620378E+03  0.17414620378E+03  0.00000000000E+00 0. -1.
         25    2    1    2    0    0  0.78714824041E+02  0.11460779733E+02 -0.75588377527E+02  0.16638425897E+03  0.12507096314E+03 0.  0.
          5    1    3    3  502    0  0.27771983842E+02 -0.29187418530E+02  0.24156900477E+02  0.47161602259E+02  0.41800000000E+01 0.  1.
         -5    1    3    3    0  502  0.50942840198E+02  0.40648198263E+02 -0.99745278004E+02  0.11922265671E+03  0.41800000000E+01 0.  1.
        -11    1    1    2    0    0 -0.44322310584E+02  0.30114860452E+02  0.10623188185E+02  0.54628052892E+02  0.00000000000E+00 0.  1.
         11    1    1    2    0    0 -0.34392513457E+02 -0.41575640186E+02 -0.77972412432E+01  0.54517665116E+02  0.00000000000E+00 0. -1.
</event>
<event>
 7    1  0.2732144E-009  0.9717233E+02  0.7561462E-02  0.1286357E+00
          3   -1    0    0  501    0  0.00000000000E+00  0.00000000000E+00  0.31481828845E+03  0.31481828845E+03  0.00000000000E+00 0. -1.
         -3   -1    0    0    0  501 -0.00000000000E+00 -0.00000000000E+00 -0.45866230166E+02  0.45866230166E+02  0.00000000000E+00 0.  1.
         25    2    1    2    0    0  0.29431831222E+02  0.19252601899E+02  0.95573676865E+02  0.16130785441E+03  0.12509596642E+03 0.  0.
          5    1    3    3  502    0 -0.10834291254E+02 -0.40002721557E+02 -0.17019249366E+00  0.41654543143E+02  0.41800000000E+01 0.  1.
         -5    1    3    3    0  502  0.40266122475E+02  0.59255323456E+02  0.95743869359E+02  0.11965331127E+03  0.41800000000E+01 0.  1.
        -11    1    1    2    0    0  0.23982783508E+02  0.46983716616E+00  0.93476853840E+01  0.25744394997E+02  0.00000000000E+00 0.  1.
         11    1    1    2    0    0 -0.53414614730E+02 -0.19722439065E+02  0.16403069603E+03  0.17363226921E+03  0.00000000000E+00 0. -1.
</event>
<event>
 7    1  0.2732144E-009  0.7777052E+02  0.7561462E-02  0.1335500E+00
          2   -1    0    0  501    0  0.00000000000E+00  0.00000000000E+00  0.50232904028E+03  0.50232904028E+03  0.00000000000E+00 0. -1.
         -2   -1    0    0    0  501 -0.00000000000E+00 -0.00000000000E+00 -0.27783028604E+02  0.27783028604E+02  0.00000000000E+00 0.  1.
         25    2    1    2    0    0 -0.32260574269E+02  0.44545242269E+02  0.31301457728E+03  0.34155236111E+03  0.12511940907E+03 0.  0.
          5    1    3    3  502    0 -0.18041574521E+01  0.16086382866E+02  0.29578197340E+03  0.29625407151E+03  0.41800000000E+01 0. -1.
         -5    1    3    3    0  502 -0.30456416817E+02  0.28458859403E+02  0.17232603882E+02  0.45298289597E+02  0.41800000000E+01 0. -1.
        -11    1    1    2    0    0  0.21526630296E+02 -0.67898074775E+02  0.12543563978E+03  0.14424854972E+03  0.00000000000E+00 0. -1.
         11    1    1    2    0    0  0.10733943974E+02  0.23352832506E+02  0.36095794613E+02  0.44311158054E+02  0.00000000000E+00 0.  1.
</event>
<event>
 7    1  0.3283825E-009  0.1700059E+03  0.7561462E-02  0.1177842E+00
          2   -1    0    0  501    0  0.00000000000E+00  0.00000000000E+00  0.13541527984E+04  0.13541527984E+04  0.00000000000E+00 0. -1.
         -2   -1    0    0    0  501 -0.00000000000E+00 -0.00000000000E+00 -0.25432382701E+02  0.25432382701E+02  0.00000000000E+00 0.  1.
         25    2    1    2    0    0  0.11974911542E+03  0.89292024258E+02  0.74518743069E+03  0.77023296650E+03  0.12506638075E+03 0.  0.
          5    1    3    3  502    0  0.12246748297E+03  0.10776381972E+03  0.72180077300E+03  0.74001699544E+03  0.41800000000E+01 0.  1.
         -5    1    3    3    0  502 -0.27183675514E+01 -0.18471795467E+02  0.23386657684E+02  0.30215971067E+02  0.41800000000E+01 0.  1.
        -11    1    1    2    0    0 -0.53914860119E+02 -0.71407372265E+02  0.45623985007E+03  0.46493077522E+03  0.00000000000E+00 0. -1.
         11    1    1    2    0    0 -0.65834255300E+02 -0.17884651993E+02  0.12729313493E+03  0.14442143936E+03  0.00000000000E+00 0.  1.
</event>
<event>
 7    1  0.2732144E-009  0.8315342E+02  0.7561462E-02  0.1320333E+00
         -1   -1    0    0    0  501 -0.00000000000E+00  0.00000000000E+00  0.45576271680E+02  0.45576271680E+02  0.00000000000E+00 0.  1.
          1   -1    0    0  501    0  0.00000000000E+00 -0.00000000000E+00 -0.31268643402E+03  0.31268643402E+03  0.00000000000E+00 0. -1.
         25    2    1    2    0    0  0.37864544124E+02  0.42384568039E+02 -0.19461814894E+03  0.23823158564E+03  0.12509152325E+03 0.  0.
          5    1    3    3  502    0  0.13975117393E+02 -0.16361506063E+02  0.99103575043E+01  0.24055984134E+02  0.41800000000E+01 0.  1.
         -5    1    3    3    0  502  0.23889426731E+02  0.58746074102E+02 -0.20452850645E+03  0.21417560151E+03  0.41800000000E+01 0.  1.
        -11    1    1    2    0    0 -0.30062951736E+02 -0.56899428043E+02 -0.23778164778E+02  0.68605590872E+02  0.00000000000E+00 0.  1.
         11    1    1    2    0    0 -0.78015923881E+01  0.14514860004E+02 -0.48713848622E+02  0.51425529188E+02  0.00000000000E+00 0. -1.
</event>
<event>
 7    1  0.2732144E-009  0.1040059E+03  0.7561462E-02  0.1272091E+00
         -1   -1    0    0    0  501 -0.00000000000E+00  0.00000000000E+00  0.20293799604E+02  0.20293799604E+02  0.00000000000E+00 0.  1.
          1   -1    0    0  501    0  0.00000000000E+00 -0.00000000000E+00 -0.72645425379E+03  0.72645425379E+03  0.00000000000E+00 0. -1.
         25    2    1    2    0    0 -0.36289148312E+02  0.42298551184E+02 -0.40026270410E+03  0.42303125577E+03  0.12505655259E+03 0.  0.
          5    1    3    3  502    0 -0.55601595860E+02 -0.60639548004E+01 -0.75284088790E+02  0.93880112031E+02  0.41800000000E+01 0.  1.
         -5    1    3    3    0  502  0.19312447548E+02  0.48362505985E+02 -0.32497861531E+03  0.32915114373E+03  0.41800000000E+01 0.  1.
        -11    1    1    2    0    0 -0.20451722392E+02 -0.37529383317E+02 -0.79413992083E+02  0.90184864027E+02  0.00000000000E+00 0.  1.
         11    1    1    2    0    0  0.56740870704E+02 -0.47691678675E+01 -0.22648375801E+03  0.23353193361E+03  0.00000000000E+00 0. -1.
</event>
<event>
 7    1  0.2732144E-009  0.9984218E+02  0.7561462E-02  0.1280628E+00
          1   -1    0    0  501    0  0.00000000000E+00  0.00000000000E+00  0.45222808652E+03  0.45222808652E+03  0.00000000000E+00 0. -1.
         -1   -1    0    0    0  501 -0.00000000000E+00 -0.00000000000E+00 -0.33764248533E+02  0.33764248533E+02  0.00000000000E+00 0.  1.
         25    2    1    2    0    0  0.51006279204E+01 -0.31976932196E+02  0.13526388137E+03  0.18706148597E+03  0.12508853398E+03 0.  0.
          5    1    3    3  502    0  0.51395333404E+02 -0.81435704577E+01  0.12549094861E+02  0.53691248983E+02  0.41800000000E+01 0.  1.
         -5    1    3    3    0  502 -0.46294705483E+02 -0.23833361738E+02  0.12271478651E+03  0.13337023699E+03  0.41800000000E+01 0.  1.
        -11    1    1    2    0    0  0.38412963719E+02 -0.42178646068E+01  0.10091606175E+03  0.10806200851E+03  0.00000000000E+00 0.  1.
         11    1    1    2    0    0 -0.43513591639E+02  0.36194796802E+02  0.18228389487E+03  0.19086884057E+03  0.00000000000E+00 0. -1.
</event>
<event>
 7    1  0.2732144E-009  0.1075689E+03  0.7561462E-02  0.1265139E+00
          1   -1    0    0  501    0  0.00000000000E+00  0.00000000000E+00  0.12719754404E+03  0.12719754404E+03  0.00000000000E+00 0. -1.
         -1   -1    0    0    0  501 -0.00000000000E+00 -0.00000000000E+00 -0.10633355260E+03  0.10633355260E+03  0.00000000000E+00 0.  1.
         25    2    1    2    0    0  0.28199679374E+02  0.22753529772E+02 -0.34517999641E+01  0.13027707572E+03  0.12508899432E+03 0.  0.
          5    1    3    3  502    0  0.78668910865E+01  0.66669468378E+02  0.27513775302E+02  0.72671770452E+02  0.41800000000E+01 0. -1.
         -5    1    3    3    0  502  0.20332788288E+02 -0.43915938606E+02 -0.30965575266E+02  0.57605305266E+02  0.41800000000E+01 0. -1.
        -11    1    1    2    0    0  0.32850440229E+02 -0.19417121271E+02  0.21553623789E+01  0.38220696078E+02  0.00000000000E+00 0.  1.
         11    1    1    2    0    0 -0.61050119603E+02 -0.33364085014E+01  0.22160429028E+02  0.65033324842E+02  0.00000000000E+00 0. -1.
</event>
<event>
 7    1  0.2732144E-009  0.1258941E+03  0.7561462E-02  0.1233679E+00
         -2   -1    0    0    0  501 -0.00000000000E+00  0.00000000000E+00  0.28240750132E+02  0.28240750132E+02  0.00000000000E+00 0.  1.
          2   -1    0    0  501    0  0.00000000000E+00 -0.00000000000E+00 -0.86528694596E+03  0.86528694596E+03  0.00000000000E+00 0. -1.
         25    2    1    2    0    0  0.32078642207E+02 -0.87162661317E+02 -0.26339882104E+03  0.30602920494E+03  0.12509423063E+03 0.  0.
          5    1    3    3  502    0 -0.17778101960E+02  0.77254989081E+01 -0.14465268738E+03  0.14600553622E+03  0.41800000000E+01 0. -1.
         -5    1    3    3    0  502  0.49856744167E+02 -0.94888160225E+02 -0.11874613367E+03  0.16002366872E+03  0.41800000000E+01 0. -1.
        -11    1    1    2    0    0  0.27707637641E+02  0.39392841801E+02 -0.27601756661E+03  0.28018780531E+03  0.00000000000E+00 0. -1.
         11    1    1    2    0    0 -0.59786279848E+02  0.47769819516E+02 -0.29762980817E+03  0.30731068583E+03  0.00000000000E+00 0.  1.
</event>
<event>
 7    1  0.2747196E-009  0.2095729E+03  0.7561462E-02  0.1141905E+00
         -2   -1    0    0    0  501 -0.00000000000E+00  0.00000000000E+00  0.27692661322E+02  0.27692661322E+02  0.00000000000E+00 0.  1.
          2   -1    0    0  501    0  0.00000000000E+00 -0.00000000000E+00 -0.17030251047E+04  0.17030251047E+04  0.00000000000E+00 0. -1.
         25    2    1    2    0    0 -0.85101862291E+02 -0.16615091379E+03 -0.95445051026E+03  0.98054678875E+03  0.12509106794E+03 0.  0.
          5    1    3    3  502    0  0.23263374865E+02 -0.61882019605E+00 -0.16428110858E+03  0.16597386115E+03  0.41800000000E+01 0. -1.
         -5    1    3    3    0  502 -0.10836523716E+03 -0.16553209359E+03 -0.79016940168E+03  0.81457292761E+03  0.41800000000E+01 0. -1.
        -11    1    1    2    0    0  0.45430878071E+02  0.26855030626E+02 -0.31114706663E+03  0.31559096062E+03  0.00000000000E+00 0.  1.
         11    1    1    2    0    0  0.39670984220E+02  0.13929588316E+03 -0.40973486648E+03  0.43458001664E+03  0.00000000000E+00 0. -1.
</event>
<event>
 7    1  0.2732144E-009  0.1316945E+03  0.7561462E-02  0.1224963E+00
          1   -1    0    0  501    0  0.00000000000E+00  0.00000000000E+00  0.29027845971E+03  0.29027845971E+03  0.00000000000E+00 0. -1.
         -1   -1    0    0    0  501 -0.00000000000E+00 -0.00000000000E+00 -0.88830808163E+02  0.88830808163E+02  0.00000000000E+00 0.  1.
         25    2    1    2    0    0  0.11609968429E+03  0.86396880818E+01  0.10710583060E+03  0.20167735211E+03  0.12509322326E+03 0.  0.
          5    1    3    3  502    0  0.94089875393E+01 -0.21165943971E+02 -0.21506961297E+02  0.31883350121E+02  0.41800000000E+01 0.  1.
         -5    1    3    3    0  502  0.10669069675E+03  0.29805632053E+02  0.12861279189E+03  0.16979400199E+03  0.41800000000E+01 0.  1.
        -11    1    1    2    0    0 -0.86077310911E+02  0.19044468803E+02  0.10311304508E+03  0.13566243147E+03  0.00000000000E+00 0. -1.
         11    1    1    2    0    0 -0.30022373375E+02 -0.27684156885E+02 -0.87712241291E+01  0.41769484294E+02  0.00000000000E+00 0.  1.
</event>
<event>
 7    1  0.2732144E-009  0.1656536E+03  0.7561462E-02  0.1182458E+00
          1   -1    0    0  501    0  0.00000000000E+00  0.00000000000E+00  0.29007666696E+03  0.29007666696E+03  0.00000000000E+00 0. -1.
         -1   -1    0    0    0  501 -0.00000000000E+00 -0.00000000000E+00 -0.98818033693E+02  0.98818033693E+02  0.00000000000E+00 0.  1.
         25    2    1    2    0    0 -0.45638322554E+02  0.11899494269E+03  0.77701066528E+02  0.19475247647E+03  0.12509363886E+03 0.  0.
          5    1    3    3  502    0 -0.22721735249E+02  0.14150970425E+03  0.76074647738E+02  0.16231481164E+03  0.41800000000E+01 0. -1.
         -5    1    3    3    0  502 -0.22916587306E+02 -0.22514761561E+02  0.16264187895E+01  0.32437664835E+02  0.41800000000E+01 0. -1.
        -11    1    1    2    0    0 -0.13696594728E+02 -0.87085942603E+02  0.79238365931E+02  0.11853386327E+03  0.00000000000E+00 0. -1.
         11    1    1    2    0    0  0.59334917282E+02 -0.31909000083E+02  0.34319200805E+02  0.75608360907E+02  0.00000000000E+00 0.  1.
</event>
<event>
 7    1  0.2732144E-009  0.9930206E+02  0.7561462E-02  0.1281771E+00
         -1   -1    0    0    0  501 -0.00000000000E+00  0.00000000000E+00  0.15267593083E+02  0.15267593083E+02  0.00000000000E+00 0.  1.
          1   -1    0    0  501    0  0.00000000000E+00 -0.00000000000E+00 -0.83692569851E+03  0.83692569851E+03  0.00000000000E+00 0. -1.
         25    2    1    2    0    0  0.22498191504E+01 -0.18056781330E+02 -0.57411621498E+03  0.58786805974E+03  0.12509323853E+03 0.  0.
          5    1    3    3  502    0 -0.35294703094E+02 -0.46806742925E+02 -0.14998994197E+03  0.16109327218E+03  0.41800000000E+01 0. -1.
         -5    1    3    3    0  502  0.37544522244E+02  0.28749961594E+02 -0.42412627301E+03  0.42677478756E+03  0.41800000000E+01 0. -1.
        -11    1    1    2    0    0  0.42179055382E+02  0.22332375501E+02 -0.13895911616E+03  0.14692666086E+03  0.00000000000E+00 0.  1.
         11    1    1    2    0    0 -0.44428874532E+02 -0.42755941708E+01 -0.10858277429E+03  0.11739857099E+03  0.00000000000E+00 0. -1.
</event>
<event>
 7    1  0.2732144E-009  0.8763210E+02  0.7561462E-02  0.1308689E+00
          2   -1    0    0  501    0  0.00000000000E+00  0.00000000000E+00  0.73165723117E+03  0.73165723117E+03  0.00000000000E+00 0. -1.
         -2   -1    0    0    0  501 -0.00000000000E+00 -0.00000000000E+00 -0.18092480120E+02  0.18092480120E+02  0.00000000000E+00 0.  1.
         25    2    1    2    0    0  0.19144028305E+02 -0.27018168474E+02  0.37012745134E+03  0.39209533346E+03  0.12509174651E+03 0.  0.
          5    1    3    3  502    0 -0.19743783297E+02 -0.30110485034E+02  0.34176842576E+03  0.34368530305E+03  0.41800000000E+01 0. -1.
         -5    1    3    3    0  502  0.38887811602E+02  0.30923165601E+01  0.28359025581E+02  0.48410030415E+02  0.41800000000E+01 0. -1.
        -11    1    1    2    0    0  0.32506717337E+02  0.34717837218E+02  0.16964070507E+03  0.17618167813E+03  0.00000000000E+00 0.  1.
         11    1    1    2    0    0 -0.51650745642E+02 -0.76996687441E+01  0.17379659465E+03  0.18147269970E+03  0.00000000000E+00 0. -1.
</event>
<event>
 7    1  0.2732144E-009  0.1121137E+03  0.7561462E-02  0.1256705E+00
          2   -1    0    0  501    0  0.00000000000E+00  0.00000000000E+00  0.51021916150E+02  0.51021916150E+02  0.00000000000E+00 0. -1.
         -2   -1    0    0    0  501 -0.00000000000E+00 -0.00000000000E+00 -0.43316747251E+03  0.43316747251E+03  0.00000000000E+00 0.  1.
         25    2    1    2    0    0  0.47019780496E+02  0.70119209096E+02 -0.30012921224E+03  0.33593520382E+03  0.12508938357E+03 0.  0.
          5    1    3    3  502    0  0.43725419745E+01  0.69316733676E+02 -0.59597043925E+02  0.91614457022E+02  0.41800000000E+01 0. -1.
         -5    1    3    3    0  502  0.42647238522E+02  0.80247541991E+00 -0.24053216832E+03  0.24432074680E+03  0.41800000000E+01 0. -1.
        -11    1    1    2    0    0 -0.36396336177E+02 -0.85597946103E+02 -0.38140441859E+02  0.10053056734E+03  0.00000000000E+00 0. -1.
         11    1    1    2    0    0 -0.10623444319E+02  0.15478737008E+02 -0.43875902259E+02  0.47723617504E+02  0.00000000000E+00 0.  1.
</event>
<event>
 7    1  0.2732144E-009  0.1210067E+03  0.7561462E-02  0.1241445E+00
         -1   -1    0    0    0  501 -0.00000000000E+00  0.00000000000E+00  0.58769090864E+03  0.58769090864E+03  0.00000000000E+00 0.  1.
          1   -1    0    0  501    0  0.00000000000E+00 -0.00000000000E+00 -0.49526357144E+02  0.49526357144E+02  0.00000000000E+00 0. -1.
         25    2    1    2    0    0  0.87338319169E+02 -0.50285342974E+02  0.44896968270E+03  0.47684086392E+03  0.12508731273E+03 0.  0.
          5    1    3    3  502    0 -0.20382212135E+02 -0.19413269408E+02  0.23692906527E+02  0.37028851188E+02  0.41800000000E+01 0. -1.
         -5    1    3    3    0  502  0.10772053130E+03 -0.30872073567E+02  0.42527677618E+03  0.43981201273E+03  0.41800000000E+01 0. -1.
        -11    1    1    2    0    0 -0.74820983133E+02  0.47414335212E+02  0.21068863110E+02  0.91050511768E+02  0.00000000000E+00 0. -1.
         11    1    1    2    0    0 -0.12517336036E+02  0.28710077624E+01  0.68126005679E+02  0.69325890090E+02  0.00000000000E+00 0.  1.
</event>
<event>
 7    1  0.2732144E-009  0.2675132E+03  0.7561462E-02  0.1102711E+00
         -2   -1    0    0    0  501 -0.00000000000E+00  0.00000000000E+00  0.76372014351E+02  0.76372014351E+02  0.00000000000E+00 0. -1.
          2   -1    0    0  501    0  0.00000000000E+00 -0.00000000000E+00 -0.97679819862E+03  0.97679819862E+03  0.00000000000E+00 0.  1.
         25    2    1    2    0    0 -0.24479681107E+03 -0.20002415349E+02 -0.36831958423E+03  0.46003495102E+03  0.12508902712E+03 0.  0.
          5    1    3    3  502    0 -0.22051336592E+03 -0.60033778548E+02 -0.30865239199E+03  0.38407547513E+03  0.41800000000E+01 0. -1.
         -5    1    3    3    0  502 -0.24283445151E+02  0.40031363199E+02 -0.59667192238E+02  0.75959475891E+02  0.41800000000E+01 0. -1.
        -11    1    1    2    0    0  0.22692183097E+03  0.42334485127E+02 -0.49588697221E+03  0.54698228052E+03  0.00000000000E+00 0.  1.
         11    1    1    2    0    0  0.17874980097E+02 -0.22332069779E+02 -0.36219627837E+02  0.46152981428E+02  0.00000000000E+00 0. -1.
</event>
<event>
 7    1  0.2732144E-009  0.1217049E+03  0.7561462E-02  0.1240311E+00
          1   -1    0    0  501    0  0.00000000000E+00  0.00000000000E+00  0.11985511187E+03  0.11985511187E+03  0.00000000000E+00 0. -1.
         -1   -1    0    0    0  501 -0.00000000000E+00 -0.00000000000E+00 -0.19140494137E+03  0.19140494137E+03  0.00000000000E+00 0.  1.
         25    2    1    2    0    0  0.67806500041E+01 -0.74924154856E+02  0.36824304262E+02  0.15053981251E+03  0.12508636844E+03 0.  0.
          5    1    3    3  502    0  0.64939212635E+02 -0.43299545412E+02  0.92650122638E+01  0.78710004591E+02  0.41800000000E+01 0. -1.
         -5    1    3    3    0  502 -0.58158562631E+02 -0.31624609444E+02  0.27559291998E+02  0.71829807916E+02  0.41800000000E+01 0. -1.
        -11    1    1    2    0    0 -0.33945694170E+02  0.25282652594E+02 -0.46722739597E+01  0.42583480586E+02  0.00000000000E+00 0. -1.
         11    1    1    2    0    0  0.27165044166E+02  0.49641502262E+02 -0.10370185980E+03  0.11813676014E+03  0.00000000000E+00 0.  1.
</event>
<event>
 7    1  0.2732144E-009  0.1464258E+03  0.7561462E-02  0.1204935E+00
          1   -1    0    0  501    0  0.00000000000E+00  0.00000000000E+00  0.57394552337E+02  0.57394552337E+02  0.00000000000E+00 0. -1.
         -1   -1    0    0    0  501 -0.00000000000E+00 -0.00000000000E+00 -0.47014690952E+03  0.47014690952E+03  0.00000000000E+00 0.  1.
         25    2    1    2    0    0 -0.99426207725E+02 -0.58447246717E+02 -0.15588260900E+03  0.23075064768E+03  0.12507926360E+03 0.  0.
          5    1    3    3  502    0 -0.38633566073E+02  0.36421281699E+02 -0.27691230800E+02  0.60027817313E+02  0.41800000000E+01 0.  1.
         -5    1    3    3    0  502 -0.60792641652E+02 -0.94868528416E+02 -0.12819137820E+03  0.17072283036E+03  0.41800000000E+01 0.  1.
        -11    1    1    2    0    0  0.32750778310E+02 -0.69118985768E+01 -0.15513982147E+03  0.15870964692E+03  0.00000000000E+00 0.  1.
         11    1    1    2    0    0  0.66675429415E+02  0.65359145294E+02 -0.10172992672E+03  0.13808116726E+03  0.00000000000E+00 0. -1.
</event>
<event>
 7    1  0.2732144E-009  0.1002812E+03  0.7561462E-02  0.1279706E+00
          2   -1    0    0  501    0  0.00000000000E+00  0.00000000000E+00  0.40804032164E+02  0.40804032164E+02  0.00000000000E+00 0. -1.
         -2   -1    0    0    0  501 -0.00000000000E+00 -0.00000000000E+00 -0.34907094439E+03  0.34907094439E+03  0.00000000000E+00 0.  1.
         25    2    1    2    0    0 -0.15655758620E+02  0.20159070862E+02 -0.23996976478E+03  0.27181658894E+03  0.12508908465E+03 0.  0.
          5    1    3    3  502    0  0.32231408663E+02  0.40630206544E+02 -0.19822861465E+03  0.20494324447E+03  0.41800000000E+01 0. -1.
         -5    1    3    3    0  502 -0.47887167283E+02 -0.20471135682E+02 -0.41741150133E+02  0.66873344472E+02  0.41800000000E+01 0. -1.
        -11    1    1    2    0    0 -0.39247752576E+02 -0.83136439897E+01 -0.29395175672E+02  0.49735089338E+02  0.00000000000E+00 0. -1.
         11    1    1    2    0    0  0.54903511196E+02 -0.11845426873E+02 -0.38901971775E+02  0.68323298277E+02  0.00000000000E+00 0.  1.
</event>
<event>
 7    1  0.2732144E-009  0.1283699E+03  0.7561462E-02  0.1229895E+00
         -1   -1    0    0    0  501 -0.00000000000E+00  0.00000000000E+00  0.31346062103E+03  0.31346062103E+03  0.00000000000E+00 0.  1.
          1   -1    0    0  501    0  0.00000000000E+00 -0.00000000000E+00 -0.55108129720E+02  0.55108129720E+02  0.00000000000E+00 0. -1.
         25    2    1    2    0    0 -0.48205733538E+02  0.50696765538E+02  0.16790512060E+03  0.22075613356E+03  0.12508871332E+03 0.  0.
          5    1    3    3  502    0 -0.74432669881E+02  0.74865454501E+02  0.13936967779E+03  0.17488978847E+03  0.41800000000E+01 0.  1.
         -5    1    3    3    0  502  0.26226936343E+02 -0.24168688963E+02  0.28535442813E+02  0.45866345099E+02  0.41800000000E+01 0.  1.
        -11    1    1    2    0    0  0.62052947677E+02  0.58904631256E+00  0.35992567589E+02  0.71738275785E+02  0.00000000000E+00 0. -1.
         11    1    1    2    0    0 -0.13847214139E+02 -0.51285811850E+02  0.54454803122E+02  0.76074341401E+02  0.00000000000E+00 0.  1.
</event>
<event>
 7    1  0.2732144E-009  0.9750002E+02  0.7561462E-02  0.1285643E+00
         -1   -1    0    0    0  501 -0.00000000000E+00  0.00000000000E+00  0.10131982720E+02  0.10131982720E+02  0.00000000000E+00 0.  1.
          1   -1    0    0  501    0  0.00000000000E+00 -0.00000000000E+00 -0.12897946565E+04  0.12897946565E+04  0.00000000000E+00 0. -1.
         25    2    1    2    0    0 -0.23675946714E+02 -0.26646984978E+02 -0.76212803330E+03  0.77314754907E+03  0.12508949289E+03 0.  0.
          5    1    3    3  502    0  0.14351078480E+02  0.26997253269E+02 -0.55356589357E+03  0.55442535662E+03  0.41800000000E+01 0.  1.
         -5    1    3    3    0  502 -0.38027025194E+02 -0.53644238247E+02 -0.20856213973E+03  0.21872219245E+03  0.41800000000E+01 0.  1.
        -11    1    1    2    0    0  0.78919431006E+01  0.60441302798E+02 -0.31932392451E+03  0.32508953015E+03  0.00000000000E+00 0.  1.
         11    1    1    2    0    0  0.15784003614E+02 -0.33794317820E+02 -0.19821071600E+03  0.20168956003E+03  0.00000000000E+00 0. -1.
</event>
<event>
 7    1  0.2732144E-009  0.1282554E+03  0.7561462E-02  0.1230068E+00
         -2   -1    0    0    0  501 -0.00000000000E+00  0.00000000000E+00  0.33907304012E+02  0.33907304012E+02  0.00000000000E+00 0.  1.
          2   -1    0    0  501    0  0.00000000000E+00 -0.00000000000E+00 -0.52014725006E+03  0.52014725006E+03  0.00000000000E+00 0. -1.
         25    2    1    2    0    0 -0.63256754747E+02 -0.36080671294E+02 -0.21157418488E+03  0.25634782418E+03  0.12508932564E+03 0.  0.
          5    1    3    3  502    0 -0.26913281984E+02  0.45482053684E+02 -0.10183980999E+03  0.11481185154E+03  0.41800000000E+01 0. -1.
         -5    1    3    3    0  502 -0.36343472763E+02 -0.81562724977E+02 -0.10973437489E+03  0.14153597264E+03  0.41800000000E+01 0. -1.
        -11    1    1    2    0    0 -0.54438978384E+01 -0.22913866774E+02 -0.71352683944E+02  0.75139116446E+02  0.00000000000E+00 0.  1.
         11    1    1    2    0    0  0.68700652585E+02  0.58994538067E+02 -0.20331307722E+03  0.22256761345E+03  0.00000000000E+00 0. -1.
</event>
<event>
 7    1  0.2732144E-009  0.1035516E+03  0.7561462E-02  0.1273000E+00
          1   -1    0    0  501    0  0.00000000000E+00  0.00000000000E+00  0.18154482512E+02  0.18154482512E+02  0.00000000000E+00 0. -1.
         -1   -1    0    0    0  501 -0.00000000000E+00 -0.00000000000E+00 -0.67159715509E+03  0.67159715509E+03  0.00000000000E+00 0.  1.
         25    2    1    2    0    0 -0.66457719014E+01  0.20059692172E+02 -0.35317243744E+03  0.37526719426E+03  0.12509252171E+03 0.  0.
          5    1    3    3  502    0 -0.41056387886E+02  0.57763414327E+02 -0.25285826656E+03  0.26263475473E+03  0.41800000000E+01 0. -1.
         -5    1    3    3    0  502  0.34410615985E+02 -0.37703722155E+02 -0.10031417087E+03  0.11263243953E+03  0.41800000000E+01 0. -1.
        -11    1    1    2    0    0 -0.37864386257E+02 -0.11477904354E+02 -0.20741944311E+03  0.21115936971E+03  0.00000000000E+00 0.  1.
         11    1    1    2    0    0  0.44510158158E+02 -0.85817878183E+01 -0.92850792030E+02  0.10332507364E+03  0.00000000000E+00 0. -1.
</event>
<event>
 7    1  0.2732144E-009  0.9703793E+02  0.7561462E-02  0.1286651E+00
         -1   -1    0    0    0  501 -0.00000000000E+00  0.00000000000E+00  0.14158778996E+03  0.14158778996E+03  0.00000000000E+00 0.  1.
          1   -1    0    0  501    0  0.00000000000E+00 -0.00000000000E+00 -0.10767977524E+03  0.10767977524E+03  0.00000000000E+00 0. -1.
         25    2    1    2    0    0 -0.57680774835E+02  0.70963511915E+01  0.16983055708E+02  0.13899068153E+03  0.12511017299E+03 0.  0.
          5    1    3    3  502    0 -0.32291591661E+02 -0.32534923242E+02 -0.42755708029E+02  0.62823491557E+02  0.41800000000E+01 0.  1.
         -5    1    3    3    0  502 -0.25389183173E+02  0.39631274434E+02  0.59738763737E+02  0.76167189972E+02  0.41800000000E+01 0.  1.
        -11    1    1    2    0    0  0.36940918610E+01 -0.38273918405E+02 -0.13698531006E+02  0.40818977161E+02  0.00000000000E+00 0. -1.
         11    1    1    2    0    0  0.53986682974E+02  0.31177567214E+02  0.30623490015E+02  0.69457906509E+02  0.00000000000E+00 0.  1.
</event>
<event>
 7    1  0.2732144E-009  0.2140158E+03  0.7561462E-02  0.1138425E+00
          1   -1    0    0  501    0  0.00000000000E+00  0.00000000000E+00  0.66754401584E+03  0.66754401584E+03  0.00000000000E+00 0.  1.
         -1   -1    0    0    0  501 -0.00000000000E+00 -0.00000000000E+00 -0.81104275305E+02  0.81104275305E+02  0.00000000000E+00 0. -1.
         25    2    1    2    0    0 -0.10060511521E+03  0.15591365904E+03  0.16035665045E+03  0.27530465096E+03  0.12509171521E+03 0.  0.
          5    1    3    3  502    0  0.28163697956E+02  0.47521250217E+02  0.41127309073E+02  0.68995587224E+02  0.41800000000E+01 0.  1.
         -5    1    3    3    0  502 -0.12876881316E+03  0.10839240883E+03  0.11922934138E+03  0.20630906374E+03  0.41800000000E+01 0.  1.
        -11    1    1    2    0    0 -0.14553441555E+02 -0.31709517040E+02  0.99707717605E+02  0.10563581344E+03  0.00000000000E+00 0.  1.
         11    1    1    2    0    0  0.11515855676E+03 -0.12420414200E+03  0.32637537248E+03  0.36770782674E+03  0.00000000000E+00 0. -1.
</event>
<event>
 7    1  0.2732144E-009  0.1067423E+03  0.7561462E-02  0.1266724E+00
         -2   -1    0    0    0  501 -0.00000000000E+00  0.00000000000E+00  0.99361812291E+02  0.99361812291E+02  0.00000000000E+00 0.  1.
          2   -1    0    0  501    0  0.00000000000E+00 -0.00000000000E+00 -0.12545753768E+03  0.12545753768E+03  0.00000000000E+00 0. -1.
         25    2    1    2    0    0  0.19875138199E+02 -0.18485586810E+02 -0.14364959484E+02  0.12880252041E+03  0.12508796571E+03 0.  0.
          5    1    3    3  502    0 -0.47756528438E+02 -0.25058601418E+02 -0.25528227989E+02  0.59814566267E+02  0.41800000000E+01 0.  1.
         -5    1    3    3    0  502  0.67631666637E+02  0.65730146079E+01  0.11163268505E+02  0.68987954143E+02  0.41800000000E+01 0.  1.
        -11    1    1    2    0    0 -0.99871809930E+01  0.53759303073E+02 -0.20418879045E+02  0.58367260279E+02  0.00000000000E+00 0. -1.
         11    1    1    2    0    0 -0.98879572062E+01 -0.35273716263E+02  0.86881131443E+01  0.37649569276E+02  0.00000000000E+00 0.  1.
</event>
<event>
 7    1  0.2732144E-009  0.6156958E+02  0.7561462E-02  0.1391361E+00
         -2   -1    0    0    0  501 -0.00000000000E+00  0.00000000000E+00  0.29782622774E+02  0.29782622774E+02  0.00000000000E+00 0.  1.
          2   -1    0    0  501    0  0.00000000000E+00 -0.00000000000E+00 -0.66189793112E+03  0.66189793112E+03  0.00000000000E+00 0. -1.
         25    2    1    2    0    0  0.98005255600E+01 -0.39993638102E+02 -0.54075865083E+03  0.55656340168E+03  0.12508940901E+03 0.  0.
          5    1    3    3  502    0  0.35134646833E+02 -0.41862720724E+02 -0.52160060455E+03  0.52447268171E+03  0.41800000000E+01 0.  1.
         -5    1    3    3    0  502 -0.25334121273E+02  0.18690826216E+01 -0.19158046281E+02  0.32090719964E+02  0.41800000000E+01 0.  1.
        -11    1    1    2    0    0  0.19667306131E+01  0.12821055276E+02  0.17794786589E+02  0.22020488583E+02  0.00000000000E+00 0.  1.
         11    1    1    2    0    0 -0.11767256173E+02  0.27172582827E+02 -0.10915144410E+03  0.11309666363E+03  0.00000000000E+00 0. -1.
</event>
<event>
 7    1  0.2732144E-009  0.2933522E+03  0.7561462E-02  0.1088612E+00
         -2   -1    0    0    0  501 -0.00000000000E+00  0.00000000000E+00  0.31846164638E+03  0.31846164638E+03  0.00000000000E+00 0.  1.
          2   -1    0    0  501    0  0.00000000000E+00 -0.00000000000E+00 -0.28187090945E+03  0.28187090945E+03  0.00000000000E+00 0. -1.
         25    2    1    2    0    0 -0.11667326298E+03 -0.25182727087E+03 -0.11565950881E+02  0.30464574120E+03  0.12508249983E+03 0.  0.
          5    1    3    3  502    0 -0.96177977270E+02 -0.25681275109E+03  0.96566478824E+01  0.27443344490E+03  0.41800000000E+01 0. -1.
         -5    1    3    3    0  502 -0.20495285706E+02  0.49854802176E+01 -0.21222598764E+02  0.30212296296E+02  0.41800000000E+01 0. -1.
        -11    1    1    2    0    0  0.97234225882E+02  0.25342008111E+03  0.50335204553E+02  0.27606134284E+03  0.00000000000E+00 0.  1.
         11    1    1    2    0    0  0.19439037094E+02 -0.15928102424E+01 -0.21785167426E+01  0.19625471786E+02  0.00000000000E+00 0. -1.
</event>
<event>
 7    1  0.2732144E-009  0.1339768E+03  0.7561462E-02  0.1221671E+00
         -2   -1    0    0    0  501 -0.00000000000E+00  0.00000000000E+00  0.30351513814E+02  0.30351513814E+02  0.00000000000E+00 0.  1.
          2   -1    0    0  501    0  0.00000000000E+00 -0.00000000000E+00 -0.92184833667E+03  0.92184833667E+03  0.00000000000E+00 0. -1.
         25    2    1    2    0    0 -0.12088109118E+03  0.26809863052E+02 -0.39875804754E+03  0.43587452249E+03  0.12509041496E+03 0.  0.
          5    1    3    3  502    0 -0.36222214791E+02  0.42269968560E+02 -0.44789893645E+02  0.71570986154E+02  0.41800000000E+01 0.  1.
         -5    1    3    3    0  502 -0.84658876390E+02 -0.15460105508E+02 -0.35396815389E+03  0.36430353633E+03  0.41800000000E+01 0.  1.
        -11    1    1    2    0    0  0.92042062600E+02 -0.30343729814E+02 -0.46870154220E+03  0.47861635877E+03  0.00000000000E+00 0. -1.
         11    1    1    2    0    0  0.28839028581E+02  0.35338667620E+01 -0.24037233120E+02  0.37708969224E+02  0.00000000000E+00 0.  1.
</event>
<event>
 7    1  0.2732144E-009  0.8799927E+02  0.7561462E-02  0.1307770E+00
         -2   -1    0    0    0  501 -0.00000000000E+00  0.00000000000E+00  0.21308468449E+02  0.21308468449E+02  0.00000000000E+00 0. -1.
          2   -1    0    0  501    0  0.00000000000E+00 -0.00000000000E+00 -0.55771671846E+03  0.55771671846E+03  0.00000000000E+00 0.  1.
         25    2    1    2    0    0  0.24145736290E+01  0.11003092638E+02 -0.27833523189E+03  0.30535927289E+03  0.12508751342E+03 0.  0.
          5    1    3    3  502    0 -0.67178024513E+01 -0.37452960634E+02 -0.23926811587E+03  0.24231086811E+03  0.41800000000E+01 0.  1.
         -5    1    3    3    0  502  0.91323760803E+01  0.48456053272E+02 -0.39067116021E+02  0.63048404783E+02  0.41800000000E+01 0.  1.
        -11    1    1    2    0    0  0.40535279416E+02  0.79158433741E+01 -0.87556442466E+02  0.96808574367E+02  0.00000000000E+00 0. -1.
         11    1    1    2    0    0 -0.42949853045E+02 -0.18918936012E+02 -0.17051657566E+03  0.17685733966E+03  0.00000000000E+00 0.  1.
</event>
<event>
 7    1  0.3478973E-009  0.1387866E+03  0.7561462E-02  0.1214971E+00
          2   -1    0    0  501    0  0.00000000000E+00  0.00000000000E+00  0.15333475204E+03  0.15333475204E+03  0.00000000000E+00 0. -1.
         -2   -1    0    0    0  501 -0.00000000000E+00 -0.00000000000E+00 -0.16789497557E+03  0.16789497557E+03  0.00000000000E+00 0.  1.
         25    2    1    2    0    0 -0.83818955717E+02  0.73496158864E+02  0.30158365044E+02  0.17024565861E+03  0.12508698809E+03 0.  0.
          5    1    3    3  502    0 -0.39889082970E+02  0.10427792607E+03  0.32608078824E+02  0.11638635663E+03  0.41800000000E+01 0. -1.
         -5    1    3    3    0  502 -0.43929872747E+02 -0.30781767208E+02 -0.24497137797E+01  0.53859301979E+02  0.41800000000E+01 0. -1.
        -11    1    1    2    0    0  0.31676257528E+02 -0.35167610392E+02  0.26914752363E+02  0.54447681369E+02  0.00000000000E+00 0. -1.
         11    1    1    2    0    0  0.52142698189E+02 -0.38328548472E+02 -0.71633340936E+02  0.96536387627E+02  0.00000000000E+00 0.  1.
</event>
<event>
 7    1  0.2732144E-009  0.1144859E+03  0.7561462E-02  0.1252481E+00
          3   -1    0    0  501    0  0.00000000000E+00  0.00000000000E+00  0.54422094263E+02  0.54422094263E+02  0.00000000000E+00 0. -1.
         -3   -1    0    0    0  501 -0.00000000000E+00 -0.00000000000E+00 -0.27338325119E+03  0.27338325119E+03  0.00000000000E+00 0.  1.
         25    2    1    2    0    0 -0.53279400525E+02  0.16070074170E+02 -0.14538907229E+03  0.19970581966E+03  0.12508992869E+03 0.  0.
          5    1    3    3  502    0  0.34667791411E+02  0.22939633469E+01 -0.85363841204E+02  0.92258201880E+02  0.41800000000E+01 0.  1.
         -5    1    3    3    0  502 -0.87947191936E+02  0.13776110823E+02 -0.60025231087E+02  0.10744761778E+03  0.41800000000E+01 0.  1.
        -11    1    1    2    0    0  0.43457314045E+02 -0.51909574584E+02 -0.48090354780E+02  0.83041100067E+02  0.00000000000E+00 0.  1.
         11    1    1    2    0    0  0.98220864802E+01  0.35839500413E+02 -0.25481729857E+02  0.45058425730E+02  0.00000000000E+00 0. -1.
</event>
<event>
 6    1  0.2732144E-009  0.1187041E+03  0.7561462E-02  0.1245250E+00
         -2   -1    0    0    0  501 -0.00000000000E+00  0.00000000000E+00  0.11225877472E+03  0.11225877472E+03  0.00000000000E+00 0.  1.
          2   -1    0    0  501    0  0.00000000000E+00 -0.00000000000E+00 -0.18326512609E+03  0.18326512609E+03  0.00000000000E+00 0. -1.
          5    1    1    2  502    0 -0.72950115594E+02  0.39793268263E+01 -0.59170399039E+02  0.94107188512E+02  0.41800000000E+01 0. -1.
         -5    1    1    2    0  502  0.23444836853E+02  0.70344189130E+02 -0.12050069020E+02  0.75237237342E+02  0.41800000000E+01 0. -1.
        -11    1    1    2    0    0  0.85890492758E+01 -0.21466778872E+02  0.41577150349E+02  0.47573667020E+02  0.00000000000E+00 0.  1.
         11    1    1    2    0    0  0.40916229465E+02 -0.52856737085E+02 -0.41363033660E+02  0.78605807943E+02  0.00000000000E+00 0. -1.
</event>
<event>
 7    1  0.2732144E-009  0.1113486E+03  0.7561462E-02  0.1258093E+00
          1   -1    0    0  501    0  0.00000000000E+00  0.00000000000E+00  0.47523042138E+02  0.47523042138E+02  0.00000000000E+00 0. -1.
         -1   -1    0    0    0  501 -0.00000000000E+00 -0.00000000000E+00 -0.32057818701E+03  0.32057818701E+03  0.00000000000E+00 0.  1.
         25    2    1    2    0    0  0.48391305024E+02 -0.11362298275E+02 -0.20409112337E+03  0.24448288564E+03  0.12509146457E+03 0.  0.
          5    1    3    3  502    0 -0.19669106459E+02 -0.51614675015E+02 -0.86528208830E+02  0.10274021486E+03  0.41800000000E+01 0.  1.
         -5    1    3    3    0  502  0.68060411482E+02  0.40252376740E+02 -0.11756291454E+03  0.14174267078E+03  0.41800000000E+01 0.  1.
        -11    1    1    2    0    0  0.31593609607E+01 -0.24896220253E+02 -0.52941679103E+02  0.58588605811E+02  0.00000000000E+00 0.  1.
         11    1    1    2    0    0 -0.51550665984E+02  0.36258518528E+02 -0.16022342395E+02  0.65029737698E+02  0.00000000000E+00 0. -1.
</event>
<event>
 7    1  0.2732144E-009  0.9424146E+02  0.7561462E-02  0.1292894E+00
         -3   -1    0    0    0  501 -0.00000000000E+00  0.00000000000E+00  0.34674081988E+03  0.34674081988E+03  0.00000000000E+00 0.  1.
          3   -1    0    0  501    0  0.00000000000E+00 -0.00000000000E+00 -0.56392314162E+02  0.56392314162E+02  0.00000000000E+00 0. -1.
         25    2    1    2    0    0 -0.64251515751E+02 -0.43162376578E+02  0.96390830863E+02  0.17586768769E+03  0.12508798212E+03 0.  0.
          5    1    3    3  502    0 -0.11711416553E+01  0.61608345184E+01 -0.27377391197E+02  0.28395799047E+02  0.41800000000E+01 0. -1.
         -5    1    3    3    0  502 -0.63080374096E+02 -0.49323211096E+02  0.12376822206E+03  0.14747188865E+03  0.41800000000E+01 0. -1.
        -11    1    1    2    0    0  0.16426987163E+02  0.49837321391E+02  0.15959043759E+03  0.16799616746E+03  0.00000000000E+00 0.  1.
         11    1    1    2    0    0  0.47824528588E+02 -0.66749448135E+01  0.34367237266E+02  0.59269278891E+02  0.00000000000E+00 0. -1.
</event>
<event>
 7    1  0.2732144E-009  0.1125176E+03  0.7561462E-02  0.1255977E+00
          2   -1    0    0  501    0  0.00000000000E+00  0.00000000000E+00  0.18853858624E+03  0.18853858624E+03  0.00000000000E+00 0.  1.
         -2   -1    0    0    0  501 -0.00000000000E+00 -0.00000000000E+00 -0.84632912551E+02  0.84632912551E+02  0.00000000000E+00 0. -1.
         25    2    1    2    0    0 -0.52354668717E+02  0.26961230290E+02  0.85803060610E+02  0.16271773606E+03  0.12508787768E+03 0.  0.
          5    1    3    3  502    0 -0.37893788526E+02  0.65550737097E+02  0.10203365049E+02  0.76514177779E+02  0.41800000000E+01 0.  1.
         -5    1    3    3    0  502 -0.14460880191E+02 -0.38589506808E+02  0.75599695561E+02  0.86203558282E+02  0.41800000000E+01 0.  1.
        -11    1    1    2    0    0  0.25936048556E+02 -0.60067525350E+02  0.18859863836E+02  0.68091707867E+02  0.00000000000E+00 0. -1.
         11    1    1    2    0    0  0.26418620161E+02  0.33106295060E+02 -0.75725075433E+00  0.42362054867E+02  0.00000000000E+00 0.  1.
</event>
<event>
 7    1  0.2732144E-009  0.7861527E+02  0.7561462E-02  0.1333028E+00
         -2   -1    0    0    0  501 -0.00000000000E+00  0.00000000000E+00  0.15258941610E+02  0.15258941610E+02  0.00000000000E+00 0.  1.
          2   -1    0    0  501    0  0.00000000000E+00 -0.00000000000E+00 -0.12875521691E+04  0.12875521691E+04  0.00000000000E+00 0. -1.
         25    2    1    2    0    0  0.16311747970E+02 -0.30260599478E+02 -0.10723338162E+04  0.10801523837E+04  0.12509029368E+03 0.  0.
          5    1    3    3  502    0  0.33562982214E+02 -0.25619873039E+02 -0.10516435412E+04  0.10524991505E+04  0.41800000000E+01 0. -1.
         -5    1    3    3    0  502 -0.17251234244E+02 -0.46407264398E+01 -0.20690275012E+02  0.27653233173E+02  0.41800000000E+01 0. -1.
        -11    1    1    2    0    0  0.37614771852E+02  0.13876694618E+02 -0.64542203402E+02  0.75981114331E+02  0.00000000000E+00 0. -1.
         11    1    1    2    0    0 -0.53926519823E+02  0.16383904861E+02 -0.13541720789E+03  0.14667761271E+03  0.00000000000E+00 0.  1.
</event>
<event>
 7    1  0.2732144E-009  0.1821002E+03  0.7561462E-02  0.1165786E+00
          2   -1    0    0  501    0  0.00000000000E+00  0.00000000000E+00  0.38741105824E+03  0.38741105824E+03  0.00000000000E+00 0. -1.
         -2   -1    0    0    0  501 -0.00000000000E+00 -0.00000000000E+00 -0.12681555000E+03  0.12681555000E+03  0.00000000000E+00 0.  1.
         25    2    1    2    0    0  0.60144029457E+02 -0.15825173285E+03  0.29108346226E+02  0.21249139351E+03  0.12507750104E+03 0.  0.
          5    1    3    3  502    0  0.84559407001E+02 -0.11282974654E+03  0.58815536753E+02  0.15283188405E+03  0.41800000000E+01 0. -1.
         -5    1    3    3    0  502 -0.24415377543E+02 -0.45421986308E+02 -0.29707190527E+02  0.59659509466E+02  0.41800000000E+01 0. -1.
        -11    1    1    2    0    0 -0.21851573079E+02  0.27311260613E+02  0.23446072375E+01  0.35055575667E+02  0.00000000000E+00 0.  1.
         11    1    1    2    0    0 -0.38292456379E+02  0.13094047224E+03  0.22914255478E+03  0.26667963907E+03  0.00000000000E+00 0. -1.
</event>
<event>
 7    1  0.2732144E-009  0.1650730E+03  0.7561462E-02  0.1183086E+00
          1   -1    0    0  501    0  0.00000000000E+00  0.00000000000E+00  0.19365733010E+04  0.19365733010E+04  0.00000000000E+00 0. -1.
         -1   -1    0    0    0  501 -0.00000000000E+00 -0.00000000000E+00 -0.21395605233E+02  0.21395605233E+02  0.00000000000E+00 0.  1.
         25    2    1    2    0    0  0.89150251802E+02 -0.11933454296E+03  0.13972370977E+04  0.14107119038E+04  0.12509223661E+03 0.  0.
          5    1    3    3  502    0  0.72646541961E+02 -0.13738899774E+03  0.93733955149E+03  0.95014533833E+03  0.41800000000E+01 0. -1.
         -5    1    3    3    0  502  0.16503709841E+02  0.18054454783E+02  0.45989754623E+03  0.46056656545E+03  0.41800000000E+01 0. -1.
        -11    1    1    2    0    0 -0.60118681360E+02  0.67035774131E+02  0.43940349491E+03  0.44853481716E+03  0.00000000000E+00 0. -1.
         11    1    1    2    0    0 -0.29031570442E+02  0.52298768830E+02  0.78537103166E+02  0.98722185334E+02  0.00000000000E+00 0.  1.
</event>
<event>
 7    1  0.2732144E-009  0.1019008E+03  0.7561462E-02  0.1276349E+00
          1   -1    0    0  501    0  0.00000000000E+00  0.00000000000E+00  0.67817473128E+03  0.67817473128E+03  0.00000000000E+00 0. -1.
         -1   -1    0    0    0  501 -0.00000000000E+00 -0.00000000000E+00 -0.33099386989E+02  0.33099386989E+02  0.00000000000E+00 0.  1.
         25    2    1    2    0    0 -0.62960522574E+02 -0.45422648842E+02  0.50590850172E+03  0.52689507036E+03  0.12509100139E+03 0.  0.
          5    1    3    3  502    0 -0.18782597258E+01 -0.26726067374E+02  0.41401363292E+03  0.41490067628E+03  0.41800000000E+01 0. -1.
         -5    1    3    3    0  502 -0.61082262848E+02 -0.18696581468E+02  0.91894868798E+02  0.11199439408E+03  0.41800000000E+01 0. -1.
        -11    1    1    2    0    0  0.25552859921E+01  0.51859190037E+02  0.31423524143E+02  0.60690550725E+02  0.00000000000E+00 0.  1.
         11    1    1    2    0    0  0.60405236582E+02 -0.64365411947E+01  0.10774331843E+03  0.12368849718E+03  0.00000000000E+00 0. -1.
</event>
<event>
 7    1  0.2732144E-009  0.9740916E+02  0.7561462E-02  0.1285840E+00
         -1   -1    0    0    0  501 -0.00000000000E+00  0.00000000000E+00  0.28738157170E+02  0.28738157170E+02  0.00000000000E+00 0.  1.
          1   -1    0    0  501    0  0.00000000000E+00 -0.00000000000E+00 -0.40314041333E+03  0.40314041333E+03  0.00000000000E+00 0. -1.
         25    2    1    2    0    0 -0.10726149823E+02 -0.22860155286E+00 -0.21039470219E+03  0.24499949986E+03  0.12507486428E+03 0.  0.
          5    1    3    3  502    0 -0.53643428865E+02 -0.21932100019E+02 -0.47337164952E+02  0.74946074329E+02  0.41800000000E+01 0.  1.
         -5    1    3    3    0  502  0.42917279041E+02  0.21703498467E+02 -0.16305753723E+03  0.17005342553E+03  0.41800000000E+01 0.  1.
        -11    1    1    2    0    0  0.49513244734E+02 -0.23328410614E+01 -0.76889371374E+02  0.91482123837E+02  0.00000000000E+00 0.  1.
         11    1    1    2    0    0 -0.38787094911E+02  0.25614426142E+01 -0.87118182596E+02  0.95396946800E+02  0.00000000000E+00 0. -1.
</event>
<event>
 7    1  0.2732144E-009  0.1021913E+03  0.7561462E-02  0.1275754E+00
          1   -1    0    0  501    0  0.00000000000E+00  0.00000000000E+00  0.11011440352E+03  0.11011440352E+03  0.00000000000E+00 0. -1.
         -1   -1    0    0    0  501 -0.00000000000E+00 -0.00000000000E+00 -0.21658658681E+03  0.21658658681E+03  0.00000000000E+00 0.  1.
         25    2    1    2    0    0  0.67625204384E+02  0.79285646259E+01 -0.14750305990E+03  0.20504042483E+03  0.12509353592E+03 0.  0.
          5    1    3    3  502    0  0.69654780645E+02 -0.39434283175E+02 -0.13300830767E+03  0.15529176883E+03  0.41800000000E+01 0.  1.
         -5    1    3    3    0  502 -0.20295762610E+01  0.47362847801E+02 -0.14494752230E+02  0.49748656000E+02  0.41800000000E+01 0.  1.
        -11    1    1    2    0    0 -0.99775424057E+01 -0.15565898415E+02 -0.26645757213E+02  0.32432158784E+02  0.00000000000E+00 0.  1.
         11    1    1    2    0    0 -0.57647661979E+02  0.76373337893E+01  0.67676633826E+02  0.89228406716E+02  0.00000000000E+00 0. -1.
</event>
<event>
 7    1  0.2732144E-009  0.1353328E+03  0.7561462E-02  0.1219751E+00
         -1   -1    0    0    0  501 -0.00000000000E+00  0.00000000000E+00  0.19636700906E+03  0.19636700906E+03  0.00000000000E+00 0.  1.
          1   -1    0    0  501    0  0.00000000000E+00 -0.00000000000E+00 -0.13312079214E+03  0.13312079214E+03  0.00000000000E+00 0. -1.
         25    2    1    2    0    0 -0.78194875305E+02 -0.35973954095E+02  0.11529398069E+03  0.19065348613E+03  0.12508991123E+03 0.  0.
          5    1    3    3  502    0 -0.31092278574E+02 -0.75426551230E+02  0.33560344916E+02  0.88315703973E+02  0.41800000000E+01 0.  1.
         -5    1    3    3    0  502 -0.47102596731E+02  0.39452597135E+02  0.81733635772E+02  0.10233778215E+03  0.41800000000E+01 0.  1.
        -11    1    1    2    0    0 -0.76808417700E+01  0.40667767724E+02 -0.77995626285E+01  0.42115268480E+02  0.00000000000E+00 0.  1.
         11    1    1    2    0    0  0.85875717075E+02 -0.46938136290E+01 -0.44248201147E+02  0.96719046595E+02  0.00000000000E+00 0. -1.
</event>
<event>
 7    1  0.2732144E-009  0.1029468E+03  0.7561462E-02  0.1274219E+00
         -2   -1    0    0    0  501 -0.00000000000E+00  0.00000000000E+00  0.10771030685E+03  0.10771030685E+03  0.00000000000E+00 0.  1.
          2   -1    0    0  501    0  0.00000000000E+00 -0.00000000000E+00 -0.11650591976E+03  0.11650591976E+03  0.00000000000E+00 0. -1.
         25    2    1    2    0    0 -0.53153131367E+01 -0.14360129132E+02  0.22186802939E+02  0.12796433770E+03  0.12509257226E+03 0.  0.
          5    1    3    3  502    0  0.32243331762E+02  0.39540621379E+02 -0.13694817762E+02  0.52991637224E+02  0.41800000000E+01 0. -1.
         -5    1    3    3    0  502 -0.37558644899E+02 -0.53900750511E+02  0.35881620701E+02  0.74972700474E+02  0.41800000000E+01 0. -1.
        -11    1    1    2    0    0 -0.41085125798E+02  0.36060444563E+01 -0.38170223453E+01  0.41419328557E+02  0.00000000000E+00 0.  1.
         11    1    1    2    0    0  0.46400438935E+02  0.10754084676E+02 -0.27165393506E+02  0.54832560353E+02  0.00000000000E+00 0. -1.
</event>
<event>
 7    1  0.3531793E-009  0.7121185E+02  0.7561462E-02  0.1356020E+00
         -2   -1    0    0    0  501 -0.00000000000E+00  0.00000000000E+00  0.71406650323E+02  0.71406650323E+02  0.00000000000E+00 0.  1.
          2   -1    0    0  501    0  0.00000000000E+00 -0.00000000000E+00 -0.17996567029E+03  0.17996567029E+03  0.00000000000E+00 0. -1.
         25    2    1    2    0    0  0.82446268737E+01 -0.28886341566E+02 -0.43374487674E+02  0.13576266290E+03  0.12509100630E+03 0.  0.
          5    1    3    3  502    0 -0.19779288947E+02 -0.14447379265E+02  0.39685729228E+02  0.46822820752E+02  0.41800000000E+01 0. -1.
         -5    1    3    3    0  502  0.28023915821E+02 -0.14438962302E+02 -0.83060216902E+02  0.88939842152E+02  0.41800000000E+01 0. -1.
        -11    1    1    2    0    0  0.17769155383E+02 -0.22206597259E+02  0.47014820276E+00  0.28444628389E+02  0.00000000000E+00 0.  1.
         11    1    1    2    0    0 -0.26013782256E+02  0.51092938826E+02 -0.65654680493E+02  0.87165029316E+02  0.00000000000E+00 0. -1.
</event>
<event>
 7    1  0.2732144E-009  0.1169921E+03  0.7561462E-02  0.1248143E+00
         -2   -1    0    0    0  501 -0.00000000000E+00  0.00000000000E+00  0.83624367385E+02  0.83624367385E+02  0.00000000000E+00 0.  1.
          2   -1    0    0  501    0  0.00000000000E+00 -0.00000000000E+00 -0.21032381699E+03  0.21032381699E+03  0.00000000000E+00 0. -1.
         25    2    1    2    0    0 -0.39050794309E+02  0.21693572367E+02 -0.13749040511E+03  0.19117138098E+03  0.12508920734E+03 0.  0.
          5    1    3    3  502    0 -0.45633212035E+01 -0.51422650604E+02 -0.56965545178E+02  0.76991289332E+02  0.41800000000E+01 0.  1.
         -5    1    3    3    0  502 -0.34487473106E+02  0.73116222971E+02 -0.80524859931E+02  0.11418009165E+03  0.41800000000E+01 0.  1.
        -11    1    1    2    0    0  0.25870821288E+02 -0.57518310585E+02  0.13539792926E+02  0.64505669821E+02  0.00000000000E+00 0. -1.
         11    1    1    2    0    0  0.13179973021E+02  0.35824738218E+02 -0.27488374180E+01  0.38271133565E+02  0.00000000000E+00 0.  1.
</event>
<event>
 7    1  0.2732144E-009  0.1067111E+03  0.7561462E-02  0.1266785E+00
          1   -1    0    0  501    0  0.00000000000E+00  0.00000000000E+00  0.35580093312E+02  0.35580093312E+02  0.00000000000E+00 0. -1.
         -1   -1    0    0    0  501 -0.00000000000E+00 -0.00000000000E+00 -0.50848388278E+03  0.50848388278E+03  0.00000000000E+00 0.  1.
         25    2    1    2    0    0  0.32800801195E+02  0.69184733459E+02 -0.19877723045E+03  0.24703081384E+03  0.12509762482E+03 0.  0.
          5    1    3    3  502    0  0.50639412546E+02  0.62096395178E+02 -0.44979274377E+02  0.91983258915E+02  0.41800000000E+01 0.  1.
         -5    1    3    3    0  502 -0.17838611351E+02  0.70883382815E+01 -0.15379795607E+03  0.15504755492E+03  0.41800000000E+01 0.  1.
        -11    1    1    2    0    0 -0.25761613314E+02 -0.88926038203E+02 -0.20824004627E+03  0.22789343532E+03  0.00000000000E+00 0. -1.
         11    1    1    2    0    0 -0.70391878808E+01  0.19741304744E+02 -0.65886512753E+02  0.69139726943E+02  0.00000000000E+00 0.  1.
</event>
<event>
 7    1  0.3386825E-009  0.1203781E+03  0.7561462E-02  0.1242475E+00
         -1   -1    0    0    0  501 -0.00000000000E+00  0.00000000000E+00  0.19784990445E+02  0.19784990445E+02  0.00000000000E+00 0.  1.
          1   -1    0    0  501    0  0.00000000000E+00 -0.00000000000E+00 -0.10299228770E+04  0.10299228770E+04  0.00000000000E+00 0. -1.
         25    2    1    2    0    0  0.82512949065E+02  0.41277139671E+02 -0.54891753712E+03  0.57049971663E+03  0.12508906864E+03 0.  0.
          5    1    3    3  502    0  0.56166913657E+02 -0.71849866480E+01 -0.47391130718E+03  0.47730047737E+03  0.41800000000E+01 0.  1.
         -5    1    3    3    0  502  0.26346035408E+02  0.48462126319E+02 -0.75006229939E+02  0.93199239261E+02  0.41800000000E+01 0.  1.
        -11    1    1    2    0    0 -0.73123587594E+02  0.12399292088E+02 -0.23041867391E+03  0.24206108071E+03  0.00000000000E+00 0. -1.
         11    1    1    2    0    0 -0.93893614716E+01 -0.53676431759E+02 -0.23080167550E+03  0.23714707008E+03  0.00000000000E+00 0.  1.
</event>
<event>
 7    1  0.2732144E-009  0.1274880E+03  0.7561462E-02  0.1231231E+00
         -2   -1    0    0    0  501 -0.00000000000E+00  0.00000000000E+00  0.32258596053E+02  0.32258596053E+02  0.00000000000E+00 0.  1.
          2   -1    0    0  501    0  0.00000000000E+00 -0.00000000000E+00 -0.56326966090E+03  0.56326966090E+03  0.00000000000E+00 0. -1.
         25    2    1    2    0    0  0.51974193050E+02  0.27023524885E+02 -0.20028677090E+03  0.24329865471E+03  0.12509139518E+03 0.  0.
          5    1    3    3  502    0  0.80393804006E+02 -0.16423154569E+02 -0.93379346042E+02  0.12437868948E+03  0.41800000000E+01 0.  1.
         -5    1    3    3    0  502 -0.28419610955E+02  0.43446679455E+02 -0.10690742486E+03  0.11891996524E+03  0.41800000000E+01 0.  1.
        -11    1    1    2    0    0  0.30630261174E+02 -0.22494547400E+02 -0.90331963838E+02  0.98000414556E+02  0.00000000000E+00 0.  1.
         11    1    1    2    0    0 -0.82604454224E+02 -0.45289774853E+01 -0.24039233011E+03  0.25422918769E+03  0.00000000000E+00 0. -1.
</event>
<event>
 7    1  0.2732144E-009  0.1198277E+03  0.7561462E-02  0.1243382E+00
         -2   -1    0    0    0  501 -0.00000000000E+00  0.00000000000E+00  0.41822720470E+03  0.41822720470E+03  0.00000000000E+00 0.  1.
          2   -1    0    0  501    0  0.00000000000E+00 -0.00000000000E+00 -0.67609195004E+02  0.67609195004E+02  0.00000000000E+00 0. -1.
         25    2    1    2    0    0 -0.36751941919E+02  0.50517056596E+02  0.24559955350E+02  0.14195937295E+03  0.12508634586E+03 0.  0.
          5    1    3    3  502    0 -0.78001804971E+02  0.39531313816E+02 -0.82822347539E+01  0.87937899471E+02  0.41800000000E+01 0.  1.
         -5    1    3    3    0  502  0.41249863052E+02  0.10985742779E+02  0.32842190104E+02  0.54021473481E+02  0.41800000000E+01 0.  1.
        -11    1    1    2    0    0  0.65722867408E+02 -0.45190122433E+02  0.24232179201E+03  0.25511074722E+03  0.00000000000E+00 0.  1.
         11    1    1    2    0    0 -0.28970925489E+02 -0.53269341626E+01  0.83736262337E+02  0.88766279529E+02  0.00000000000E+00 0. -1.
</event>
<event>
 7    1  0.2732144E-009  0.9119057E+02  0.7561462E-02  0.1299994E+00
         -3   -1    0    0    0  501 -0.00000000000E+00  0.00000000000E+00  0.25733902864E+03  0.25733902864E+03  0.00000000000E+00 0.  1.
          3   -1    0    0  501    0  0.00000000000E+00 -0.00000000000E+00 -0.50063954480E+02  0.50063954480E+02  0.00000000000E+00 0. -1.
         25    2    1    2    0    0 -0.49554962583E-01 -0.36356687746E+02  0.12499770094E+03  0.18053659628E+03  0.12508887303E+03 0.  0.
          5    1    3    3  502    0  0.45003455906E+02 -0.12612945929E+02  0.15705122516E+01  0.46950360566E+02  0.41800000000E+01 0. -1.
         -5    1    3    3    0  502 -0.45053010869E+02 -0.23743741817E+02  0.12342718869E+03  0.13358623571E+03  0.41800000000E+01 0. -1.
        -11    1    1    2    0    0 -0.22465297216E+02  0.52199683849E+02  0.81460088808E+02  0.99323927840E+02  0.00000000000E+00 0.  1.
         11    1    1    2    0    0  0.22514852178E+02 -0.15842996103E+02  0.81728441057E+00  0.27542459003E+02  0.00000000000E+00 0. -1.
</event>
<event>
 7    1  0.2732144E-009  0.1009939E+03  0.7561462E-02  0.1278220E+00
         -3   -1    0    0    0  501 -0.00000000000E+00  0.00000000000E+00  0.75456628377E+03  0.75456628377E+03  0.00000000000E+00 0.  1.
          3   -1    0    0  501    0  0.00000000000E+00 -0.00000000000E+00 -0.28943822867E+02  0.28943822867E+02  0.00000000000E+00 0. -1.
         25    2    1    2    0    0 -0.51315464209E+02  0.20085069662E+02  0.61486944680E+03  0.62988069691E+03  0.12509423987E+03 0.  0.
          5    1    3    3  502    0  0.41215367109E+02  0.14441148078E+02  0.20308067462E+03  0.20776545922E+03  0.41800000000E+01 0.  1.
         -5    1    3    3    0  502 -0.92530831318E+02  0.56439215840E+01  0.41178877218E+03  0.42211523769E+03  0.41800000000E+01 0.  1.
        -11    1    1    2    0    0  0.10138505920E+02 -0.21867729191E+02 -0.99552552828E+01  0.26078611735E+02  0.00000000000E+00 0. -1.
         11    1    1    2    0    0  0.41176958289E+02  0.17826595289E+01  0.12070826938E+03  0.12755079798E+03  0.00000000000E+00 0.  1.
</event>
<event>
 7    1  0.2732144E-009  0.9852080E+02  0.7561462E-02  0.1283438E+00
         -1   -1    0    0    0  501 -0.00000000000E+00  0.00000000000E+00  0.66985552290E+03  0.66985552290E+03  0.00000000000E+00 0.  1.
          1   -1    0    0  501    0  0.00000000000E+00 -0.00000000000E+00 -0.19415031992E+02  0.19415031992E+02  0.00000000000E+00 0. -1.
         25    2    1    2    0    0 -0.25473546808E+02 -0.23227061787E+02  0.35671285431E+03  0.37957777944E+03  0.12508729843E+03 0.  0.
          5    1    3    3  502    0 -0.64715316941E+02  0.23035442926E-01  0.10264891057E+03  0.12141805475E+03  0.41800000000E+01 0. -1.
         -5    1    3    3    0  502  0.39241770133E+02 -0.23250097230E+02  0.25406394374E+03  0.25815972469E+03  0.41800000000E+01 0. -1.
        -11    1    1    2    0    0  0.54095221359E+02  0.19604038055E+02  0.25493976561E+03  0.26135205255E+03  0.00000000000E+00 0.  1.
         11    1    1    2    0    0 -0.28621674552E+02  0.36230237320E+01  0.38787870986E+02  0.48340722902E+02  0.00000000000E+00 0. -1.
</event>
<event>
 7    1  0.2732144E-009  0.2020171E+03  0.7561462E-02  0.1148048E+00
          2   -1    0    0  501    0  0.00000000000E+00  0.00000000000E+00  0.62877884762E+03  0.62877884762E+03  0.00000000000E+00 0. -1.
         -2   -1    0    0    0  501 -0.00000000000E+00 -0.00000000000E+00 -0.72510309851E+02  0.72510309851E+02  0.00000000000E+00 0.  1.
         25    2    1    2    0    0  0.82126023911E+02  0.16657335394E+03  0.27752525188E+03  0.35659543331E+03  0.12509465049E+03 0.  0.
          5    1    3    3  502    0  0.82051582253E+02  0.54100427534E+02  0.19022909149E+03  0.21415858157E+03  0.41800000000E+01 0. -1.
         -5    1    3    3    0  502  0.74441658147E-01  0.11247292640E+03  0.87296160385E+02  0.14243685174E+03  0.41800000000E+01 0. -1.
        -11    1    1    2    0    0 -0.50680535864E+02 -0.14835116635E+03  0.26048514851E+03  0.30402154178E+03  0.00000000000E+00 0. -1.
         11    1    1    2    0    0 -0.31445488047E+02 -0.18222187588E+02  0.18258137379E+02  0.40672182380E+02  0.00000000000E+00 0.  1.
</event>
<event>
 7    1  0.2732144E-009  0.7399947E+02  0.7561462E-02  0.1346998E+00
          1   -1    0    0  501    0  0.00000000000E+00  0.00000000000E+00  0.40798999993E+02  0.40798999993E+02  0.00000000000E+00 0. -1.
         -1   -1    0    0    0  501 -0.00000000000E+00 -0.00000000000E+00 -0.31424521003E+03  0.31424521003E+03  0.00000000000E+00 0.  1.
         25    2    1    2    0    0  0.16289808887E+02 -0.21535795424E+02 -0.19767097486E+03  0.23548678324E+03  0.12510420626E+03 0.  0.
          5    1    3    3  502    0  0.13645676076E+02 -0.39184389759E+02 -0.20954085422E+03  0.21365032849E+03  0.41800000000E+01 0. -1.
         -5    1    3    3    0  502  0.26441328115E+01  0.17648594335E+02  0.11869879360E+02  0.21836454757E+02  0.41800000000E+01 0. -1.
        -11    1    1    2    0    0 -0.49280304133E+02  0.24139245369E+02 -0.28455533546E+02  0.61813986539E+02  0.00000000000E+00 0.  1.
         11    1    1    2    0    0  0.32990495246E+02 -0.26034499455E+01 -0.47319701628E+02  0.57743440237E+02  0.00000000000E+00 0. -1.
</event>
<event>
 7    1  0.2732144E-009  0.3637560E+03  0.7561462E-02  0.1057106E+00
         -3   -1    0    0    0  501 -0.00000000000E+00  0.00000000000E+00  0.24081857259E+04  0.24081857259E+04  0.00000000000E+00 0.  1.
          3   -1    0    0  501    0  0.00000000000E+00 -0.00000000000E+00 -0.61293577504E+02  0.61293577504E+02  0.00000000000E+00 0. -1.
         25    2    1    2    0    0 -0.31891114380E+02 -0.35137848735E+03  0.15259754597E+04  0.15712200380E+04  0.12508964579E+03 0.  0.
          5    1    3    3  502    0  0.17672002646E+02 -0.25332762473E+03  0.87850251319E+03  0.91447871665E+03  0.41800000000E+01 0. -1.
         -5    1    3    3    0  502 -0.49563117027E+02 -0.98050862612E+02  0.64747294652E+03  0.65674132130E+03  0.41800000000E+01 0. -1.
        -11    1    1    2    0    0  0.48392812319E+02  0.34027636945E+03  0.75819864183E+03  0.83246324385E+03  0.00000000000E+00 0. -1.
         11    1    1    2    0    0 -0.16501697938E+02  0.11102117891E+02  0.62718046854E+02  0.65796021595E+02  0.00000000000E+00 0.  1.
</event>
<event>
 7    1  0.2732144E-009  0.1194236E+03  0.7561462E-02  0.1244051E+00
          1   -1    0    0  501    0  0.00000000000E+00  0.00000000000E+00  0.37724077995E+03  0.37724077995E+03  0.00000000000E+00 0. -1.
         -1   -1    0    0    0  501 -0.00000000000E+00 -0.00000000000E+00 -0.65987157431E+02  0.65987157431E+02  0.00000000000E+00 0.  1.
         25    2    1    2    0    0  0.45030035385E+02 -0.55366132058E+02  0.42592907954E+02  0.15018401698E+03  0.12509184819E+03 0.  0.
          5    1    3    3  502    0  0.79010842941E+02 -0.26716145604E+02 -0.65799887738E+01  0.83768934519E+02  0.41800000000E+01 0.  1.
         -5    1    3    3    0  502 -0.33980807557E+02 -0.28649986455E+02  0.49172896728E+02  0.66415082464E+02  0.41800000000E+01 0.  1.
        -11    1    1    2    0    0 -0.31544599352E+01 -0.22265835589E+02  0.23629670973E+02  0.32620229954E+02  0.00000000000E+00 0.  1.
         11    1    1    2    0    0 -0.41875575449E+02  0.77631967648E+02  0.24503104359E+03  0.26042369044E+03  0.00000000000E+00 0. -1.
</event>
<event>
 7    1  0.2732144E-009  0.1166075E+03  0.7561462E-02  0.1248801E+00
         -2   -1    0    0    0  501 -0.00000000000E+00  0.00000000000E+00  0.53389427068E+02  0.53389427068E+02  0.00000000000E+00 0.  1.
          2   -1    0    0  501    0  0.00000000000E+00 -0.00000000000E+00 -0.47446661457E+03  0.47446661457E+03  0.00000000000E+00 0. -1.
         25    2    1    2    0    0 -0.10121117565E+03 -0.16041999361E+02 -0.30193323882E+03  0.34250929018E+03  0.12509150786E+03 0.  0.
          5    1    3    3  502    0 -0.87291288262E+02 -0.30962723201E+02 -0.30731488536E+03  0.32099590402E+03  0.41800000000E+01 0.  1.
         -5    1    3    3    0  502 -0.13919887389E+02  0.14920723840E+02  0.53816465380E+01  0.21513386166E+02  0.41800000000E+01 0.  1.
        -11    1    1    2    0    0 -0.33463083319E+01  0.14730342795E+02 -0.66657268124E+02  0.68347437202E+02  0.00000000000E+00 0. -1.
         11    1    1    2    0    0  0.10455748398E+03  0.13116565653E+01 -0.52486680561E+02  0.11699931425E+03  0.00000000000E+00 0.  1.
</event>
<event>
 7    1  0.2732144E-009  0.9300129E+02  0.7561462E-02  0.1295742E+00
          2   -1    0    0  501    0  0.00000000000E+00  0.00000000000E+00  0.86337337702E+02  0.86337337702E+02  0.00000000000E+00 0. -1.
         -2   -1    0    0    0  501 -0.00000000000E+00 -0.00000000000E+00 -0.14214865202E+03  0.14214865202E+03  0.00000000000E+00 0.  1.
         25    2    1    2    0    0 -0.69618105189E+00 -0.16657584136E+02 -0.38187086162E+02  0.13184618185E+03  0.12508877784E+03 0.  0.
          5    1    3    3  502    0 -0.48726855089E+02  0.28309082297E+02 -0.17846174059E+01  0.56536429023E+02  0.41800000000E+01 0. -1.
         -5    1    3    3    0  502  0.48030674037E+02 -0.44966666434E+02 -0.36402468756E+02  0.75309752822E+02  0.41800000000E+01 0. -1.
        -11    1    1    2    0    0 -0.15329119764E+02  0.35597080216E+02 -0.45203198475E+02  0.59543792162E+02  0.00000000000E+00 0.  1.
         11    1    1    2    0    0  0.16025300815E+02 -0.18939496080E+02  0.27578970319E+02  0.37096015714E+02  0.00000000000E+00 0. -1.
</event>
<event>
 7    1  0.2732144E-009  0.8083272E+02  0.7561462E-02  0.1326705E+00
         -2   -1    0    0    0  501 -0.00000000000E+00  0.00000000000E+00  0.20753718805E+03  0.20753718805E+03  0.00000000000E+00 0.  1.
          2   -1    0    0  501    0  0.00000000000E+00 -0.00000000000E+00 -0.58392993839E+02  0.58392993839E+02  0.00000000000E+00 0. -1.
         25    2    1    2    0    0 -0.13215642991E+02  0.17375449800E+01  0.66032127161E+02  0.14207353628E+03  0.12508787156E+03 0.  0.
          5    1    3    3  502    0  0.21456029072E+02 -0.28807180180E+02 -0.22167312916E+02  0.42415527527E+02  0.41800000000E+01 0.  1.
         -5    1    3    3    0  502 -0.34671672063E+02  0.30544725160E+02  0.88199440077E+02  0.99658008753E+02  0.41800000000E+01 0.  1.
        -11    1    1    2    0    0  0.13171719483E+02  0.37563818010E+02  0.10303660499E+02  0.41118122979E+02  0.00000000000E+00 0. -1.
         11    1    1    2    0    0  0.43923507926E-01 -0.39301362990E+02  0.72808406549E+02  0.82738522627E+02  0.00000000000E+00 0.  1.
</event>
<event>
 7    1  0.2732144E-009  0.1622917E+03  0.7561462E-02  0.1186133E+00
         -2   -1    0    0    0  501 -0.00000000000E+00  0.00000000000E+00  0.16586930730E+03  0.16586930730E+03  0.00000000000E+00 0.  1.
          2   -1    0    0  501    0  0.00000000000E+00 -0.00000000000E+00 -0.17079011659E+03  0.17079011659E+03  0.00000000000E+00 0. -1.
         25    2    1    2    0    0  0.12634304255E+03 -0.18985491690E+02 -0.12460972499E+02  0.17923727422E+03  0.12509081236E+03 0.  0.
          5    1    3    3  502    0  0.86035582154E+02 -0.63719212004E+02  0.22504738734E+02  0.10948148264E+03  0.41800000000E+01 0. -1.
         -5    1    3    3    0  502  0.40307460399E+02  0.44733720315E+02 -0.34965711233E+02  0.69755791581E+02  0.41800000000E+01 0. -1.
        -11    1    1    2    0    0 -0.41065825585E+02 -0.36829075702E+02 -0.75085476152E+00  0.55166535426E+02  0.00000000000E+00 0. -1.
         11    1    1    2    0    0 -0.85277216969E+02  0.55814567392E+02  0.82910179737E+01  0.10225561425E+03  0.00000000000E+00 0.  1.
</event>
<event>
 7    1  0.2732144E-009  0.1137037E+03  0.7561462E-02  0.1253861E+00
         -2   -1    0    0    0  501 -0.00000000000E+00  0.00000000000E+00  0.80212488107E+02  0.80212488107E+02  0.00000000000E+00 0.  1.
          2   -1    0    0  501    0  0.00000000000E+00 -0.00000000000E+00 -0.16561288451E+03  0.16561288451E+03  0.00000000000E+00 0. -1.
         25    2    1    2    0    0  0.27905173831E+02  0.28321886895E+02 -0.42746766959E+02  0.13804006497E+03  0.12508775099E+03 0.  0.
          5    1    3    3  502    0  0.33922141187E+02  0.75653802438E+02 -0.22273612528E+02  0.85952287352E+02  0.41800000000E+01 0.  1.
         -5    1    3    3    0  502 -0.60169673567E+01 -0.47331915543E+02 -0.20473154430E+02  0.52087777621E+02  0.41800000000E+01 0.  1.
        -11    1    1    2    0    0  0.66313592157E+01 -0.53402759569E+02 -0.35602080442E+02  0.64523931890E+02  0.00000000000E+00 0. -1.
         11    1    1    2    0    0 -0.34536533046E+02  0.25080872675E+02 -0.70515490041E+01  0.43261375757E+02  0.00000000000E+00 0.  1.
</event>
<event>
 7    1  0.2732144E-009  0.1677373E+03  0.7561462E-02  0.1180228E+00
         -1   -1    0    0    0  501 -0.00000000000E+00  0.00000000000E+00  0.15056400309E+03  0.15056400309E+03  0.00000000000E+00 0.  1.
          1   -1    0    0  501    0  0.00000000000E+00 -0.00000000000E+00 -0.24404353224E+03  0.24404353224E+03  0.00000000000E+00 0. -1.
         25    2    1    2    0    0  0.52802265907E+02  0.14161785227E+03 -0.56966224975E+01  0.19627974837E+03  0.12509833231E+03 0.  0.
          5    1    3    3  502    0  0.65981124669E+02  0.46571241831E+02  0.39649530208E+02  0.90066347900E+02  0.41800000000E+01 0.  1.
         -5    1    3    3    0  502 -0.13178858762E+02  0.95046610441E+02 -0.45346152706E+02  0.10621340047E+03  0.41800000000E+01 0.  1.
        -11    1    1    2    0    0 -0.30728792958E+02 -0.24283453295E+02 -0.66319986027E+02  0.77021330599E+02  0.00000000000E+00 0. -1.
         11    1    1    2    0    0 -0.22073472949E+02 -0.11733439898E+03 -0.21462920627E+02  0.12130645635E+03  0.00000000000E+00 0.  1.
</event>
<event>
 7    1  0.3108501E-009  0.2064287E+03  0.7561462E-02  0.1144426E+00
         -2   -1    0    0    0  501 -0.00000000000E+00  0.00000000000E+00  0.74726388090E+02  0.74726388090E+02  0.00000000000E+00 0.  1.
          2   -1    0    0  501    0  0.00000000000E+00 -0.00000000000E+00 -0.61974511527E+03  0.61974511527E+03  0.00000000000E+00 0. -1.
         25    2    1    2    0    0  0.59462428256E+02  0.17002054714E+03 -0.35476329560E+03  0.41706880473E+03  0.12508647069E+03 0.  0.
          5    1    3    3  502    0 -0.23362499930E+02  0.12000449847E+03 -0.19117350142E+03  0.22696181640E+03  0.41800000000E+01 0.  1.
         -5    1    3    3    0  502  0.82824928186E+02  0.50016048672E+02 -0.16358979418E+03  0.19010698833E+03  0.41800000000E+01 0.  1.
        -11    1    1    2    0    0 -0.10275812971E+02 -0.12963321088E+03 -0.16208776361E+03  0.20780472759E+03  0.00000000000E+00 0. -1.
         11    1    1    2    0    0 -0.49186615285E+02 -0.40387336261E+02 -0.28167667960E+02  0.69597971032E+02  0.00000000000E+00 0.  1.
</event>
<event>
 7    1  0.2732144E-009  0.9444845E+02  0.7561462E-02  0.1292423E+00
          1   -1    0    0  501    0  0.00000000000E+00  0.00000000000E+00  0.12143944218E+03  0.12143944218E+03  0.00000000000E+00 0. -1.
         -1   -1    0    0    0  501 -0.00000000000E+00 -0.00000000000E+00 -0.97853397728E+02  0.97853397728E+02  0.00000000000E+00 0.  1.
         25    2    1    2    0    0  0.90763298026E+01 -0.81176352031E+01  0.13224512041E+02  0.12637523816E+03  0.12509011686E+03 0.  0.
          5    1    3    3  502    0  0.51645202492E+02  0.13541579185E+02  0.44077899134E+02  0.69360903248E+02  0.41800000000E+01 0.  1.
         -5    1    3    3    0  502 -0.42568872690E+02 -0.21659214388E+02 -0.30853387092E+02  0.57014334909E+02  0.41800000000E+01 0.  1.
        -11    1    1    2    0    0  0.16616260501E+02 -0.34124928719E+02  0.19447137897E+02  0.42647415461E+02  0.00000000000E+00 0. -1.
         11    1    1    2    0    0 -0.25692590304E+02  0.42242563922E+02 -0.90856054820E+01  0.50270186296E+02  0.00000000000E+00 0.  1.
</event>
<event>
 7    1  0.2732144E-009  0.1113525E+03  0.7561462E-02  0.1258086E+00
          2   -1    0    0  501    0  0.00000000000E+00  0.00000000000E+00  0.55328275934E+03  0.55328275934E+03  0.00000000000E+00 0. -1.
         -2   -1    0    0    0  501 -0.00000000000E+00 -0.00000000000E+00 -0.34158108551E+02  0.34158108551E+02  0.00000000000E+00 0.  1.
         25    2    1    2    0    0 -0.32547773677E+02  0.77479796564E+02  0.30433534781E+03  0.33959700972E+03  0.12507457230E+03 0.  0.
          5    1    3    3  502    0 -0.17755203040E+01 -0.24439211564E+02  0.15006841236E+03  0.15211320890E+03  0.41800000000E+01 0. -1.
         -5    1    3    3    0  502 -0.30772253373E+02  0.10191900813E+03  0.15426693545E+03  0.18748380082E+03  0.41800000000E+01 0. -1.
        -11    1    1    2    0    0  0.15259568678E+01 -0.49508333927E+02  0.19578531616E+03  0.20195369196E+03  0.00000000000E+00 0. -1.
         11    1    1    2    0    0  0.31021816809E+02 -0.27971462637E+02  0.19003986823E+02  0.45890166217E+02  0.00000000000E+00 0.  1.
</event>
<event>
 7    1  0.2732144E-009  0.7898491E+02  0.7561462E-02  0.1331957E+00
          2   -1    0    0  501    0  0.00000000000E+00  0.00000000000E+00  0.59558486395E+03  0.59558486395E+03  0.00000000000E+00 0. -1.
         -2   -1    0    0    0  501 -0.00000000000E+00 -0.00000000000E+00 -0.34597830672E+02  0.34597830672E+02  0.00000000000E+00 0.  1.
         25    2    1    2    0    0 -0.58360599728E+02 -0.11435200194E+02  0.46045964432E+03  0.48084142544E+03  0.12509464004E+03 0.  0.
          5    1    3    3  502    0 -0.63614883533E+02 -0.93947657537E+01  0.92047704510E+02  0.11236265988E+03  0.41800000000E+01 0. -1.
         -5    1    3    3    0  502  0.52542838050E+01 -0.20404344404E+01  0.36841193981E+03  0.36847876555E+03  0.41800000000E+01 0. -1.
        -11    1    1    2    0    0  0.64190358516E+02  0.27191166780E+02  0.28386205423E+02  0.75269770397E+02  0.00000000000E+00 0.  1.
         11    1    1    2    0    0 -0.58297587885E+01 -0.15755966586E+02  0.72141183539E+02  0.74071498790E+02  0.00000000000E+00 0. -1.
</event>
<event>
 7    1  0.2732144E-009  0.1453404E+03  0.7561462E-02  0.1206318E+00
          2   -1    0    0  501    0  0.00000000000E+00  0.00000000000E+00  0.89381931158E+03  0.89381931158E+03  0.00000000000E+00 0. -1.
         -2   -1    0    0    0  501 -0.00000000000E+00 -0.00000000000E+00 -0.29744299417E+02  0.29744299417E+02  0.00000000000E+00 0.  1.
         25    2    1    2    0    0 -0.12006944886E+03  0.13229216426E+02  0.45020282143E+03  0.48262230386E+03  0.12510005214E+03 0.  0.
          5    1    3    3  502    0  0.16909437322E+02 -0.16680204541E+02  0.14157361479E+03  0.14361308819E+03  0.41800000000E+01 0. -1.
         -5    1    3    3    0  502 -0.13697888618E+03  0.29909420967E+02  0.30862920664E+03  0.33900921568E+03  0.41800000000E+01 0. -1.
        -11    1    1    2    0    0  0.10480035488E+03  0.18758015828E+01  0.40386708886E+03  0.41724723903E+03  0.00000000000E+00 0.  1.
         11    1    1    2    0    0  0.15269093978E+02 -0.15105018009E+02  0.10005101879E+02  0.23694068109E+02  0.00000000000E+00 0. -1.
</event>
<event>
 7    1  0.2732144E-009  0.9867737E+02  0.7561462E-02  0.1283102E+00
         -2   -1    0    0    0  501 -0.00000000000E+00  0.00000000000E+00  0.33102234842E+02  0.33102234842E+02  0.00000000000E+00 0.  1.
          2   -1    0    0  501    0  0.00000000000E+00 -0.00000000000E+00 -0.40211705478E+03  0.40211705478E+03  0.00000000000E+00 0. -1.
         25    2    1    2    0    0 -0.24006859620E+02 -0.30391997944E+02 -0.18581324100E+03  0.22731705797E+03  0.12508589634E+03 0.  0.
          5    1    3    3  502    0  0.67199684902E+01 -0.57671888026E+02 -0.17528000688E+03  0.18469368656E+03  0.41800000000E+01 0.  1.
         -5    1    3    3    0  502 -0.30726828110E+02  0.27279890083E+02 -0.10533234123E+02  0.42623371403E+02  0.41800000000E+01 0.  1.
        -11    1    1    2    0    0  0.52971925671E+02 -0.37058022636E+01 -0.10922404407E+03  0.12144813577E+03  0.00000000000E+00 0.  1.
         11    1    1    2    0    0 -0.28965066051E+02  0.34097800207E+02 -0.73977534874E+02  0.86454095891E+02  0.00000000000E+00 0. -1.
</event>
<event>
 7    1  0.2732144E-009  0.1045422E+03  0.7561462E-02  0.1271024E+00
          2   -1    0    0  501    0  0.00000000000E+00  0.00000000000E+00  0.37059194121E+03  0.37059194121E+03  0.00000000000E+00 0.  1.
         -2   -1    0    0    0  501 -0.00000000000E+00 -0.00000000000E+00 -0.47613105086E+02  0.47613105086E+02  0.00000000000E+00 0. -1.
         25    2    1    2    0    0 -0.44010264415E+02 -0.42464535560E+02  0.23236368760E+03  0.27088807702E+03  0.12508927534E+03 0.  0.
          5    1    3    3  502    0  0.15235429052E+02 -0.47902411390E+02  0.27355938803E+02  0.57380999495E+02  0.41800000000E+01 0.  1.
         -5    1    3    3    0  502 -0.59245693467E+02  0.54378758294E+01  0.20500774880E+03  0.21350707753E+03  0.41800000000E+01 0.  1.
        -11    1    1    2    0    0  0.35303450234E+01 -0.22327403484E+02  0.61562820633E+02  0.65581683164E+02  0.00000000000E+00 0.  1.
         11    1    1    2    0    0  0.40479919392E+02  0.64791939045E+02  0.29052327890E+02  0.81735286107E+02  0.00000000000E+00 0. -1.
</event>
<event>
 7    1  0.2732144E-009  0.9872032E+02  0.7561462E-02  0.1283010E+00
          1   -1    0    0  501    0  0.00000000000E+00  0.00000000000E+00  0.35227075831E+02  0.35227075831E+02  0.00000000000E+00 0. -1.
         -1   -1    0    0    0  501 -0.00000000000E+00 -0.00000000000E+00 -0.44056884775E+03  0.44056884775E+03  0.00000000000E+00 0.  1.
         25    2    1    2    0    0  0.44644181356E+02 -0.18288876442E+01 -0.15131613979E+03  0.20134715821E+03  0.12509059198E+03 0.  0.
          5    1    3    3  502    0 -0.17684499992E+02  0.20876840988E+02  0.79258645452E+01  0.28790202472E+02  0.41800000000E+01 0.  1.
         -5    1    3    3    0  502  0.62328681348E+02 -0.22705728632E+02 -0.15924200433E+03  0.17255695574E+03  0.41800000000E+01 0.  1.
        -11    1    1    2    0    0 -0.73959869994E+02  0.90104087189E+00 -0.19450352652E+03  0.20809251806E+03  0.00000000000E+00 0.  1.
         11    1    1    2    0    0  0.29315688638E+02  0.92784677234E+00 -0.59522105615E+02  0.66356247308E+02  0.00000000000E+00 0. -1.
</event>
<event>
 7    1  0.2732144E-009  0.1027399E+03  0.7561462E-02  0.1274638E+00
          1   -1    0    0  501    0  0.00000000000E+00  0.00000000000E+00  0.15316311100E+03  0.15316311100E+03  0.00000000000E+00 0. -1.
         -1   -1    0    0    0  501 -0.00000000000E+00 -0.00000000000E+00 -0.86316084059E+02  0.86316084059E+02  0.00000000000E+00 0.  1.
         25    2    1    2    0    0  0.68457773137E+00  0.25915996108E+02  0.10398377455E+02  0.12817335350E+03  0.12509266482E+03 0.  0.
          5    1    3    3  502    0 -0.37919951517E+02  0.57601999328E+02 -0.16867471283E+02  0.71118893672E+02  0.41800000000E+01 0. -1.
         -5    1    3    3    0  502  0.38604529249E+02 -0.31686003221E+02  0.27265848738E+02  0.57054459826E+02  0.41800000000E+01 0. -1.
        -11    1    1    2    0    0  0.89606785241E+00  0.30160377450E+02  0.44794816107E+02  0.54009507085E+02  0.00000000000E+00 0. -1.
         11    1    1    2    0    0 -0.15806455838E+01 -0.56076373558E+02  0.11653833378E+02  0.57296334475E+02  0.00000000000E+00 0.  1.
</event>
<event>
 7    1  0.2732144E-009  0.1293318E+03  0.7561462E-02  0.1228451E+00
          1   -1    0    0  501    0  0.00000000000E+00  0.00000000000E+00  0.14619469791E+04  0.14619469791E+04  0.00000000000E+00 0. -1.
         -1   -1    0    0    0  501 -0.00000000000E+00 -0.00000000000E+00 -0.19946496426E+02  0.19946496426E+02  0.00000000000E+00 0.  1.
         25    2    1    2    0    0  0.85058228863E+02 -0.75491157556E+02  0.10636970126E+04  0.10770472534E+04  0.12508250968E+03 0.  0.
          5    1    3    3  502    0  0.33146261953E+02 -0.22659804119E+02  0.71723059818E+02  0.82303165879E+02  0.41800000000E+01 0. -1.
         -5    1    3    3    0  502  0.51911966910E+02 -0.52831353437E+02  0.99197395277E+03  0.99474408749E+03  0.41800000000E+01 0. -1.
        -11    1    1    2    0    0 -0.78446638210E+02  0.10922394639E+02  0.20175781889E+03  0.21674729810E+03  0.00000000000E+00 0. -1.
         11    1    1    2    0    0 -0.66115906535E+01  0.64568762917E+02  0.17654565119E+03  0.18809892406E+03  0.00000000000E+00 0.  1.
</event>
<event>
 7    1  0.2732144E-009  0.1181781E+03  0.7561462E-02  0.1246133E+00
         -1   -1    0    0    0  501 -0.00000000000E+00  0.00000000000E+00  0.77324653742E+02  0.77324653742E+02  0.00000000000E+00 0.  1.
          1   -1    0    0  501    0  0.00000000000E+00 -0.00000000000E+00 -0.28598323521E+03  0.28598323521E+03  0.00000000000E+00 0. -1.
         25    2    1    2    0    0 -0.78583123857E+02 -0.33028029196E+02 -0.17386599383E+03  0.23053156913E+03  0.12509701231E+03 0.  0.
          5    1    3    3  502    0  0.12601410860E+02  0.16218770166E+02  0.69488235956E+01  0.22081725719E+02  0.41800000000E+01 0.  1.
         -5    1    3    3    0  502 -0.91184534717E+02 -0.49246799362E+02 -0.18081481742E+03  0.20844984341E+03  0.41800000000E+01 0.  1.
        -11    1    1    2    0    0  0.34908634495E+02  0.53152412954E+02 -0.51541039323E+02  0.81855180041E+02  0.00000000000E+00 0. -1.
         11    1    1    2    0    0  0.43674489362E+02 -0.20124383758E+02  0.16748451682E+02  0.50921139779E+02  0.00000000000E+00 0.  1.
</event>
<event>
 7    1  0.2732144E-009  0.1113490E+03  0.7561462E-02  0.1258092E+00
          1   -1    0    0  501    0  0.00000000000E+00  0.00000000000E+00  0.16597404737E+02  0.16597404737E+02  0.00000000000E+00 0.  1.
         -1   -1    0    0    0  501 -0.00000000000E+00 -0.00000000000E+00 -0.82556337728E+03  0.82556337728E+03  0.00000000000E+00 0. -1.
         25    2    1    2    0    0 -0.34162550039E+02  0.29291642225E+02 -0.43608710143E+03  0.45589835999E+03  0.12508506897E+03 0.  0.
          5    1    3    3  502    0  0.40958615795E+02 -0.97986452218E+00 -0.72537502391E+02  0.83413008550E+02  0.41800000000E+01 0. -1.
         -5    1    3    3    0  502 -0.75121165834E+02  0.30271506747E+02 -0.36354959904E+03  0.37248535144E+03  0.41800000000E+01 0. -1.
        -11    1    1    2    0    0  0.20870033817E+02  0.31721876304E+02 -0.15761012682E+03  0.16211967131E+03  0.00000000000E+00 0. -1.
         11    1    1    2    0    0  0.13292516222E+02 -0.61013518529E+02 -0.21526874430E+03  0.22414275072E+03  0.00000000000E+00 0.  1.
</event>
<event>
 6    1  0.2732144E-009  0.1010984E+03  0.7561462E-02  0.1278003E+00
          2   -1    0    0  501    0  0.00000000000E+00  0.00000000000E+00  0.56060937644E+03  0.56060937644E+03  0.00000000000E+00 0. -1.
         -2   -1    0    0    0  501 -0.00000000000E+00 -0.00000000000E+00 -0.23985844236E+02  0.23985844236E+02  0.00000000000E+00 0.  1.
          5    1    1    2  502    0 -0.19015224513E+02 -0.79662064992E+02  0.23602153927E+03  0.24986248770E+03  0.41800000000E+01 0. -1.
         -5    1    1    2    0  502  0.12332522268E+02  0.45948692617E+02  0.12406347628E+03  0.13293830150E+03  0.41800000000E+01 0. -1.
        -11    1    1    2    0    0 -0.13791010621E+02  0.46359600026E+02  0.38903854920E+02  0.62071848822E+02  0.00000000000E+00 0.  1.
         11    1    1    2    0    0  0.20473712865E+02 -0.12646227652E+02  0.13763466174E+03  0.13972258265E+03  0.00000000000E+00 0. -1.
</event>
<event>
 7    1  0.2732144E-009  0.2163182E+03  0.7561462E-02  0.1136658E+00
          2   -1    0    0  501    0  0.00000000000E+00  0.00000000000E+00  0.35041899899E+03  0.35041899899E+03  0.00000000000E+00 0. -1.
         -2   -1    0    0    0  501 -0.00000000000E+00 -0.00000000000E+00 -0.13625458306E+03  0.13625458306E+03  0.00000000000E+00 0.  1.
         25    2    1    2    0    0 -0.11154410817E+03 -0.15352892653E+03  0.11384334882E+03  0.25420723939E+03  0.12509113932E+03 0.  0.
          5    1    3    3  502    0 -0.34740019650E+02 -0.14578909412E+03  0.72453099448E+02  0.16651802590E+03  0.41800000000E+01 0.  1.
         -5    1    3    3    0  502 -0.76804088519E+02 -0.77398324121E+01  0.41390249375E+02  0.87689213489E+02  0.41800000000E+01 0.  1.
        -11    1    1    2    0    0  0.89281242569E+02  0.56061130045E+02  0.28015235520E+02  0.10908182249E+03  0.00000000000E+00 0.  1.
         11    1    1    2    0    0  0.22262865600E+02  0.97467796487E+02  0.72305831591E+02  0.12338452018E+03  0.00000000000E+00 0. -1.
</event>
<event>
 7    1  0.2732144E-009  0.1680996E+03  0.7561462E-02  0.1179844E+00
         -1   -1    0    0    0  501 -0.00000000000E+00  0.00000000000E+00  0.62320798410E+02  0.62320798410E+02  0.00000000000E+00 0.  1.
          1   -1    0    0  501    0  0.00000000000E+00 -0.00000000000E+00 -0.70938371216E+03  0.70938371216E+03  0.00000000000E+00 0. -1.
         25    2    1    2    0    0 -0.14481300766E+03 -0.51219442720E+01 -0.14194882312E+03  0.23831530171E+03  0.12509065970E+03 0.  0.
          5    1    3    3  502    0 -0.16429436997E+03 -0.20443562037E+02 -0.11606085484E+03  0.20223296877E+03  0.41800000000E+01 0. -1.
         -5    1    3    3    0  502  0.19481362314E+02  0.15321617765E+02 -0.25887968283E+02  0.36082332940E+02  0.41800000000E+01 0. -1.
        -11    1    1    2    0    0  0.28420380867E+02  0.60357707923E+01 -0.21979633061E+02  0.36431481539E+02  0.00000000000E+00 0.  1.
         11    1    1    2    0    0  0.11639262679E+03 -0.91382652024E+00 -0.48313445756E+03  0.49695772731E+03  0.00000000000E+00 0. -1.
</event>
<event>
 7    1  0.2732144E-009  0.1307352E+03  0.7561462E-02  0.1226369E+00
         -4   -1    0    0    0  501 -0.00000000000E+00  0.00000000000E+00  0.15006012735E+03  0.15006012735E+03  0.00000000000E+00 0.  1.
          4   -1    0    0  501    0  0.00000000000E+00 -0.00000000000E+00 -0.12224225597E+03  0.12224225597E+03  0.00000000000E+00 0. -1.
         25    2    1    2    0    0  0.65727889913E+02 -0.41554429217E+02  0.32624395459E+01  0.14732830495E+03  0.12509220531E+03 0.  0.
          5    1    3    3  502    0 -0.26323842375E+02 -0.45807661797E+02 -0.10601251472E+02  0.54047622422E+02  0.41800000000E+01 0. -1.
         -5    1    3    3    0  502  0.92051732288E+02  0.42532325800E+01  0.13863691018E+02  0.93280682530E+02  0.41800000000E+01 0. -1.
        -11    1    1    2    0    0 -0.60306311025E+02  0.67039388078E+02  0.15037273371E+01  0.90185319755E+02  0.00000000000E+00 0. -1.
         11    1    1    2    0    0 -0.54215788876E+01 -0.25484958861E+02  0.23051704495E+02  0.34788758614E+02  0.00000000000E+00 0.  1.
</event>
<event>
 7    1  0.2732144E-009  0.8058795E+02  0.7561462E-02  0.1327391E+00
          3   -1    0    0  501    0  0.00000000000E+00  0.00000000000E+00  0.14106341317E+03  0.14106341317E+03  0.00000000000E+00 0. -1.
         -3   -1    0    0    0  501 -0.00000000000E+00 -0.00000000000E+00 -0.11381078986E+03  0.11381078986E+03  0.00000000000E+00 0.  1.
         25    2    1    2    0    0  0.18327288223E+02 -0.54990453370E+02 -0.66284933349E+01  0.13802989245E+03  0.12509386408E+03 0.  0.
          5    1    3    3  502    0  0.26520987841E+02 -0.35972034099E+02  0.56095473057E+02  0.71843750812E+02  0.41800000000E+01 0.  1.
         -5    1    3    3    0  502 -0.81936996187E+01 -0.19018419271E+02 -0.62723966392E+02  0.66186141638E+02  0.41800000000E+01 0.  1.
        -11    1    1    2    0    0 -0.25078986373E+02 -0.12021857692E+02 -0.16855770172E+02  0.32520725821E+02  0.00000000000E+00 0.  1.
         11    1    1    2    0    0  0.67516981501E+01  0.67012311062E+02  0.50736886825E+02  0.84323584758E+02  0.00000000000E+00 0. -1.
</event>
<event>
 7    1  0.2732144E-009  0.9754798E+02  0.7561462E-02  0.1285538E+00
          1   -1    0    0  501    0  0.00000000000E+00  0.00000000000E+00  0.84843120235E+03  0.84843120235E+03  0.00000000000E+00 0. -1.
         -1   -1    0    0    0  501 -0.00000000000E+00 -0.00000000000E+00 -0.15918753558E+02  0.15918753558E+02  0.00000000000E+00 0.  1.
         25    2    1    2    0    0 -0.15999252555E+02  0.42053649977E+02  0.49665551714E+03  0.51413923242E+03  0.12509181449E+03 0.  0.
          5    1    3    3  502    0 -0.22587334359E+02 -0.21946574824E+02  0.32215704615E+02  0.45245594745E+02  0.41800000000E+01 0. -1.
         -5    1    3    3    0  502  0.65880818046E+01  0.64000224801E+02  0.46443981253E+03  0.46889363768E+03  0.41800000000E+01 0. -1.
        -11    1    1    2    0    0 -0.26824731420E+02 -0.48618777246E+02  0.20375701133E+03  0.21118776333E+03  0.00000000000E+00 0.  1.
         11    1    1    2    0    0  0.42823983974E+02  0.65651272692E+01  0.13209992032E+03  0.13902296015E+03  0.00000000000E+00 0. -1.
</event>
<event>
 7    1  0.2732144E-009  0.1538160E+03  0.7561462E-02  0.1195861E+00
         -1   -1    0    0    0  501 -0.00000000000E+00  0.00000000000E+00  0.79263192054E+02  0.79263192054E+02  0.00000000000E+00 0.  1.
          1   -1    0    0  501    0  0.00000000000E+00 -0.00000000000E+00 -0.36048919818E+03  0.36048919818E+03  0.00000000000E+00 0. -1.
         25    2    1    2    0    0 -0.10791300262E+03 -0.68349053373E+02 -0.16400559072E+03  0.24261265580E+03  0.12508500203E+03 0.  0.
          5    1    3    3  502    0 -0.13215940728E+03 -0.72802499423E+02 -0.15412491751E+03  0.21572731735E+03  0.41800000000E+01 0. -1.
         -5    1    3    3    0  502  0.24246404654E+02  0.44534460499E+01 -0.98806732158E+01  0.26885338450E+02  0.41800000000E+01 0. -1.
        -11    1    1    2    0    0  0.98926168633E+01  0.20167199372E+02  0.13955723722E+02  0.26445075601E+02  0.00000000000E+00 0.  1.
         11    1    1    2    0    0  0.98020385759E+02  0.48181854001E+02 -0.13117613912E+03  0.17069465883E+03  0.00000000000E+00 0. -1.
</event>
<event>
 7    1  0.2732144E-009  0.9577987E+02  0.7561462E-02  0.1289429E+00
         -1   -1    0    0    0  501 -0.00000000000E+00  0.00000000000E+00  0.28126308869E+02  0.28126308869E+02  0.00000000000E+00 0.  1.
          1   -1    0    0  501    0  0.00000000000E+00 -0.00000000000E+00 -0.45923927944E+03  0.45923927944E+03  0.00000000000E+00 0. -1.
         25    2    1    2    0    0 -0.56777619938E+01  0.34034610962E+02 -0.27366645397E+03  0.30287127507E+03  0.12508832682E+03 0.  0.
          5    1    3    3  502    0 -0.33964900783E+02 -0.37201421428E+02 -0.13840975662E+03  0.14735091913E+03  0.41800000000E+01 0.  1.
         -5    1    3    3    0  502  0.28287138789E+02  0.71236032389E+02 -0.13525669735E+03  0.15552035593E+03  0.41800000000E+01 0.  1.
        -11    1    1    2    0    0 -0.24122472946E+02 -0.10636651110E+02 -0.14056402840E+03  0.14301495771E+03  0.00000000000E+00 0. -1.
         11    1    1    2    0    0  0.29800234939E+02 -0.23397959852E+02 -0.16882488194E+02  0.41479355531E+02  0.00000000000E+00 0.  1.
</event>
<event>
 7    1  0.2732144E-009  0.1050971E+03  0.7561462E-02  0.1269928E+00
         -2   -1    0    0    0  501 -0.00000000000E+00  0.00000000000E+00  0.10004267505E+03  0.10004267505E+03  0.00000000000E+00 0. -1.
          2   -1    0    0  501    0  0.00000000000E+00 -0.00000000000E+00 -0.16771045373E+03  0.16771045373E+03  0.00000000000E+00 0.  1.
         25    2    1    2    0    0  0.36438764353E+02 -0.82793159043E+01 -0.98578470502E+02  0.16359889866E+03  0.12510217495E+03 0.  0.
          5    1    3    3  502    0 -0.43253341082E+02 -0.13630843824E+02 -0.15078747393E+02  0.47973872484E+02  0.41800000000E+01 0.  1.
         -5    1    3    3    0  502  0.79692105435E+02  0.53515279202E+01 -0.83499723109E+02  0.11562502618E+03  0.41800000000E+01 0.  1.
        -11    1    1    2    0    0  0.23907351366E+02  0.17161585967E+01 -0.14796573704E+02  0.28168160093E+02  0.00000000000E+00 0. -1.
         11    1    1    2    0    0 -0.60346115719E+02  0.65631573076E+01  0.45707265523E+02  0.75986070024E+02  0.00000000000E+00 0.  1.
</event>
<event>
 7    1  0.2732144E-009  0.1078109E+03  0.7561462E-02  0.1264678E+00
         -1   -1    0    0    0  501 -0.00000000000E+00  0.00000000000E+00  0.21696963881E+02  0.21696963881E+02  0.00000000000E+00 0.  1.
          1   -1    0    0  501    0  0.00000000000E+00 -0.00000000000E+00 -0.70202448651E+03  0.70202448651E+03  0.00000000000E+00 0. -1.
         25    2    1    2    0    0  0.25960919072E+01 -0.30817295743E+02 -0.23381094723E+03  0.26697025087E+03  0.12509640441E+03 0.  0.
          5    1    3    3  502    0 -0.19468685839E+02  0.42431300450E+02 -0.53920426190E+02  0.71444592145E+02  0.41800000000E+01 0.  1.
         -5    1    3    3    0  502  0.22064777747E+02 -0.73248596193E+02 -0.17989052104E+03  0.19552565872E+03  0.41800000000E+01 0.  1.
        -11    1    1    2    0    0  0.98830573232E+01  0.59784414245E+02 -0.35014091943E+03  0.35534562678E+03  0.00000000000E+00 0.  1.
         11    1    1    2    0    0 -0.12479149230E+02 -0.28967118502E+02 -0.96375655965E+02  0.10140557274E+03  0.00000000000E+00 0. -1.
</event>
<event>
 7    1  0.2732144E-009  0.7425776E+02  0.7561462E-02  0.1346185E+00
         -2   -1    0    0    0  501 -0.00000000000E+00  0.00000000000E+00  0.10320874516E+03  0.10320874516E+03  0.00000000000E+00 0. -1.
          2   -1    0    0  501    0  0.00000000000E+00 -0.00000000000E+00 -0.18785255525E+03  0.18785255525E+03  0.00000000000E+00 0.  1.
         25    2    1    2    0    0  0.47480673166E+02  0.51010144973E+02 -0.10040301984E+03  0.17491063095E+03  0.12512598936E+03 0.  0.
          5    1    3    3  502    0  0.12580439766E+02  0.32184740309E+02  0.25302535746E+02  0.43032728110E+02  0.41800000000E+01 0. -1.
         -5    1    3    3    0  502  0.34900233400E+02  0.18825404664E+02 -0.12570555559E+03  0.13187790284E+03  0.41800000000E+01 0. -1.
        -11    1    1    2    0    0 -0.21080554363E+02 -0.40030156672E+02 -0.35465969876E+02  0.57485982941E+02  0.00000000000E+00 0.  1.
         11    1    1    2    0    0 -0.26400118803E+02 -0.10979988301E+02  0.51225179634E+02  0.58664686520E+02  0.00000000000E+00 0. -1.
</event>
<event>
 7    1  0.2732144E-009  0.4436979E+03  0.7561462E-02  0.1029618E+00
         -1   -1    0    0    0  501 -0.00000000000E+00  0.00000000000E+00  0.10649862114E+04  0.10649862114E+04  0.00000000000E+00 0.  1.
          1   -1    0    0  501    0  0.00000000000E+00 -0.00000000000E+00 -0.20951662313E+03  0.20951662313E+03  0.00000000000E+00 0. -1.
         25    2    1    2    0    0 -0.16126283545E+03  0.40234552362E+03  0.63698599898E+03  0.78056813372E+03  0.12509127075E+03 0.  0.
          5    1    3    3  502    0 -0.17670367076E+03  0.32372748218E+03  0.49250914221E+03  0.61531000116E+03  0.41800000000E+01 0.  1.
         -5    1    3    3    0  502  0.15440835304E+02  0.78618041440E+02  0.14447685677E+03  0.16525813256E+03  0.41800000000E+01 0.  1.
        -11    1    1    2    0    0  0.14001352837E+03 -0.26856045675E+03  0.11702412860E+03  0.32468931878E+03  0.00000000000E+00 0. -1.
         11    1    1    2    0    0  0.21249307085E+02 -0.13378506687E+03  0.10145946064E+03  0.16924538198E+03  0.00000000000E+00 0.  1.
</event>
<event>
 7    1  0.2732144E-009  0.1955110E+03  0.7561462E-02  0.1153583E+00
         -1   -1    0    0    0  501 -0.00000000000E+00  0.00000000000E+00  0.54199506070E+02  0.54199506070E+02  0.00000000000E+00 0.  1.
          1   -1    0    0  501    0  0.00000000000E+00 -0.00000000000E+00 -0.79104156943E+03  0.79104156943E+03  0.00000000000E+00 0. -1.
         25    2    1    2    0    0 -0.14656483072E+03 -0.96088338769E+02 -0.34823879980E+03  0.40943141784E+03  0.12509838437E+03 0.  0.
          5    1    3    3  502    0 -0.24236857199E+02  0.27116941714E+02 -0.31909075129E+02  0.48563517690E+02  0.41800000000E+01 0.  1.
         -5    1    3    3    0  502 -0.12232797353E+03 -0.12320528048E+03 -0.31632972467E+03  0.36086790015E+03  0.41800000000E+01 0.  1.
        -11    1    1    2    0    0  0.79493935528E+02  0.25768342215E+02 -0.94907184446E+02  0.12645420873E+03  0.00000000000E+00 0.  1.
         11    1    1    2    0    0  0.67070895197E+02  0.70319996553E+02 -0.29369607911E+03  0.30935544893E+03  0.00000000000E+00 0. -1.
</event>
<event>
 7    1  0.2732144E-009  0.1156251E+03  0.7561462E-02  0.1250494E+00
          2   -1    0    0  501    0  0.00000000000E+00  0.00000000000E+00  0.88691498121E+03  0.88691498121E+03  0.00000000000E+00 0.  1.
         -2   -1    0    0    0  501 -0.00000000000E+00 -0.00000000000E+00 -0.21132390270E+02  0.21132390270E+02  0.00000000000E+00 0. -1.
         25    2    1    2    0    0 -0.10596965187E+02  0.74378418632E+02  0.59852878297E+03  0.61605897540E+03  0.12509001678E+03 0.  0.
          5    1    3    3  502    0  0.25904334065E+02  0.98325798441E+02  0.43577990797E+03  0.44750485779E+03  0.41800000000E+01 0. -1.
         -5    1    3    3    0  502 -0.36501299252E+02 -0.23947379809E+02  0.16274887500E+03  0.16855411760E+03  0.41800000000E+01 0. -1.
        -11    1    1    2    0    0  0.26359318170E+02 -0.41448663020E+02  0.24356448090E+03  0.24846823072E+03  0.00000000000E+00 0.  1.
         11    1    1    2    0    0 -0.15762352983E+02 -0.32929755613E+02  0.23689327075E+02  0.43520165366E+02  0.00000000000E+00 0. -1.
</event>
<event>
 7    1  0.2732144E-009  0.1583248E+03  0.7561462E-02  0.1190601E+00
          2   -1    0    0  501    0  0.00000000000E+00  0.00000000000E+00  0.10174956908E+04  0.10174956908E+04  0.00000000000E+00 0. -1.
         -2   -1    0    0    0  501 -0.00000000000E+00 -0.00000000000E+00 -0.30529668264E+02  0.30529668264E+02  0.00000000000E+00 0.  1.
         25    2    1    2    0    0 -0.53085204837E+02 -0.11687280259E+03  0.67928732578E+03  0.70253499513E+03  0.12508739929E+03 0.  0.
          5    1    3    3  502    0 -0.18551776808E+02  0.15233047178E+02  0.26903106809E+03  0.27013219384E+03  0.41800000000E+01 0.  1.
         -5    1    3    3    0  502 -0.34533428029E+02 -0.13210584977E+03  0.41025625768E+03  0.43240280129E+03  0.41800000000E+01 0.  1.
        -11    1    1    2    0    0  0.71560529958E+02  0.52635363226E+02  0.15175291174E+03  0.17584179575E+03  0.00000000000E+00 0.  1.
         11    1    1    2    0    0 -0.18475325120E+02  0.64237439365E+02  0.15592578501E+03  0.16964856818E+03  0.00000000000E+00 0. -1.
</event>
<event>
 7    1  0.2732144E-009  0.6720563E+02  0.7561462E-02  0.1369862E+00
         -1   -1    0    0    0  501 -0.00000000000E+00  0.00000000000E+00  0.14605045606E+03  0.14605045606E+03  0.00000000000E+00 0.  1.
          1   -1    0    0  501    0  0.00000000000E+00 -0.00000000000E+00 -0.80539664531E+02  0.80539664531E+02  0.00000000000E+00 0. -1.
         25    2    1    2    0    0  0.82840696075E+01  0.13818774547E+02  0.42816438409E+02  0.13319068201E+03  0.12508767341E+03 0.  0.
          5    1    3    3  502    0  0.29180721111E+02  0.74926172796E+00 -0.38284374308E+02  0.48324337491E+02  0.41800000000E+01 0.  1.
         -5    1    3    3    0  502 -0.20896651504E+02  0.13069512819E+02  0.81100812717E+02  0.84866344523E+02  0.41800000000E+01 0.  1.
        -11    1    1    2    0    0 -0.31881146126E+02  0.20772041084E+02  0.32898489814E+02  0.50301051690E+02  0.00000000000E+00 0.  1.
         11    1    1    2    0    0  0.23597076518E+02 -0.34590815631E+02 -0.10204136698E+02  0.43098386884E+02  0.00000000000E+00 0. -1.
</event>
<event>
 7    1  0.2732144E-009  0.1409692E+03  0.7561462E-02  0.1212031E+00
         -1   -1    0    0    0  501 -0.00000000000E+00  0.00000000000E+00  0.26929772867E+02  0.26929772867E+02  0.00000000000E+00 0.  1.
          1   -1    0    0  501    0  0.00000000000E+00 -0.00000000000E+00 -0.94647696004E+03  0.94647696004E+03  0.00000000000E+00 0. -1.
         25    2    1    2    0    0 -0.11673690029E+03 -0.66500623268E+01 -0.46939571592E+03  0.49965109009E+03  0.12508855454E+03 0.  0.
          5    1    3    3  502    0 -0.10764291290E+03  0.38693598549E+02 -0.24389028654E+03  0.26941443082E+03  0.41800000000E+01 0.  1.
         -5    1    3    3    0  502 -0.90939873930E+01 -0.45343660876E+02 -0.22550542938E+03  0.23023665926E+03  0.41800000000E+01 0.  1.
        -11    1    1    2    0    0  0.18725999556E+02  0.13044552014E+02 -0.14204230514E+02  0.26880914439E+02  0.00000000000E+00 0.  1.
         11    1    1    2    0    0  0.98010900734E+02 -0.63944896870E+01 -0.43594724074E+03  0.44687472839E+03  0.00000000000E+00 0. -1.
</event>
<event>
 7    1  0.2732144E-009  0.1071601E+03  0.7561462E-02  0.1265921E+00
         -2   -1    0    0    0  501 -0.00000000000E+00  0.00000000000E+00  0.20661137600E+02  0.20661137600E+02  0.00000000000E+00 0. -1.
          2   -1    0    0  501    0  0.00000000000E+00 -0.00000000000E+00 -0.62613897012E+03  0.62613897012E+03  0.00000000000E+00 0.  1.
         25    2    1    2    0    0 -0.34570127149E+02 -0.59923914304E+01 -0.33819194670E+03  0.36228800581E+03  0.12509118231E+03 0.  0.
          5    1    3    3  502    0  0.29772111524E+02  0.30706667177E+02 -0.56476562603E+02  0.70967263982E+02  0.41800000000E+01 0. -1.
         -5    1    3    3    0  502 -0.64342238673E+02 -0.36699058607E+02 -0.28171538410E+03  0.29132074183E+03  0.41800000000E+01 0. -1.
        -11    1    1    2    0    0  0.53833307698E+02  0.33624895817E+02 -0.16303499225E+03  0.17495447218E+03  0.00000000000E+00 0. -1.
         11    1    1    2    0    0 -0.19263180549E+02 -0.27632504387E+02 -0.10425089357E+03  0.10955762974E+03  0.00000000000E+00 0.  1.
</event>
<event>
 7    1  0.2732144E-009  0.9309456E+02  0.7561462E-02  0.1295526E+00
         -1   -1    0    0    0  501 -0.00000000000E+00  0.00000000000E+00  0.22852254957E+02  0.22852254957E+02  0.00000000000E+00 0.  1.
          1   -1    0    0  501    0  0.00000000000E+00 -0.00000000000E+00 -0.82591435947E+03  0.82591435947E+03  0.00000000000E+00 0. -1.
         25    2    1    2    0    0  0.47474788937E+02  0.18826801953E+02 -0.67110942599E+03  0.68457543100E+03  0.12508938810E+03 0.  0.
          5    1    3    3  502    0  0.13753569362E+02  0.57079946819E+02 -0.15278072585E+03  0.16372752850E+03  0.41800000000E+01 0.  1.
         -5    1    3    3    0  502  0.33721219574E+02 -0.38253144865E+02 -0.51832870014E+03  0.52084790250E+03  0.41800000000E+01 0.  1.
        -11    1    1    2    0    0 -0.44452564294E+02  0.11313883924E+02 -0.23404721195E+02  0.51495780565E+02  0.00000000000E+00 0.  1.
         11    1    1    2    0    0 -0.30222246427E+01 -0.30140685878E+02 -0.10854795733E+03  0.11269540287E+03  0.00000000000E+00 0. -1.
</event>
<event>
 7    1  0.2732144E-009  0.1118216E+03  0.7561462E-02  0.1257233E+00
          2   -1    0    0  501    0  0.00000000000E+00  0.00000000000E+00  0.24609250594E+02  0.24609250594E+02  0.00000000000E+00 0. -1.
         -2   -1    0    0    0  501 -0.00000000000E+00 -0.00000000000E+00 -0.65174617597E+03  0.65174617597E+03  0.00000000000E+00 0.  1.
         25    2    1    2    0    0  0.27239113185E+02 -0.67154867967E+02 -0.34510400363E+03  0.37416013977E+03  0.12508913337E+03 0.  0.
          5    1    3    3  502    0  0.75628245108E+02 -0.49995592166E+02 -0.25062320261E+03  0.26654953157E+03  0.41800000000E+01 0. -1.
         -5    1    3    3    0  502 -0.48389131923E+02 -0.17159275801E+02 -0.94480801023E+02  0.10761060820E+03  0.41800000000E+01 0. -1.
        -11    1    1    2    0    0 -0.12686964816E+02  0.65514200080E+02 -0.27947225824E+03  0.28732875355E+03  0.00000000000E+00 0.  1.
         11    1    1    2    0    0 -0.14552148369E+02  0.16406678870E+01 -0.25606635003E+01  0.14866533249E+02  0.00000000000E+00 0. -1.
</event>
<event>
 7    1  0.2732144E-009  0.1473546E+03  0.7561462E-02  0.1203762E+00
          3   -1    0    0  501    0  0.00000000000E+00  0.00000000000E+00  0.14917828654E+04  0.14917828654E+04  0.00000000000E+00 0. -1.
         -3   -1    0    0    0  501 -0.00000000000E+00 -0.00000000000E+00 -0.15481036711E+02  0.15481036711E+02  0.00000000000E+00 0.  1.
         25    2    1    2    0    0  0.30458711955E+02 -0.95819540945E+02  0.98071876009E+03  0.99376393307E+03  0.12509336803E+03 0.  0.
          5    1    3    3  502    0 -0.22693167442E+02  0.21406798969E+02  0.21484880121E+03  0.21714214393E+03  0.41800000000E+01 0. -1.
         -5    1    3    3    0  502  0.53151879398E+02 -0.11722633991E+03  0.76586995888E+03  0.77662178914E+03  0.41800000000E+01 0. -1.
        -11    1    1    2    0    0 -0.56798070182E+02  0.91595722117E+02  0.39948300351E+03  0.41376619869E+03  0.00000000000E+00 0. -1.
         11    1    1    2    0    0  0.26339358226E+02  0.42238188272E+01  0.96100065085E+02  0.99733770342E+02  0.00000000000E+00 0.  1.
</event>
<event>
 7    1  0.2732144E-009  0.1098339E+03  0.7561462E-02  0.1260878E+00
          2   -1    0    0  501    0  0.00000000000E+00  0.00000000000E+00  0.17738441852E+03  0.17738441852E+03  0.00000000000E+00 0.  1.
         -2   -1    0    0    0  501 -0.00000000000E+00 -0.00000000000E+00 -0.81951018876E+02  0.81951018876E+02  0.00000000000E+00 0. -1.
         25    2    1    2    0    0 -0.39362890961E+02 -0.29638601242E+02  0.24871615257E+02  0.13672549237E+03  0.12508948457E+03 0.  0.
          5    1    3    3  502    0  0.20460763977E+02  0.37646972958E+02 -0.62958716264E+00  0.43055849956E+02  0.41800000000E+01 0. -1.
         -5    1    3    3    0  502 -0.59823654938E+02 -0.67285574200E+02  0.25501202419E+02  0.93669642416E+02  0.41800000000E+01 0. -1.
        -11    1    1    2    0    0  0.26197189224E+02 -0.21368076522E+02  0.60021528245E+02  0.68887381068E+02  0.00000000000E+00 0. -1.
         11    1    1    2    0    0  0.13165701738E+02  0.51006677764E+02  0.10540256144E+02  0.53722563959E+02  0.00000000000E+00 0.  1.
</event>
<event>
 7    1  0.2732144E-009  0.1680040E+03  0.7561462E-02  0.1179945E+00
          2   -1    0    0  501    0  0.00000000000E+00  0.00000000000E+00  0.49604892118E+03  0.49604892118E+03  0.00000000000E+00 0. -1.
         -2   -1    0    0    0  501 -0.00000000000E+00 -0.00000000000E+00 -0.57332309809E+02  0.57332309809E+02  0.00000000000E+00 0.  1.
         25    2    1    2    0    0 -0.48854954001E+01 -0.12950490918E+03  0.25160889262E+03  0.30943998682E+03  0.12510268194E+03 0.  0.
          5    1    3    3  502    0  0.27945470886E+02  0.14801974542E+02  0.39534407050E+02  0.50798519016E+02  0.41800000000E+01 0. -1.
         -5    1    3    3    0  502 -0.32830966286E+02 -0.14430688372E+03  0.21207448557E+03  0.25864146780E+03  0.41800000000E+01 0. -1.
        -11    1    1    2    0    0 -0.53534062218E+01 -0.12544014446E+02  0.11482874903E+02  0.17828843840E+02  0.00000000000E+00 0. -1.
         11    1    1    2    0    0  0.10238901622E+02  0.14204892362E+03  0.17562484385E+03  0.22611240033E+03  0.00000000000E+00 0.  1.
</event>
<event>
 7    1  0.2732144E-009  0.9964527E+02  0.7561462E-02  0.1281044E+00
         -2   -1    0    0    0  501 -0.00000000000E+00  0.00000000000E+00  0.24450547892E+04  0.24450547892E+04  0.00000000000E+00 0.  1.
          2   -1    0    0  501    0  0.00000000000E+00 -0.00000000000E+00 -0.94598465475E+01  0.94598465475E+01  0.00000000000E+00 0. -1.
         25    2    1    2    0    0  0.28158014492E+02  0.11158526870E+02  0.21379177812E+04  0.21417884152E+04  0.12509112563E+03 0.  0.
          5    1    3    3  502    0  0.77680770294E+02  0.12538344899E+01  0.12318136549E+04  0.12342682962E+04  0.41800000000E+01 0.  1.
         -5    1    3    3    0  502 -0.49522755802E+02  0.99046923804E+01  0.90610412632E+03  0.90752011901E+03  0.41800000000E+01 0.  1.
        -11    1    1    2    0    0  0.10749967377E+02  0.18833260976E+02  0.16392570853E+02  0.27184000750E+02  0.00000000000E+00 0. -1.
         11    1    1    2    0    0 -0.38907981869E+02 -0.29991787846E+02  0.28128459057E+03  0.28554221979E+03  0.00000000000E+00 0.  1.
</event>
<event>
 7    1  0.2732144E-009  0.9705427E+02  0.7561462E-02  0.1286615E+00
         -2   -1    0    0    0  501 -0.00000000000E+00  0.00000000000E+00  0.66529275718E+02  0.66529275718E+02  0.00000000000E+00 0.  1.
          2   -1    0    0  501    0  0.00000000000E+00 -0.00000000000E+00 -0.17722950958E+03  0.17722950958E+03  0.00000000000E+00 0. -1.
         25    2    1    2    0    0 -0.16806709812E+02  0.66089665151E+01 -0.60365981838E+02  0.14006542752E+03  0.12509247895E+03 0.  0.
          5    1    3    3  502    0  0.44995041652E+02 -0.20806188113E+02 -0.63425937428E+00  0.49752647387E+02  0.41800000000E+01 0.  1.
         -5    1    3    3    0  502 -0.61801751464E+02  0.27415154628E+02 -0.59731722463E+02  0.90312780135E+02  0.41800000000E+01 0.  1.
        -11    1    1    2    0    0 -0.22924489434E+02  0.18639832796E+02 -0.48243036042E+02  0.56571778380E+02  0.00000000000E+00 0.  1.
         11    1    1    2    0    0  0.39731199246E+02 -0.25248799311E+02 -0.20912159788E+01  0.47121579393E+02  0.00000000000E+00 0. -1.
</event>
<event>
 7    1  0.2732144E-009  0.1270546E+03  0.7561462E-02  0.1231893E+00
         -1   -1    0    0    0  501 -0.00000000000E+00  0.00000000000E+00  0.19757242403E+03  0.19757242403E+03  0.00000000000E+00 0.  1.
          1   -1    0    0  501    0  0.00000000000E+00 -0.00000000000E+00 -0.13863263711E+03  0.13863263711E+03  0.00000000000E+00 0. -1.
         25    2    1    2    0    0  0.11872785045E+03 -0.15408962586E+02  0.60384611379E+02  0.18337100864E+03  0.12507952238E+03 0.  0.
          5    1    3    3  502    0  0.11140816813E+03 -0.93595422990E+01 -0.99081967212E+01  0.11231663154E+03  0.41800000000E+01 0. -1.
         -5    1    3    3    0  502  0.73196823247E+01 -0.60494202869E+01  0.70292808100E+02  0.71054377105E+02  0.41800000000E+01 0. -1.
        -11    1    1    2    0    0 -0.97308231743E+02  0.34419227711E+02  0.32696860361E+02  0.10827123292E+03  0.00000000000E+00 0.  1.
         11    1    1    2    0    0 -0.21419618710E+02 -0.19010265126E+02 -0.34141684824E+02  0.44562819575E+02  0.00000000000E+00 0. -1.
</event>
<event>
 7    1  0.2952762E-009  0.4244902E+02  0.7561462E-02  0.1490926E+00
          1   -1    0    0  501    0  0.00000000000E+00  0.00000000000E+00  0.66936380489E+02  0.66936380489E+02  0.00000000000E+00 0. -1.
         -1   -1    0    0    0  501 -0.00000000000E+00 -0.00000000000E+00 -0.18289069491E+03  0.18289069491E+03  0.00000000000E+00 0.  1.
         25    2    1    2    0    0  0.36088029843E+01  0.80363882290E+01 -0.93134793153E+02  0.15620770208E+03  0.12509656070E+03 0.  0.
          5    1    3    3  502    0  0.38452574165E+01  0.16612537546E+02  0.28892141977E+02  0.33808145119E+02  0.41800000000E+01 0. -1.
         -5    1    3    3    0  502 -0.23645443213E+00 -0.85761493172E+01 -0.12202693513E+03  0.12239955696E+03  0.41800000000E+01 0. -1.
        -11    1    1    2    0    0  0.26328506670E+02 -0.90582551062E+01 -0.47331553952E+02  0.54913734608E+02  0.00000000000E+00 0.  1.
         11    1    1    2    0    0 -0.29937309654E+02  0.10218668772E+01  0.24512032686E+02  0.38705638706E+02  0.00000000000E+00 0. -1.
</event>
<event>
 7    1  0.2732144E-009  0.1527952E+03  0.7561462E-02  0.1197080E+00
          2   -1    0    0  501    0  0.00000000000E+00  0.00000000000E+00  0.11964687201E+03  0.11964687201E+03  0.00000000000E+00 0. -1.
         -2   -1    0    0    0  501 -0.00000000000E+00 -0.00000000000E+00 -0.23278762955E+03  0.23278762955E+03  0.00000000000E+00 0.  1.
         25    2    1    2    0    0  0.82669046668E+02  0.81491706439E+02 -0.74153338345E+01  0.17081538181E+03  0.12509131860E+03 0.  0.
          5    1    3    3  502    0  0.11267322578E+03  0.57630203769E+02  0.12807983944E+02  0.12727141488E+03  0.41800000000E+01 0.  1.
         -5    1    3    3    0  502 -0.30004179107E+02  0.23861502670E+02 -0.20223317778E+02  0.43543966925E+02  0.41800000000E+01 0.  1.
        -11    1    1    2    0    0  0.13929977034E+02  0.13978689740E+00  0.36627548320E+01  0.14404151260E+02  0.00000000000E+00 0. -1.
         11    1    1    2    0    0 -0.96599023703E+02 -0.81631493336E+02 -0.10938817854E+03  0.16721496850E+03  0.00000000000E+00 0.  1.
</event>
<event>
 7    1  0.2732144E-009  0.1147004E+03  0.7561462E-02  0.1252105E+00
          1   -1    0    0  501    0  0.00000000000E+00  0.00000000000E+00  0.59558162515E+03  0.59558162515E+03  0.00000000000E+00 0. -1.
         -1   -1    0    0    0  501 -0.00000000000E+00 -0.00000000000E+00 -0.27185918433E+02  0.27185918433E+02  0.00000000000E+00 0.  1.
         25    2    1    2    0    0 -0.49081154238E+02  0.26669590743E+02  0.41304201995E+03  0.43516786005E+03  0.12508848630E+03 0.  0.
          5    1    3    3  502    0 -0.90606067469E+02  0.18328292097E+02  0.24720899337E+03  0.26396049810E+03  0.41800000000E+01 0.  1.
         -5    1    3    3    0  502  0.41524913231E+02  0.83412986457E+01  0.16583302658E+03  0.17120736196E+03  0.41800000000E+01 0.  1.
        -11    1    1    2    0    0  0.23086025735E-02 -0.42680439732E+02  0.30395714288E+02  0.52397704035E+02  0.00000000000E+00 0.  1.
         11    1    1    2    0    0  0.49078845635E+02  0.16010848990E+02  0.12495797248E+03  0.13520197950E+03  0.00000000000E+00 0. -1.
</event>
<event>
 7    1  0.2732144E-009  0.8641527E+02  0.7561462E-02  0.1311772E+00
          1   -1    0    0  501    0  0.00000000000E+00  0.00000000000E+00  0.38203145185E+03  0.38203145185E+03  0.00000000000E+00 0. -1.
         -1   -1    0    0    0  501 -0.00000000000E+00 -0.00000000000E+00 -0.43136104466E+02  0.43136104466E+02  0.00000000000E+00 0.  1.
         25    2    1    2    0    0  0.57032257728E+02  0.18149671872E+01  0.12602591804E+03  0.18651065159E+03  0.12509084143E+03 0.  0.
          5    1    3    3  502    0  0.35600579504E+02 -0.15807236917E+02  0.14658229324E+03  0.15172709412E+03  0.41800000000E+01 0. -1.
         -5    1    3    3    0  502  0.21431678224E+02  0.17622204104E+02 -0.20556375195E+02  0.34783557468E+02  0.41800000000E+01 0. -1.
        -11    1    1    2    0    0 -0.70965398230E+02  0.25111689886E+02  0.17216057587E+03  0.18789877222E+03  0.00000000000E+00 0.  1.
         11    1    1    2    0    0  0.13933140502E+02 -0.26926657073E+02  0.40708853469E+02  0.50758132513E+02  0.00000000000E+00 0. -1.
</event>
<event>
 7    1  0.2732144E-009  0.1022988E+03  0.7561462E-02  0.1275535E+00
          1   -1    0    0  501    0  0.00000000000E+00  0.00000000000E+00  0.13240159244E+04  0.13240159244E+04  0.00000000000E+00 0. -1.
         -1   -1    0    0    0  501 -0.00000000000E+00 -0.00000000000E+00 -0.14895957617E+02  0.14895957617E+02  0.00000000000E+00 0.  1.
         25    2    1    2    0    0  0.21588872981E+02 -0.12249029932E+02  0.11352955345E+04  0.11424374642E+04  0.12510511886E+03 0.  0.
          5    1    3    3  502    0  0.60388932331E+02  0.22728407653E+02  0.84339761213E+03  0.84587257209E+03  0.41800000000E+01 0.  1.
         -5    1    3    3    0  502 -0.38800059350E+02 -0.34977437585E+02  0.29189792236E+03  0.29656489209E+03  0.41800000000E+01 0.  1.
        -11    1    1    2    0    0  0.20713137966E+02  0.34116895011E+02  0.10870803811E+03  0.11580342896E+03  0.00000000000E+00 0.  1.
         11    1    1    2    0    0 -0.42302010947E+02 -0.21867865079E+02  0.65116394157E+02  0.80670988845E+02  0.00000000000E+00 0. -1.
</event>
<event>
 7    1  0.2732144E-009  0.1225560E+03  0.7561462E-02  0.1238939E+00
         -1   -1    0    0    0  501 -0.00000000000E+00  0.00000000000E+00  0.41101394327E+02  0.41101394327E+02  0.00000000000E+00 0.  1.
          1   -1    0    0  501    0  0.00000000000E+00 -0.00000000000E+00 -0.82124810161E+03  0.82124810161E+03  0.00000000000E+00 0. -1.
         25    2    1    2    0    0 -0.11189747722E+02  0.65730500999E+02 -0.71851502973E+03  0.73236441316E+03  0.12509227195E+03 0.  0.
          5    1    3    3  502    0 -0.36346458106E+02  0.93759781150E+02 -0.44517299216E+03  0.45640818017E+03  0.41800000000E+01 0.  1.
         -5    1    3    3    0  502  0.25156710384E+02 -0.28029280151E+02 -0.27334203756E+03  0.27595623298E+03  0.41800000000E+01 0.  1.
        -11    1    1    2    0    0  0.93250896069E+01 -0.85856069508E+02 -0.66732528696E+02  0.10913960030E+03  0.00000000000E+00 0. -1.
         11    1    1    2    0    0  0.18646581146E+01  0.20125568509E+02  0.51008511356E+01  0.20845482484E+02  0.00000000000E+00 0.  1.
</event>
<event>
 7    1  0.2732144E-009  0.1551116E+03  0.7561462E-02  0.1194329E+00
         -2   -1    0    0    0  501 -0.00000000000E+00  0.00000000000E+00  0.29444537985E+03  0.29444537985E+03  0.00000000000E+00 0.  1.
          2   -1    0    0  501    0  0.00000000000E+00 -0.00000000000E+00 -0.99937500342E+02  0.99937500342E+02  0.00000000000E+00 0. -1.
         25    2    1    2    0    0  0.40250964781E+02  0.12518820851E+03  0.12189888716E+03  0.21863491046E+03  0.12509859179E+03 0.  0.
          5    1    3    3  502    0 -0.34427868932E+02  0.86422735120E+02  0.87029983534E+02  0.12745923952E+03  0.41800000000E+01 0.  1.
         -5    1    3    3    0  502  0.74678833713E+02  0.38765473386E+02  0.34868903622E+02  0.91175670940E+02  0.41800000000E+01 0.  1.
        -11    1    1    2    0    0 -0.10669229474E+02 -0.64114327623E+02  0.84756004147E+02  0.10680851887E+03  0.00000000000E+00 0.  1.
         11    1    1    2    0    0 -0.29581735307E+02 -0.61073880883E+02 -0.12147011794E+02  0.68939450864E+02  0.00000000000E+00 0. -1.
</event>
<event>
 7    1  0.2732144E-009  0.1176765E+03  0.7561462E-02  0.1246980E+00
          2   -1    0    0  501    0  0.00000000000E+00  0.00000000000E+00  0.17411776774E+03  0.17411776774E+03  0.00000000000E+00 0. -1.
         -2   -1    0    0    0  501 -0.00000000000E+00 -0.00000000000E+00 -0.14852466072E+03  0.14852466072E+03  0.00000000000E+00 0.  1.
         25    2    1    2    0    0  0.36097906423E+02  0.53204574163E+02 -0.83290798684E+02  0.16346023011E+03  0.12509238235E+03 0.  0.
          5    1    3    3  502    0 -0.24513050199E+02  0.52934329898E+02  0.22634881897E+01  0.58528016288E+02  0.41800000000E+01 0.  1.
         -5    1    3    3    0  502  0.60610956622E+02  0.27024426433E+00 -0.85554286873E+02  0.10493221382E+03  0.41800000000E+01 0.  1.
        -11    1    1    2    0    0 -0.65957053630E+02 -0.55451679621E+02  0.81392459442E+02  0.11853250251E+03  0.00000000000E+00 0. -1.
         11    1    1    2    0    0  0.29859147207E+02  0.22471054589E+01  0.27491446259E+02  0.40649695845E+02  0.00000000000E+00 0.  1.
</event>
<event>
 7    1  0.2732144E-009  0.8134215E+02  0.7561462E-02  0.1325285E+00
         -2   -1    0    0    0  501 -0.00000000000E+00  0.00000000000E+00  0.69654095734E+02  0.69654095734E+02  0.00000000000E+00 0.  1.
          2   -1    0    0  501    0  0.00000000000E+00 -0.00000000000E+00 -0.18136125072E+03  0.18136125072E+03  0.00000000000E+00 0. -1.
         25    2    1    2    0    0 -0.28751565337E+02  0.78265876916E+01 -0.50677055814E+02  0.13821338141E+03  0.12508743675E+03 0.  0.
          5    1    3    3  502    0  0.16796384901E+02  0.20817089257E+02  0.32564795001E+02  0.42348648436E+02  0.41800000000E+01 0.  1.
         -5    1    3    3    0  502 -0.45547950238E+02 -0.12990501565E+02 -0.83241850815E+02  0.95864732978E+02  0.41800000000E+01 0.  1.
        -11    1    1    2    0    0 -0.78509305375E+01 -0.39124214058E+02 -0.48944221852E+02  0.63149648366E+02  0.00000000000E+00 0. -1.
         11    1    1    2    0    0  0.36602495875E+02  0.31297626367E+02 -0.12085877319E+02  0.49652316673E+02  0.00000000000E+00 0.  1.
</event>
<event>
 7    1  0.2732144E-009  0.1321956E+03  0.7561462E-02  0.1224234E+00
         -1   -1    0    0    0  501 -0.00000000000E+00  0.00000000000E+00  0.61825108637E+02  0.61825108637E+02  0.00000000000E+00 0.  1.
          1   -1    0    0  501    0  0.00000000000E+00 -0.00000000000E+00 -0.48086011572E+03  0.48086011572E+03  0.00000000000E+00 0. -1.
         25    2    1    2    0    0  0.11279479976E+03  0.34346011398E+02 -0.32412472614E+03  0.36688625563E+03  0.12508545526E+03 0.  0.
          5    1    3    3  502    0  0.99737722247E+02  0.43526286098E+02 -0.11981456455E+03  0.16191094188E+03  0.41800000000E+01 0. -1.
         -5    1    3    3    0  502  0.13057077513E+02 -0.91802747005E+01 -0.20431016159E+03  0.20497531375E+03  0.41800000000E+01 0. -1.
        -11    1    1    2    0    0 -0.81099634710E+02  0.12877638757E+02 -0.84783090645E+02  0.11803032148E+03  0.00000000000E+00 0. -1.
         11    1    1    2    0    0 -0.31695165050E+02 -0.47223650155E+02 -0.10127190292E+02  0.57768647247E+02  0.00000000000E+00 0.  1.
</event>
<event>
 7    1  0.2732144E-009  0.1030561E+03  0.7561462E-02  0.1273998E+00
         -4   -1    0    0    0  501 -0.00000000000E+00  0.00000000000E+00  0.45719597796E+02  0.45719597796E+02  0.00000000000E+00 0.  1.
          4   -1    0    0  501    0  0.00000000000E+00 -0.00000000000E+00 -0.30687667476E+03  0.30687667476E+03  0.00000000000E+00 0. -1.
         25    2    1    2    0    0  0.28065463158E+02 -0.31886883354E+02 -0.14958729409E+03  0.19957062121E+03  0.12509049023E+03 0.  0.
          5    1    3    3  502    0 -0.30297864949E+02 -0.30495915666E+02 -0.13134538957E+03  0.13826440343E+03  0.41800000000E+01 0.  1.
         -5    1    3    3    0  502  0.58363328107E+02 -0.13909676884E+01 -0.18241904521E+02  0.61306217788E+02  0.41800000000E+01 0.  1.
        -11    1    1    2    0    0  0.25046311453E+02 -0.18534484049E+02 -0.27796868905E+02  0.41755367766E+02  0.00000000000E+00 0.  1.
         11    1    1    2    0    0 -0.53111774611E+02  0.50421367403E+02 -0.83772913966E+02  0.11127028358E+03  0.00000000000E+00 0. -1.
</event>
<event>
 7    1  0.2732144E-009  0.9978925E+02  0.7561462E-02  0.1280740E+00
          2   -1    0    0  501    0  0.00000000000E+00  0.00000000000E+00  0.10672354645E+03  0.10672354645E+03  0.00000000000E+00 0. -1.
         -2   -1    0    0    0  501 -0.00000000000E+00 -0.00000000000E+00 -0.11068724965E+03  0.11068724965E+03  0.00000000000E+00 0.  1.
         25    2    1    2    0    0  0.20082501861E+02  0.34947481785E+01 -0.17002570633E+01  0.12675115317E+03  0.12508974302E+03 0.  0.
          5    1    3    3  502    0  0.39279345991E+02 -0.51785060584E+02  0.12664779435E+02  0.66350799236E+02  0.41800000000E+01 0.  1.
         -5    1    3    3    0  502 -0.19196844130E+02  0.55279808762E+02 -0.14365036499E+02  0.60400353931E+02  0.41800000000E+01 0.  1.
        -11    1    1    2    0    0  0.20386836400E+02 -0.23102178699E+02 -0.25542924920E+02  0.40022178508E+02  0.00000000000E+00 0.  1.
         11    1    1    2    0    0 -0.40469338261E+02  0.19607430520E+02  0.23279478788E+02  0.50637464426E+02  0.00000000000E+00 0. -1.
</event>
<event>
 7    1  0.2732144E-009  0.1044333E+03  0.7561462E-02  0.1271240E+00
         -2   -1    0    0    0  501 -0.00000000000E+00  0.00000000000E+00  0.36909801939E+02  0.36909801939E+02  0.00000000000E+00 0.  1.
          2   -1    0    0  501    0  0.00000000000E+00 -0.00000000000E+00 -0.45196494181E+03  0.45196494181E+03  0.00000000000E+00 0. -1.
         25    2    1    2    0    0 -0.35654997181E+02 -0.15413995406E+02 -0.12355827776E+03  0.18006431893E+03  0.12509053069E+03 0.  0.
          5    1    3    3  502    0  0.35648734065E+02 -0.23552258583E+02 -0.75520621273E+01  0.43589530476E+02  0.41800000000E+01 0.  1.
         -5    1    3    3    0  502 -0.71303731246E+02  0.81382631767E+01 -0.11600621563E+03  0.13647478845E+03  0.41800000000E+01 0.  1.
        -11    1    1    2    0    0  0.32906457342E+02  0.49724862711E+02 -0.12124428480E+03  0.13511318775E+03  0.00000000000E+00 0.  1.
         11    1    1    2    0    0  0.27485398386E+01 -0.34310867305E+02 -0.17025257731E+03  0.17369723707E+03  0.00000000000E+00 0. -1.
</event>
<event>
 7    1  0.2732144E-009  0.2055626E+03  0.7561462E-02  0.1145129E+00
          1   -1    0    0  501    0  0.00000000000E+00  0.00000000000E+00  0.15827688737E+03  0.15827688737E+03  0.00000000000E+00 0. -1.
         -1   -1    0    0    0  501 -0.00000000000E+00 -0.00000000000E+00 -0.30367897422E+03  0.30367897422E+03  0.00000000000E+00 0.  1.
         25    2    1    2    0    0 -0.18861561577E+03 -0.15366518370E+02 -0.61889043482E+02  0.23513934531E+03  0.12509307579E+03 0.  0.
          5    1    3    3  502    0 -0.82564582358E+02  0.48312912105E+02 -0.56653839585E+02  0.11125725898E+03  0.41800000000E+01 0.  1.
         -5    1    3    3    0  502 -0.10605103342E+03 -0.63679430475E+02 -0.52352038970E+01  0.12388208633E+03  0.41800000000E+01 0.  1.
        -11    1    1    2    0    0  0.17220524574E+03  0.22572971893E+02 -0.10171523798E+03  0.20127139727E+03  0.00000000000E+00 0.  1.
         11    1    1    2    0    0  0.16410370034E+02 -0.72064535233E+01  0.18202194604E+02  0.25545119014E+02  0.00000000000E+00 0. -1.
</event>
<event>
 7    1  0.2732144E-009  0.2251905E+03  0.7561462E-02  0.1130071E+00
          2   -1    0    0  501    0  0.00000000000E+00  0.00000000000E+00  0.53572590826E+03  0.53572590826E+03  0.00000000000E+00 0. -1.
         -2   -1    0    0    0  501 -0.00000000000E+00 -0.00000000000E+00 -0.10660992888E+03  0.10660992888E+03  0.00000000000E+00 0.  1.
         25    2    1    2    0    0 -0.20844762200E+03 -0.20807811230E+02  0.17043017940E+03  0.29761382923E+03  0.12507665318E+03 0.  0.
          5    1    3    3  502    0  0.14186063860E+02  0.68278314000E+01  0.76421085565E+00  0.16307056991E+02  0.41800000000E+01 0. -1.
         -5    1    3    3    0  502 -0.22263368586E+03 -0.27635642630E+02  0.16966596854E+03  0.28130677224E+03  0.41800000000E+01 0. -1.
        -11    1    1    2    0    0  0.10107759942E+03  0.14989334669E+02  0.59177527715E+02  0.11808192514E+03  0.00000000000E+00 0.  1.
         11    1    1    2    0    0  0.10737002258E+03  0.58184765607E+01  0.19950827227E+03  0.22664008278E+03  0.00000000000E+00 0. -1.
</event>
<event>
 7    1  0.2732144E-009  0.1039769E+03  0.7561462E-02  0.1272149E+00
         -1   -1    0    0    0  501 -0.00000000000E+00  0.00000000000E+00  0.17607489934E+03  0.17607489934E+03  0.00000000000E+00 0.  1.
          1   -1    0    0  501    0  0.00000000000E+00 -0.00000000000E+00 -0.77947561236E+02  0.77947561236E+02  0.00000000000E+00 0. -1.
         25    2    1    2    0    0  0.25620783876E+02  0.15603441368E+02  0.86702964181E+02  0.15512722792E+03  0.12508861217E+03 0.  0.
          5    1    3    3  502    0  0.63559979346E+02 -0.10433288119E+02  0.87725206683E+02  0.10891239031E+03  0.41800000000E+01 0. -1.
         -5    1    3    3    0  502 -0.37939195470E+02  0.26036729487E+02 -0.10222425025E+01  0.46214837607E+02  0.41800000000E+01 0. -1.
        -11    1    1    2    0    0 -0.48633161713E+02 -0.40509334318E+02  0.14214143200E+02  0.64870890637E+02  0.00000000000E+00 0.  1.
         11    1    1    2    0    0  0.23012377837E+02  0.24905892950E+02 -0.27897692780E+01  0.34024342021E+02  0.00000000000E+00 0. -1.
</event>
<event>
 7    1  0.4208387E-009  0.1012637E+03  0.7561462E-02  0.1277661E+00
         -1   -1    0    0    0  501 -0.00000000000E+00  0.00000000000E+00  0.62805503268E+02  0.62805503268E+02  0.00000000000E+00 0.  1.
          1   -1    0    0  501    0  0.00000000000E+00 -0.00000000000E+00 -0.21696056380E+03  0.21696056380E+03  0.00000000000E+00 0. -1.
         25    2    1    2    0    0  0.15531010111E+02  0.10745805391E+02 -0.39390818102E+02  0.13249552159E+03  0.12508693810E+03 0.  0.
          5    1    3    3  502    0  0.66543544092E+02 -0.15405990836E+02 -0.14995503299E+02  0.70055159219E+02  0.41800000000E+01 0.  1.
         -5    1    3    3    0  502 -0.51012533981E+02  0.26151796227E+02 -0.24395314803E+02  0.62440362374E+02  0.41800000000E+01 0.  1.
        -11    1    1    2    0    0  0.29462187822E+02 -0.11478636422E+02 -0.98578943098E+01  0.33120351532E+02  0.00000000000E+00 0.  1.
         11    1    1    2    0    0 -0.44993197934E+02  0.73283103058E+00 -0.10490634812E+03  0.11415019395E+03  0.00000000000E+00 0. -1.
</event>
<event>
 7    1  0.2732144E-009  0.1068087E+03  0.7561462E-02  0.1266596E+00
         -1   -1    0    0    0  501 -0.00000000000E+00  0.00000000000E+00  0.36081819162E+02  0.36081819162E+02  0.00000000000E+00 0.  1.
          1   -1    0    0  501    0  0.00000000000E+00 -0.00000000000E+00 -0.58990832481E+03  0.58990832481E+03  0.00000000000E+00 0. -1.
         25    2    1    2    0    0  0.11785194004E+02  0.30943907368E+02 -0.49811357832E+03  0.51464766544E+03  0.12509462995E+03 0.  0.
          5    1    3    3  502    0 -0.64883441287E+00 -0.48113808390E+02 -0.15783467405E+03  0.16505943256E+03  0.41800000000E+01 0.  1.
         -5    1    3    3    0  502  0.12434028417E+02  0.79057715758E+02 -0.34027890426E+03  0.34958823288E+03  0.41800000000E+01 0.  1.
        -11    1    1    2    0    0 -0.27751485470E+02  0.18412882065E+02  0.24654262174E+01  0.33395471223E+02  0.00000000000E+00 0.  1.
         11    1    1    2    0    0  0.15966291466E+02 -0.49356789433E+02 -0.58178353547E+02  0.77947007305E+02  0.00000000000E+00 0. -1.
</event>
<event>
 7    1  0.2732144E-009  0.1541082E+03  0.7561462E-02  0.1195514E+00
         -2   -1    0    0    0  501 -0.00000000000E+00  0.00000000000E+00  0.18294397855E+03  0.18294397855E+03  0.00000000000E+00 0.  1.
          2   -1    0    0  501    0  0.00000000000E+00 -0.00000000000E+00 -0.24504653095E+03  0.24504653095E+03  0.00000000000E+00 0. -1.
         25    2    1    2    0    0 -0.12088089949E+03 -0.61945372442E+02  0.89840586449E+02  0.20534853054E+03  0.12508903625E+03 0.  0.
          5    1    3    3  502    0 -0.94172838083E+02 -0.87927482323E+02  0.10363069757E+03  0.16539818457E+03  0.41800000000E+01 0.  1.
         -5    1    3    3    0  502 -0.26708061411E+02  0.25982109880E+02 -0.13790111120E+02  0.39950345967E+02  0.41800000000E+01 0.  1.
        -11    1    1    2    0    0  0.42727230200E+02  0.44589107280E+02 -0.12278303733E+03  0.13743900082E+03  0.00000000000E+00 0.  1.
         11    1    1    2    0    0  0.78153669294E+02  0.17356265162E+02 -0.29160101519E+02  0.85202978147E+02  0.00000000000E+00 0. -1.
</event>
<event>
 7    1  0.2732144E-009  0.1488008E+03  0.7561462E-02  0.1201954E+00
         -2   -1    0    0    0  501 -0.00000000000E+00  0.00000000000E+00  0.12422793801E+02  0.12422793801E+02  0.00000000000E+00 0.  1.
          2   -1    0    0  501    0  0.00000000000E+00 -0.00000000000E+00 -0.22193184186E+04  0.22193184186E+04  0.00000000000E+00 0. -1.
         25    2    1    2    0    0 -0.29230341172E+02  0.10682230629E+03 -0.15620984739E+04  0.15710068991E+04  0.12508244047E+03 0.  0.
          5    1    3    3  502    0 -0.59414678473E+02  0.21774143841E+02 -0.36200547482E+03  0.36751823568E+03  0.41800000000E+01 0.  1.
         -5    1    3    3    0  502  0.30184337301E+02  0.85048162450E+02 -0.12000929991E+04  0.12034886635E+04  0.41800000000E+01 0.  1.
        -11    1    1    2    0    0  0.62739181470E+02 -0.66764739035E+02 -0.38648377172E+03  0.39719446254E+03  0.00000000000E+00 0. -1.
         11    1    1    2    0    0 -0.33508840298E+02 -0.40057567256E+02 -0.25831337917E+03  0.26353985075E+03  0.00000000000E+00 0.  1.
</event>
<event>
 7    1  0.2732144E-009  0.1018273E+03  0.7561462E-02  0.1276500E+00
         -2   -1    0    0    0  501 -0.00000000000E+00  0.00000000000E+00  0.80227741947E+03  0.80227741947E+03  0.00000000000E+00 0.  1.
          2   -1    0    0  501    0  0.00000000000E+00 -0.00000000000E+00 -0.16694902514E+02  0.16694902514E+02  0.00000000000E+00 0. -1.
         25    2    1    2    0    0 -0.30630667074E+02  0.12846553552E+02  0.51910468939E+03  0.53499136915E+03  0.12507123897E+03 0.  0.
          5    1    3    3  502    0 -0.47039699862E+02  0.50112629317E+02  0.16881724572E+03  0.18232044272E+03  0.41800000000E+01 0. -1.
         -5    1    3    3    0  502  0.16409032788E+02 -0.37266075765E+02  0.35028744367E+03  0.35267092643E+03  0.41800000000E+01 0. -1.
        -11    1    1    2    0    0 -0.29157336498E+02  0.85129419653E+01  0.51156205407E+02  0.59494351028E+02  0.00000000000E+00 0. -1.
         11    1    1    2    0    0  0.59788003572E+02 -0.21359495517E+02  0.21532162216E+03  0.22448660181E+03  0.00000000000E+00 0.  1.
</event>
<event>
 7    1  0.2732144E-009  0.1216460E+03  0.7561462E-02  0.1240406E+00
         -2   -1    0    0    0  501 -0.00000000000E+00  0.00000000000E+00  0.67418221208E+02  0.67418221208E+02  0.00000000000E+00 0.  1.
          2   -1    0    0  501    0  0.00000000000E+00 -0.00000000000E+00 -0.24501910486E+03  0.24501910486E+03  0.00000000000E+00 0. -1.
         25    2    1    2    0    0  0.25841699279E+02  0.59504468211E+02 -0.70591932870E+02  0.15760539638E+03  0.12509062644E+03 0.  0.
          5    1    3    3  502    0  0.70777991911E+02  0.45422299382E+02 -0.71282609866E+02  0.11032403314E+03  0.41800000000E+01 0. -1.
         -5    1    3    3    0  502 -0.44936292632E+02  0.14082168829E+02  0.69067699588E+00  0.47281363233E+02  0.41800000000E+01 0. -1.
        -11    1    1    2    0    0 -0.54493840831E+02 -0.62597279034E+02 -0.76682297993E+02  0.11299634001E+03  0.00000000000E+00 0. -1.
         11    1    1    2    0    0  0.28652141552E+02  0.30928108230E+01 -0.30326652789E+02  0.41835589678E+02  0.00000000000E+00 0.  1.
</event>
<event>
 7    1  0.2732144E-009  0.1207955E+03  0.7561462E-02  0.1241791E+00
         -2   -1    0    0    0  501 -0.00000000000E+00  0.00000000000E+00  0.16194150422E+03  0.16194150422E+03  0.00000000000E+00 0.  1.
          2   -1    0    0  501    0  0.00000000000E+00 -0.00000000000E+00 -0.10689453611E+03  0.10689453611E+03  0.00000000000E+00 0. -1.
         25    2    1    2    0    0 -0.19335134329E+02 -0.60489666973E+02  0.71842102608E+02  0.15760845911E+03  0.12508513679E+03 0.  0.
          5    1    3    3  502    0  0.28124280747E+02 -0.82413756350E+02  0.37398078663E+02  0.94863539313E+02  0.41800000000E+01 0. -1.
         -5    1    3    3    0  502 -0.47459415077E+02  0.21924089377E+02  0.34444023945E+02  0.62744919794E+02  0.41800000000E+01 0. -1.
        -11    1    1    2    0    0  0.29381469725E+02  0.77124502296E+02 -0.29908704020E+02  0.87783769535E+02  0.00000000000E+00 0. -1.
         11    1    1    2    0    0 -0.10046335396E+02 -0.16634835323E+02  0.13113569512E+02  0.23443811688E+02  0.00000000000E+00 0.  1.
</event>
<event>
 7    1  0.2732144E-009  0.1031770E+03  0.7561462E-02  0.1273754E+00
          1   -1    0    0  501    0  0.00000000000E+00  0.00000000000E+00  0.36851170310E+03  0.36851170310E+03  0.00000000000E+00 0. -1.
         -1   -1    0    0    0  501 -0.00000000000E+00 -0.00000000000E+00 -0.41817889447E+02  0.41817889447E+02  0.00000000000E+00 0.  1.
         25    2    1    2    0    0  0.11646804454E+00 -0.49590336211E+02  0.13414834089E+03  0.19000744458E+03  0.12509131315E+03 0.  0.
          5    1    3    3  502    0  0.17740233059E+02 -0.69914766681E+02  0.23376040593E+02  0.75938805250E+02  0.41800000000E+01 0. -1.
         -5    1    3    3    0  502 -0.17623765014E+02  0.20324430469E+02  0.11077230029E+03  0.11406863933E+03  0.41800000000E+01 0. -1.
        -11    1    1    2    0    0 -0.47358200428E+02  0.22663915088E+02  0.87685574951E+02  0.10220182116E+03  0.00000000000E+00 0.  1.
         11    1    1    2    0    0  0.47241732383E+02  0.26926421123E+02  0.10485989781E+03  0.11812032680E+03  0.00000000000E+00 0. -1.
</event>
<event>
 7    1  0.2732144E-009  0.1014552E+03  0.7561462E-02  0.1277265E+00
         -1   -1    0    0    0  501 -0.00000000000E+00  0.00000000000E+00  0.37887596547E+03  0.37887596547E+03  0.00000000000E+00 0.  1.
          1   -1    0    0  501    0  0.00000000000E+00 -0.00000000000E+00 -0.38009901267E+02  0.38009901267E+02  0.00000000000E+00 0. -1.
         25    2    1    2    0    0 -0.50925294322E+02  0.62518057979E+01  0.20208134091E+03  0.24314280038E+03  0.12509629234E+03 0.  0.
          5    1    3    3  502    0  0.20913392148E+02  0.36822499720E+02  0.24475668550E+02  0.49089685350E+02  0.41800000000E+01 0.  1.
         -5    1    3    3    0  502 -0.71838686470E+02 -0.30570693922E+02  0.17760567236E+03  0.19405311503E+03  0.41800000000E+01 0.  1.
        -11    1    1    2    0    0 -0.12611038448E+02  0.10561808287E+02  0.91024649744E+02  0.92499064568E+02  0.00000000000E+00 0.  1.
         11    1    1    2    0    0  0.63536332770E+02 -0.16813614085E+02  0.47760073549E+02  0.81244001784E+02  0.00000000000E+00 0. -1.
</event>
<event>
 7    1  0.2732144E-009  0.1002051E+03  0.7561462E-02  0.1279865E+00
          3   -1    0    0  501    0  0.00000000000E+00  0.00000000000E+00  0.17811073932E+03  0.17811073932E+03  0.00000000000E+00 0. -1.
         -3   -1    0    0    0  501 -0.00000000000E+00 -0.00000000000E+00 -0.73867769807E+02  0.73867769807E+02  0.00000000000E+00 0.  1.
         25    2    1    2    0    0 -0.81883762694E+01  0.23589426668E+02  0.89265186788E+02  0.15569318878E+03  0.12509430404E+03 0.  0.
          5    1    3    3  502    0 -0.13603652293E+02 -0.43182372069E+02  0.18811738100E+01  0.45505909815E+02  0.41800000000E+01 0.  1.
         -5    1    3    3    0  502  0.54152760235E+01  0.66771798736E+02  0.87384012978E+02  0.11018727896E+03  0.41800000000E+01 0.  1.
        -11    1    1    2    0    0 -0.13530969186E+02 -0.51048558585E+02  0.26942362750E+02  0.59286873516E+02  0.00000000000E+00 0.  1.
         11    1    1    2    0    0  0.21719345456E+02  0.27459131918E+02 -0.11964580027E+02  0.36998446831E+02  0.00000000000E+00 0. -1.
</event>
<event>
 7    1  0.2732144E-009  0.1198610E+03  0.7561462E-02  0.1243327E+00
         -1   -1    0    0    0  501 -0.00000000000E+00  0.00000000000E+00  0.23002844972E+02  0.23002844972E+02  0.00000000000E+00 0.  1.
          1   -1    0    0  501    0  0.00000000000E+00 -0.00000000000E+00 -0.96891939896E+03  0.96891939896E+03  0.00000000000E+00 0. -1.
         25    2    1    2    0    0  0.96082280873E+02  0.44902527951E+02 -0.45108735736E+03  0.47997518903E+03  0.12509331076E+03 0.  0.
          5    1    3    3  502    0  0.51294624610E+02 -0.16405856287E+01 -0.38141816733E+03  0.38487805966E+03  0.41800000000E+01 0. -1.
         -5    1    3    3    0  502  0.44787656264E+02  0.46543113580E+02 -0.69669190034E+02  0.95097129375E+02  0.41800000000E+01 0. -1.
        -11    1    1    2    0    0 -0.31608401593E+02 -0.49647361941E+02 -0.15044888515E+03  0.16155128796E+03  0.00000000000E+00 0.  1.
         11    1    1    2    0    0 -0.64473879281E+02  0.47448339898E+01 -0.34438031147E+03  0.35039576694E+03  0.00000000000E+00 0. -1.
</event>
<event>
 7    1  0.2732144E-009  0.9326497E+02  0.7561462E-02  0.1295132E+00
         -1   -1    0    0    0  501 -0.00000000000E+00  0.00000000000E+00  0.33863072629E+03  0.33863072629E+03  0.00000000000E+00 0.  1.
          1   -1    0    0  501    0  0.00000000000E+00 -0.00000000000E+00 -0.65907384819E+02  0.65907384819E+02  0.00000000000E+00 0. -1.
         25    2    1    2    0    0 -0.78869261441E+02 -0.74690737842E+01  0.23910930787E+03  0.28124392441E+03  0.12509490975E+03 0.  0.
          5    1    3    3  502    0 -0.16835699147E+02  0.24866295991E+02 -0.17765118808E+01  0.30371069072E+02  0.41800000000E+01 0.  1.
         -5    1    3    3    0  502 -0.62033562295E+02 -0.32335369776E+02  0.24088581975E+03  0.25087285534E+03  0.41800000000E+01 0.  1.
        -11    1    1    2    0    0  0.30661882395E+02 -0.13572352664E+02  0.56683035134E+02  0.65858380339E+02  0.00000000000E+00 0.  1.
         11    1    1    2    0    0  0.48207379046E+02  0.21041426449E+02 -0.23069001525E+02  0.57435806366E+02  0.00000000000E+00 0. -1.
</event>
<event>
 7    1  0.2732144E-009  0.1072645E+03  0.7561462E-02  0.1265721E+00
         -2   -1    0    0    0  501 -0.00000000000E+00  0.00000000000E+00  0.29568296985E+03  0.29568296985E+03  0.00000000000E+00 0.  1.
          2   -1    0    0  501    0  0.00000000000E+00 -0.00000000000E+00 -0.70186210539E+02  0.70186210539E+02  0.00000000000E+00 0. -1.
         25    2    1    2    0    0  0.36612676298E+02  0.67169572265E+02  0.19664179094E+03  0.24529045037E+03  0.12508865493E+03 0.  0.
          5    1    3    3  502    0 -0.19493651287E+02  0.20588701292E+02 -0.65246393703E+01  0.29392862744E+02  0.41800000000E+01 0.  1.
         -5    1    3    3    0  502  0.56106327585E+02  0.46580870973E+02  0.20316643031E+03  0.21589758762E+03  0.41800000000E+01 0.  1.
        -11    1    1    2    0    0 -0.63506821761E+02 -0.50967595318E+02  0.58197779849E+01  0.81637503627E+02  0.00000000000E+00 0. -1.
         11    1    1    2    0    0  0.26894145463E+02 -0.16201976947E+02  0.23035190390E+02  0.38941226399E+02  0.00000000000E+00 0.  1.
</event>
<event>
 7    1  0.2732144E-009  0.1271570E+03  0.7561462E-02  0.1231736E+00
         -1   -1    0    0    0  501 -0.00000000000E+00  0.00000000000E+00  0.29682881773E+02  0.29682881773E+02  0.00000000000E+00 0.  1.
          1   -1    0    0  501    0  0.00000000000E+00 -0.00000000000E+00 -0.56029716619E+03  0.56029716619E+03  0.00000000000E+00 0. -1.
         25    2    1    2    0    0 -0.38269449479E+02  0.59178181505E+02 -0.28588560853E+03  0.31991923365E+03  0.12510446422E+03 0.  0.
          5    1    3    3  502    0 -0.62820494827E+02 -0.15435921713E+02 -0.12311578576E+03  0.13913896418E+03  0.41800000000E+01 0.  1.
         -5    1    3    3    0  502  0.24551045348E+02  0.74614103218E+02 -0.16276982277E+03  0.18078026948E+03  0.41800000000E+01 0.  1.
        -11    1    1    2    0    0  0.57089085714E+02 -0.97187949117E+01 -0.16006988598E+03  0.17022334470E+03  0.00000000000E+00 0.  1.
         11    1    1    2    0    0 -0.18819636235E+02 -0.49459386593E+02 -0.84658789911E+02  0.99837469617E+02  0.00000000000E+00 0. -1.
</event>
<event>
 7    1  0.2732144E-009  0.1061095E+03  0.7561462E-02  0.1267949E+00
         -1   -1    0    0    0  501 -0.00000000000E+00  0.00000000000E+00  0.22724073845E+02  0.22724073845E+02  0.00000000000E+00 0.  1.
          1   -1    0    0  501    0  0.00000000000E+00 -0.00000000000E+00 -0.81404176067E+03  0.81404176067E+03  0.00000000000E+00 0. -1.
         25    2    1    2    0    0 -0.49761349668E+02 -0.71015954738E+02 -0.47773508967E+03  0.50139544849E+03  0.12508845717E+03 0.  0.
          5    1    3    3  502    0  0.23978599285E+02 -0.28055224820E+02 -0.31873167551E+03  0.32088848879E+03  0.41800000000E+01 0.  1.
         -5    1    3    3    0  502 -0.73739948953E+02 -0.42960729918E+02 -0.15900341415E+03  0.18050695970E+03  0.41800000000E+01 0.  1.
        -11    1    1    2    0    0  0.24284379522E+02  0.16218341978E+02 -0.19432290345E+02  0.35076767430E+02  0.00000000000E+00 0.  1.
         11    1    1    2    0    0  0.25476970146E+02  0.54797612760E+02 -0.29415030682E+03  0.30029361860E+03  0.00000000000E+00 0. -1.
</event>
<event>
 7    1  0.2732144E-009  0.1452333E+03  0.7561462E-02  0.1206456E+00
          1   -1    0    0  501    0  0.00000000000E+00  0.00000000000E+00  0.32722948189E+03  0.32722948189E+03  0.00000000000E+00 0. -1.
         -1   -1    0    0    0  501 -0.00000000000E+00 -0.00000000000E+00 -0.74164476262E+02  0.74164476262E+02  0.00000000000E+00 0.  1.
         25    2    1    2    0    0  0.42163751862E+02  0.10321164634E+03  0.14557304857E+03  0.22196557141E+03  0.12508707571E+03 0.  0.
          5    1    3    3  502    0  0.15070080731E+02  0.12865596337E+03  0.12025336766E+03  0.17679878133E+03  0.41800000000E+01 0. -1.
         -5    1    3    3    0  502  0.27093671131E+02 -0.25444317035E+02  0.25319680915E+02  0.45166790083E+02  0.41800000000E+01 0. -1.
        -11    1    1    2    0    0  0.16558634518E+01 -0.65864138718E+02  0.10221786002E+03  0.12161133812E+03  0.00000000000E+00 0. -1.
         11    1    1    2    0    0 -0.43819615314E+02 -0.37347507621E+02  0.52740970350E+01  0.57817048622E+02  0.00000000000E+00 0.  1.
</event>
<event>
 7    1  0.2732144E-009  0.1267836E+03  0.7561462E-02  0.1232308E+00
          2   -1    0    0  501    0  0.00000000000E+00  0.00000000000E+00  0.34237379118E+02  0.34237379118E+02  0.00000000000E+00 0. -1.
         -2   -1    0    0    0  501 -0.00000000000E+00 -0.00000000000E+00 -0.68297720418E+03  0.68297720418E+03  0.00000000000E+00 0.  1.
         25    2    1    2    0    0 -0.78578205000E+02  0.23088463623E+02 -0.50509855329E+03  0.52676491468E+03  0.12509642420E+03 0.  0.
          5    1    3    3  502    0 -0.77933018286E+02 -0.24656114938E+02 -0.17487461244E+03  0.19308050606E+03  0.41800000000E+01 0.  1.
         -5    1    3    3    0  502 -0.64518671399E+00  0.47744578561E+02 -0.33022394085E+03  0.33368440862E+03  0.41800000000E+01 0.  1.
        -11    1    1    2    0    0 -0.40413203447E+01  0.26914265939E+02 -0.21150783075E+02  0.34468327576E+02  0.00000000000E+00 0. -1.
         11    1    1    2    0    0  0.82619525345E+02 -0.50002729562E+02 -0.12249048869E+03  0.15598134104E+03  0.00000000000E+00 0.  1.
</event>
<event>
 7    1  0.2732144E-009  0.1952571E+03  0.7561462E-02  0.1153803E+00
          2   -1    0    0  501    0  0.00000000000E+00  0.00000000000E+00  0.15327270782E+03  0.15327270782E+03  0.00000000000E+00 0. -1.
         -2   -1    0    0    0  501 -0.00000000000E+00 -0.00000000000E+00 -0.27220210036E+03  0.27220210036E+03  0.00000000000E+00 0.  1.
         25    2    1    2    0    0 -0.16566611275E+03  0.32495486945E+02 -0.97871854531E+02  0.23179196356E+03  0.12508955542E+03 0.  0.
          5    1    3    3  502    0  0.13024166966E+02  0.13498682540E+02  0.10504866585E+02  0.21901323646E+02  0.41800000000E+01 0. -1.
         -5    1    3    3    0  502 -0.17869027972E+03  0.18996804405E+02 -0.10837672112E+03  0.20989063991E+03  0.41800000000E+01 0. -1.
        -11    1    1    2    0    0  0.61881752097E+02 -0.57853301047E+02  0.38865142776E+00  0.84714265236E+02  0.00000000000E+00 0. -1.
         11    1    1    2    0    0  0.10378436065E+03  0.25357814102E+02 -0.21446189427E+02  0.10896857939E+03  0.00000000000E+00 0.  1.
</event>
<event>
 7    1  0.2732144E-009  0.1198332E+03  0.7561462E-02  0.1243373E+00
          2   -1    0    0  501    0  0.00000000000E+00  0.00000000000E+00  0.32394408435E+03  0.32394408435E+03  0.00000000000E+00 0. -1.
         -2   -1    0    0    0  501 -0.00000000000E+00 -0.00000000000E+00 -0.58742633791E+02  0.58742633791E+02  0.00000000000E+00 0.  1.
         25    2    1    2    0    0  0.54772696030E+01 -0.85692899174E+02  0.14653713177E+03  0.21093552429E+03  0.12508953180E+03 0.  0.
          5    1    3    3  502    0 -0.38309485218E+02 -0.26994877166E+02  0.12639772532E+03  0.13487103995E+03  0.41800000000E+01 0.  1.
         -5    1    3    3    0  502  0.43786754821E+02 -0.58698022008E+02  0.20139406454E+02  0.76064484339E+02  0.41800000000E+01 0.  1.
        -11    1    1    2    0    0  0.30762886197E+02  0.75640312010E+02  0.57214286309E+02  0.99706000451E+02  0.00000000000E+00 0.  1.
         11    1    1    2    0    0 -0.36240155800E+02  0.10052587165E+02  0.61450032472E+02  0.72045193399E+02  0.00000000000E+00 0. -1.
</event>
<event>
 7    1  0.2732144E-009  0.1470613E+03  0.7561462E-02  0.1204131E+00
         -4   -1    0    0    0  501 -0.00000000000E+00  0.00000000000E+00  0.73220213547E+02  0.73220213547E+02  0.00000000000E+00 0.  1.
          4   -1    0    0  501    0  0.00000000000E+00 -0.00000000000E+00 -0.29824403168E+03  0.29824403168E+03  0.00000000000E+00 0. -1.
         25    2    1    2    0    0 -0.89736352341E+02 -0.40575671462E+02 -0.12264074540E+03  0.20096503719E+03  0.12508875127E+03 0.  0.
          5    1    3    3  502    0  0.11192787423E+02 -0.54621679176E+02 -0.56005670539E+02  0.79138573773E+02  0.41800000000E+01 0.  1.
         -5    1    3    3    0  502 -0.10092913976E+03  0.14046007714E+02 -0.66635074860E+02  0.12182646341E+03  0.41800000000E+01 0.  1.
        -11    1    1    2    0    0  0.47577902697E+02 -0.28380405444E+02 -0.45088239715E+02  0.71428660906E+02  0.00000000000E+00 0.  1.
         11    1    1    2    0    0  0.42158449644E+02  0.68956076907E+02 -0.57294833016E+02  0.99070547133E+02  0.00000000000E+00 0. -1.
</event>
<event>
 7    1  0.2732144E-009  0.1283730E+03  0.7561462E-02  0.1229890E+00
          1   -1    0    0  501    0  0.00000000000E+00  0.00000000000E+00  0.66615640729E+03  0.66615640729E+03  0.00000000000E+00 0. -1.
         -1   -1    0    0    0  501 -0.00000000000E+00 -0.00000000000E+00 -0.33618658106E+02  0.33618658106E+02  0.00000000000E+00 0.  1.
         25    2    1    2    0    0 -0.62029244608E+02  0.71574780890E+02  0.24859658728E+03  0.29397113378E+03  0.12509271699E+03 0.  0.
          5    1    3    3  502    0  0.17145903582E+02  0.32473852965E+02  0.82318130706E+01  0.37865132807E+02  0.41800000000E+01 0.  1.
         -5    1    3    3    0  502 -0.79175148189E+02  0.39100927925E+02  0.24036477421E+03  0.25610600098E+03  0.41800000000E+01 0.  1.
        -11    1    1    2    0    0  0.56697667912E+02 -0.93210805371E+02  0.31636711936E+03  0.33465061482E+03  0.00000000000E+00 0.  1.
         11    1    1    2    0    0  0.53315766961E+01  0.21636024480E+02  0.67574042536E+02  0.71153316789E+02  0.00000000000E+00 0. -1.
</event>
<event>
 7    1  0.4651641E-009  0.6802065E+02  0.7561462E-02  0.1366956E+00
          1   -1    0    0  501    0  0.00000000000E+00  0.00000000000E+00  0.17369977569E+03  0.17369977569E+03  0.00000000000E+00 0. -1.
         -1   -1    0    0    0  501 -0.00000000000E+00 -0.00000000000E+00 -0.79701551474E+02  0.79701551474E+02  0.00000000000E+00 0.  1.
         25    2    1    2    0    0  0.76594150876E+01  0.35599999060E+02  0.23964040616E+02  0.13246744486E+03  0.12508925667E+03 0.  0.
          5    1    3    3  502    0  0.69082495636E+01  0.29823212812E+02  0.74903615031E+02  0.81025748248E+02  0.41800000000E+01 0.  1.
         -5    1    3    3    0  502  0.75116552400E+00  0.57767862477E+01 -0.50939574415E+02  0.51441696615E+02  0.41800000000E+01 0.  1.
        -11    1    1    2    0    0  0.41449145127E+02 -0.22437484539E+02  0.40455796623E+02  0.62113958371E+02  0.00000000000E+00 0.  1.
         11    1    1    2    0    0 -0.49108560214E+02 -0.13162514521E+02  0.29578386975E+02  0.58819923928E+02  0.00000000000E+00 0. -1.
</event>
<event>
 7    1  0.2732144E-009  0.1217318E+03  0.7561462E-02  0.1240267E+00
         -2   -1    0    0    0  501 -0.00000000000E+00  0.00000000000E+00  0.12566323291E+03  0.12566323291E+03  0.00000000000E+00 0.  1.
          2   -1    0    0  501    0  0.00000000000E+00 -0.00000000000E+00 -0.28322397632E+03  0.28322397632E+03  0.00000000000E+00 0. -1.
         25    2    1    2    0    0  0.15248461922E+02  0.56626179146E+02  0.71606126974E+02  0.15560928572E+03  0.12509105734E+03 0.  0.
          5    1    3    3  502    0 -0.16824354384E+02 -0.35376189648E+02  0.11448878532E+02  0.41025393528E+02  0.41800000000E+01 0.  1.
         -5    1    3    3    0  502  0.32072816306E+02  0.92002368794E+02  0.60157248443E+02  0.11458389219E+03  0.41800000000E+01 0.  1.
        -11    1    1    2    0    0  0.34730167209E+02 -0.57045728021E+01 -0.95156201124E+02  0.10145653886E+03  0.00000000000E+00 0. -1.
         11    1    1    2    0    0 -0.49978629131E+02 -0.50921606344E+02 -0.13401066926E+03  0.15182138465E+03  0.00000000000E+00 0.  1.
</event>
<event>
 7    1  0.2732144E-009  0.1084364E+03  0.7561462E-02  0.1263493E+00
          2   -1    0    0  501    0  0.00000000000E+00  0.00000000000E+00  0.10873053856E+03  0.10873053856E+03  0.00000000000E+00 0. -1.
         -2   -1    0    0    0  501 -0.00000000000E+00 -0.00000000000E+00 -0.14091200709E+03  0.14091200709E+03  0.00000000000E+00 0.  1.
         25    2    1    2    0    0 -0.29736762232E+02  0.31819917859E+02  0.26176918542E+02  0.13503256981E+03  0.12510708071E+03 0.  0.
          5    1    3    3  502    0  0.41829163858E+02  0.88551290033E+01  0.39765667831E+02  0.58539499458E+02  0.41800000000E+01 0. -1.
         -5    1    3    3    0  502 -0.71565926091E+02  0.22964788856E+02 -0.13588749289E+02  0.76493070350E+02  0.41800000000E+01 0. -1.
        -11    1    1    2    0    0  0.23287093027E+02  0.29159354187E+02 -0.22518852863E+02  0.43585036107E+02  0.00000000000E+00 0.  1.
         11    1    1    2    0    0  0.64496692057E+01 -0.60979272046E+02 -0.35839534209E+02  0.71024939736E+02  0.00000000000E+00 0. -1.
</event>
<event>
 7    1  0.2732144E-009  0.1143685E+03  0.7561462E-02  0.1252687E+00
         -1   -1    0    0    0  501 -0.00000000000E+00  0.00000000000E+00  0.93268825851E+02  0.93268825851E+02  0.00000000000E+00 0.  1.
          1   -1    0    0  501    0  0.00000000000E+00 -0.00000000000E+00 -0.18929072171E+03  0.18929072171E+03  0.00000000000E+00 0. -1.
         25    2    1    2    0    0 -0.62426946238E+02  0.16329306966E+02 -0.90659711008E+02  0.16740622408E+03  0.12506754487E+03 0.  0.
          5    1    3    3  502    0 -0.10056423248E+03  0.16361179717E+02 -0.71348292963E+02  0.12445442686E+03  0.41800000000E+01 0.  1.
         -5    1    3    3    0  502  0.38137286243E+02 -0.31872751025E-01 -0.19311418045E+02  0.42951797224E+02  0.41800000000E+01 0.  1.
        -11    1    1    2    0    0  0.56032969495E+01 -0.29534526215E+02 -0.37884636865E+02  0.48362494620E+02  0.00000000000E+00 0. -1.
         11    1    1    2    0    0  0.56823649289E+02  0.13205219250E+02  0.32522452016E+02  0.66790828854E+02  0.00000000000E+00 0.  1.
</event>
<event>
 7    1  0.2732144E-009  0.6349158E+02  0.7561462E-02  0.1383737E+00
         -1   -1    0    0    0  501 -0.00000000000E+00  0.00000000000E+00  0.31314982608E+02  0.31314982608E+02  0.00000000000E+00 0.  1.
          1   -1    0    0  501    0  0.00000000000E+00 -0.00000000000E+00 -0.44267568118E+03  0.44267568118E+03  0.00000000000E+00 0. -1.
         25    2    1    2    0    0  0.46625173484E+01 -0.25231896264E+02 -0.30899500963E+03  0.33434267652E+03  0.12509485083E+03 0.  0.
          5    1    3    3  502    0 -0.12571757772E+02  0.91407773215E+01 -0.29141133452E+03  0.29185551423E+03  0.41800000000E+01 0.  1.
         -5    1    3    3    0  502  0.17234275120E+02 -0.34372673585E+02 -0.17583675116E+02  0.42487162283E+02  0.41800000000E+01 0.  1.
        -11    1    1    2    0    0 -0.14304239010E+02  0.46611182059E+02 -0.10527301830E+03  0.11601561071E+03  0.00000000000E+00 0. -1.
         11    1    1    2    0    0  0.96417216619E+01 -0.21379285795E+02  0.29073293646E+01  0.23632376557E+02  0.00000000000E+00 0.  1.
</event>
<event>
 7    1  0.2732144E-009  0.1654712E+03  0.7561462E-02  0.1182655E+00
         -2   -1    0    0    0  501 -0.00000000000E+00  0.00000000000E+00  0.57345757313E+02  0.57345757313E+02  0.00000000000E+00 0.  1.
          2   -1    0    0  501    0  0.00000000000E+00 -0.00000000000E+00 -0.10846545749E+04  0.10846545749E+04  0.00000000000E+00 0. -1.
         25    2    1    2    0    0  0.10267814815E+03  0.74517193121E+02 -0.88302438649E+03  0.90081749557E+03  0.12507789175E+03 0.  0.
          5    1    3    3  502    0 -0.19068203175E+02  0.45592360674E+02 -0.33646284138E+03  0.34009847950E+03  0.41800000000E+01 0. -1.
         -5    1    3    3    0  502  0.12174635132E+03  0.28924832447E+02 -0.54656154511E+03  0.56071901607E+03  0.41800000000E+01 0. -1.
        -11    1    1    2    0    0 -0.91568065095E+02 -0.11656772826E+02 -0.15101754945E+03  0.17699404266E+03  0.00000000000E+00 0. -1.
         11    1    1    2    0    0 -0.11110083055E+02 -0.62860420295E+02  0.67331183842E+01  0.64188793946E+02  0.00000000000E+00 0.  1.
</event>
<event>
 7    1  0.2732144E-009  0.8048840E+02  0.7561462E-02  0.1327671E+00
         -4   -1    0    0    0  501 -0.00000000000E+00  0.00000000000E+00  0.39589243170E+02  0.39589243170E+02  0.00000000000E+00 0.  1.
          4   -1    0    0  501    0  0.00000000000E+00 -0.00000000000E+00 -0.46229862134E+03  0.46229862134E+03  0.00000000000E+00 0. -1.
         25    2    1    2    0    0  0.33923646273E+02 -0.25727239807E+02 -0.35643579775E+03  0.38014052033E+03  0.12509049778E+03 0.  0.
          5    1    3    3  502    0  0.45237597163E+02  0.34092481296E+02 -0.25913579946E+03  0.26528771633E+03  0.41800000000E+01 0. -1.
         -5    1    3    3    0  502 -0.11313950891E+02 -0.59819721103E+02 -0.97299998292E+02  0.11485280399E+03  0.41800000000E+01 0. -1.
        -11    1    1    2    0    0 -0.22318665594E+02  0.12590894804E+02  0.20751920818E+02  0.32974166911E+02  0.00000000000E+00 0.  1.
         11    1    1    2    0    0 -0.11604980679E+02  0.13136345003E+02 -0.87025501240E+02  0.88773177270E+02  0.00000000000E+00 0. -1.
</event>
<event>
 7    1  0.2732144E-009  0.1541014E+03  0.7561462E-02  0.1195522E+00
         -1   -1    0    0    0  501 -0.00000000000E+00  0.00000000000E+00  0.94657426807E+02  0.94657426807E+02  0.00000000000E+00 0.  1.
          1   -1    0    0  501    0  0.00000000000E+00 -0.00000000000E+00 -0.25195592479E+03  0.25195592479E+03  0.00000000000E+00 0. -1.
         25    2    1    2    0    0  0.99495704676E+02 -0.44922308442E+02 -0.91196308315E+02  0.18941878294E+03  0.12508117219E+03 0.  0.
          5    1    3    3  502    0  0.38727142663E+00  0.36933157170E+02 -0.16269388184E+02  0.40575527964E+02  0.41800000000E+01 0. -1.
         -5    1    3    3    0  502  0.99108433250E+02 -0.81855465612E+02 -0.74926920131E+02  0.14884325498E+03  0.41800000000E+01 0. -1.
        -11    1    1    2    0    0 -0.51436978909E+02  0.71054804688E+02 -0.36665368211E+02  0.95073115520E+02  0.00000000000E+00 0. -1.
         11    1    1    2    0    0 -0.48058725768E+02 -0.26132496246E+02 -0.29436821459E+02  0.62121453139E+02  0.00000000000E+00 0.  1.
</event>
<event>
 7    1  0.2732144E-009  0.1335971E+03  0.7561462E-02  0.1222214E+00
          1   -1    0    0  501    0  0.00000000000E+00  0.00000000000E+00  0.13260014455E+04  0.13260014455E+04  0.00000000000E+00 0. -1.
         -1   -1    0    0    0  501 -0.00000000000E+00 -0.00000000000E+00 -0.14575980205E+02  0.14575980205E+02  0.00000000000E+00 0.  1.
         25    2    1    2    0    0 -0.75312304282E+02  0.23162117566E+02  0.88748827995E+03  0.89971762227E+03  0.12509166999E+03 0.  0.
          5    1    3    3  502    0 -0.98101027691E+02  0.50699198051E+02  0.71767224859E+03  0.72613025630E+03  0.41800000000E+01 0. -1.
         -5    1    3    3    0  502  0.22788723409E+02 -0.27537080485E+02  0.16981603136E+03  0.17358736597E+03  0.41800000000E+01 0. -1.
        -11    1    1    2    0    0  0.13495237118E+02 -0.51108143047E+02  0.17108316262E+03  0.17906315155E+03  0.00000000000E+00 0.  1.
         11    1    1    2    0    0  0.61817067164E+02  0.27946025480E+02  0.25285402275E+03  0.26179665191E+03  0.00000000000E+00 0. -1.
</event>
<event>
 7    1  0.2732144E-009  0.1120948E+03  0.7561462E-02  0.1256739E+00
          2   -1    0    0  501    0  0.00000000000E+00  0.00000000000E+00  0.64884266378E+02  0.64884266378E+02  0.00000000000E+00 0. -1.
         -2   -1    0    0    0  501 -0.00000000000E+00 -0.00000000000E+00 -0.31431124446E+03  0.31431124446E+03  0.00000000000E+00 0.  1.
         25    2    1    2    0    0 -0.90552336515E+02  0.38968921499E+01 -0.16512521488E+03  0.22611693598E+03  0.12509045019E+03 0.  0.
          5    1    3    3  502    0 -0.82004556569E+02 -0.27510867718E+02 -0.17201593149E+03  0.19258387323E+03  0.41800000000E+01 0.  1.
         -5    1    3    3    0  502 -0.85477799461E+01  0.31407759868E+02  0.68907166075E+01  0.33533062749E+02  0.41800000000E+01 0.  1.
        -11    1    1    2    0    0  0.42610949536E+01  0.15715551718E+02 -0.58759822995E+02  0.60974193676E+02  0.00000000000E+00 0.  1.
         11    1    1    2    0    0  0.86291241561E+02 -0.19612443868E+02 -0.25541940206E+02  0.92104381189E+02  0.00000000000E+00 0. -1.
</event>
<event>
 7    1  0.2732144E-009  0.1197526E+03  0.7561462E-02  0.1243506E+00
         -1   -1    0    0    0  501 -0.00000000000E+00  0.00000000000E+00  0.19183979415E+02  0.19183979415E+02  0.00000000000E+00 0.  1.
          1   -1    0    0  501    0  0.00000000000E+00 -0.00000000000E+00 -0.85132457139E+03  0.85132457139E+03  0.00000000000E+00 0. -1.
         25    2    1    2    0    0  0.61719577618E+02  0.51314578178E+00 -0.40373902772E+03  0.42715582897E+03  0.12508928867E+03 0.  0.
          5    1    3    3  502    0 -0.23624057902E+01 -0.48580072931E+02 -0.82119579223E+02  0.95533774859E+02  0.41800000000E+01 0. -1.
         -5    1    3    3    0  502  0.64081983409E+02  0.49093218713E+02 -0.32161944850E+03  0.33162205411E+03  0.41800000000E+01 0. -1.
        -11    1    1    2    0    0  0.86704060859E+01 -0.31700561016E+02 -0.78887032590E+02  0.85459144749E+02  0.00000000000E+00 0. -1.
         11    1    1    2    0    0 -0.70389983704E+02  0.31187415234E+02 -0.34951453166E+03  0.35789357708E+03  0.00000000000E+00 0.  1.
</event>
<event>
 7    1  0.2732144E-009  0.1496030E+03  0.7561462E-02  0.1200962E+00
         -2   -1    0    0    0  501 -0.00000000000E+00  0.00000000000E+00  0.35138242483E+02  0.35138242483E+02  0.00000000000E+00 0.  1.
          2   -1    0    0  501    0  0.00000000000E+00 -0.00000000000E+00 -0.75024451679E+03  0.75024451679E+03  0.00000000000E+00 0. -1.
         25    2    1    2    0    0  0.37045668072E+02 -0.10213230436E+03 -0.25972487317E+03  0.30808748896E+03  0.12512994044E+03 0.  0.
          5    1    3    3  502    0  0.48160744237E+02 -0.12782069311E+03 -0.20326760876E+03  0.24493423616E+03  0.41800000000E+01 0.  1.
         -5    1    3    3    0  502 -0.11115076165E+02  0.25688388749E+02 -0.56457264412E+02  0.63153252802E+02  0.41800000000E+01 0.  1.
        -11    1    1    2    0    0 -0.61663561466E+02  0.64103791424E+02 -0.21483763404E+03  0.23252290186E+03  0.00000000000E+00 0. -1.
         11    1    1    2    0    0  0.24617893393E+02  0.38028512932E+02 -0.24054376709E+03  0.24477236845E+03  0.00000000000E+00 0.  1.
</event>
<event>
 7    1  0.2732144E-009  0.1125314E+03  0.7561462E-02  0.1255953E+00
          1   -1    0    0  501    0  0.00000000000E+00  0.00000000000E+00  0.22188814882E+03  0.22188814882E+03  0.00000000000E+00 0. -1.
         -1   -1    0    0    0  501 -0.00000000000E+00 -0.00000000000E+00 -0.63939716619E+02  0.63939716619E+02  0.00000000000E+00 0.  1.
         25    2    1    2    0    0  0.23817400429E+02 -0.42076300325E+02  0.74790765201E+02  0.15351590663E+03  0.12504315822E+03 0.  0.
          5    1    3    3  502    0 -0.26884256122E+02  0.31001920483E+02  0.75402566400E+01  0.41931016814E+02  0.41800000000E+01 0. -1.
         -5    1    3    3    0  502  0.50701656550E+02 -0.73078220809E+02  0.67250508561E+02  0.11158488982E+03  0.41800000000E+01 0. -1.
        -11    1    1    2    0    0 -0.53189430500E+02  0.37420913273E+02  0.30486481786E+02  0.71825245135E+02  0.00000000000E+00 0.  1.
         11    1    1    2    0    0  0.29372030071E+02  0.46553870523E+01  0.52671185210E+02  0.60486713669E+02  0.00000000000E+00 0. -1.
</event>
<event>
 7    1  0.2732144E-009  0.1005753E+03  0.7561462E-02  0.1279091E+00
          1   -1    0    0  501    0  0.00000000000E+00  0.00000000000E+00  0.10460669750E+03  0.10460669750E+03  0.00000000000E+00 0. -1.
         -1   -1    0    0    0  501 -0.00000000000E+00 -0.00000000000E+00 -0.11688524387E+03  0.11688524387E+03  0.00000000000E+00 0.  1.
         25    2    1    2    0    0  0.33979324237E+01 -0.24933069356E+02 -0.16034784067E+02  0.12860330621E+03  0.12509393341E+03 0.  0.
          5    1    3    3  502    0  0.76541927366E+01 -0.75125483339E+02 -0.18294296426E+00  0.75630223995E+02  0.41800000000E+01 0.  1.
         -5    1    3    3    0  502 -0.42562603129E+01  0.50192413984E+02 -0.15851841102E+02  0.52973082218E+02  0.41800000000E+01 0.  1.
        -11    1    1    2    0    0 -0.23431603890E+02  0.42368742467E+02 -0.24370920951E+02  0.54204171307E+02  0.00000000000E+00 0.  1.
         11    1    1    2    0    0  0.20033671466E+02 -0.17435673111E+02  0.28127158648E+02  0.38684463844E+02  0.00000000000E+00 0. -1.
</event>
<event>
 7    1  0.2732144E-009  0.1595999E+03  0.7561462E-02  0.1189149E+00
          1   -1    0    0  501    0  0.00000000000E+00  0.00000000000E+00  0.79553257574E+02  0.79553257574E+02  0.00000000000E+00 0. -1.
         -1   -1    0    0    0  501 -0.00000000000E+00 -0.00000000000E+00 -0.44069265344E+03  0.44069265344E+03  0.00000000000E+00 0.  1.
         25    2    1    2    0    0  0.11037149945E+03  0.74269822840E+02 -0.29262871912E+03  0.34493054720E+03  0.12509052985E+03 0.  0.
          5    1    3    3  502    0  0.11135986416E+03  0.96860437252E+02 -0.19478534691E+03  0.24442129085E+03  0.41800000000E+01 0. -1.
         -5    1    3    3    0  502 -0.98836471804E+00 -0.22590614412E+02 -0.97843372218E+02  0.10050925635E+03  0.41800000000E+01 0. -1.
        -11    1    1    2    0    0 -0.29552470894E+02  0.10566164290E+02 -0.46492865985E+02  0.56094375398E+02  0.00000000000E+00 0.  1.
         11    1    1    2    0    0 -0.80819028552E+02 -0.84835987130E+02 -0.22017810752E+02  0.11922098842E+03  0.00000000000E+00 0. -1.
</event>
<event>
 7    1  0.2732144E-009  0.2047162E+03  0.7561462E-02  0.1145820E+00
          2   -1    0    0  501    0  0.00000000000E+00  0.00000000000E+00  0.27346839528E+03  0.27346839528E+03  0.00000000000E+00 0. -1.
         -2   -1    0    0    0  501 -0.00000000000E+00 -0.00000000000E+00 -0.19662282336E+03  0.19662282336E+03  0.00000000000E+00 0.  1.
         25    2    1    2    0    0  0.16310170821E+03 -0.12257221813E+03  0.23062281903E+02  0.24042973326E+03  0.12509385241E+03 0.  0.
          5    1    3    3  502    0  0.11666318336E+03 -0.88537766943E+02 -0.43004614309E+02  0.15269611580E+03  0.41800000000E+01 0. -1.
         -5    1    3    3    0  502  0.46438524844E+02 -0.34034451185E+02  0.66066896212E+02  0.87733617458E+02  0.41800000000E+01 0. -1.
        -11    1    1    2    0    0 -0.39925904932E+02  0.42302054132E+02 -0.24475924054E+02  0.63107943452E+02  0.00000000000E+00 0.  1.
         11    1    1    2    0    0 -0.12317580328E+03  0.80270163996E+02  0.78259214073E+02  0.16655354193E+03  0.00000000000E+00 0. -1.
</event>
<event>
 7    1  0.2732144E-009  0.1391660E+03  0.7561462E-02  0.1214456E+00
          2   -1    0    0  501    0  0.00000000000E+00  0.00000000000E+00  0.14496174974E+04  0.14496174974E+04  0.00000000000E+00 0. -1.
         -2   -1    0    0    0  501 -0.00000000000E+00 -0.00000000000E+00 -0.18194301210E+02  0.18194301210E+02  0.00000000000E+00 0.  1.
         25    2    1    2    0    0 -0.11868798058E+03 -0.18568334286E+02  0.82379429098E+03  0.84185336753E+03  0.12509372007E+03 0.  0.
          5    1    3    3  502    0 -0.13434904230E+03 -0.21195276833E+01  0.78709731729E+03  0.79849471937E+03  0.41800000000E+01 0.  1.
         -5    1    3    3    0  502  0.15661061723E+02 -0.16448806603E+02  0.36696973687E+02  0.43358648165E+02  0.41800000000E+01 0.  1.
        -11    1    1    2    0    0  0.10310942659E+03  0.20444106766E+02  0.59879520024E+03  0.60795164873E+03  0.00000000000E+00 0.  1.
         11    1    1    2    0    0  0.15578553990E+02 -0.18757724800E+01  0.88337049388E+01  0.18006782327E+02  0.00000000000E+00 0. -1.
</event>
<event>
 7    1  0.2732144E-009  0.1071644E+03  0.7561462E-02  0.1265913E+00
          1   -1    0    0  501    0  0.00000000000E+00  0.00000000000E+00  0.76902299383E+02  0.76902299383E+02  0.00000000000E+00 0. -1.
         -1   -1    0    0    0  501 -0.00000000000E+00 -0.00000000000E+00 -0.23486813299E+03  0.23486813299E+03  0.00000000000E+00 0.  1.
         25    2    1    2    0    0  0.18316610375E+02  0.29600973968E+02 -0.53103102213E+01  0.12995201529E+03  0.12509041133E+03 0.  0.
          5    1    3    3  502    0 -0.41313726217E+02  0.37507333670E+02  0.26347965976E+02  0.61849104795E+02  0.41800000000E+01 0.  1.
         -5    1    3    3    0  502  0.59630336592E+02 -0.79063597019E+01 -0.31658276197E+02  0.68102910492E+02  0.41800000000E+01 0.  1.
        -11    1    1    2    0    0 -0.14677835705E+02 -0.62894004837E+02 -0.11035832514E+03  0.12786733216E+03  0.00000000000E+00 0.  1.
         11    1    1    2    0    0 -0.36387746695E+01  0.33293030869E+02 -0.42297198250E+02  0.53951084932E+02  0.00000000000E+00 0. -1.
</event>
<event>
 7    1  0.2732144E-009  0.7793193E+02  0.7561462E-02  0.1335025E+00
         -1   -1    0    0    0  501 -0.00000000000E+00  0.00000000000E+00  0.49750975852E+02  0.49750975852E+02  0.00000000000E+00 0.  1.
          1   -1    0    0  501    0  0.00000000000E+00 -0.00000000000E+00 -0.26705090556E+03  0.26705090556E+03  0.00000000000E+00 0. -1.
         25    2    1    2    0    0 -0.14841494522E+01 -0.37180886541E+02 -0.14203839819E+03  0.19289134881E+03  0.12509014694E+03 0.  0.
          5    1    3    3  502    0 -0.30922900525E+02 -0.24787449334E+02 -0.15358502723E+03  0.15867096902E+03  0.41800000000E+01 0.  1.
         -5    1    3    3    0  502  0.29438751073E+02 -0.12393437207E+02  0.11546629040E+02  0.34220379786E+02  0.41800000000E+01 0.  1.
        -11    1    1    2    0    0  0.34454792564E+02  0.37367830637E+02 -0.75408355981E+02  0.90939032593E+02  0.00000000000E+00 0.  1.
         11    1    1    2    0    0 -0.32970643112E+02 -0.18694409598E+00  0.14682446459E+00  0.32971500008E+02  0.00000000000E+00 0. -1.
</event>
<event>
 7    1  0.2732144E-009  0.9232479E+02  0.7561462E-02  0.1297318E+00
          2   -1    0    0  501    0  0.00000000000E+00  0.00000000000E+00  0.82951806116E+03  0.82951806116E+03  0.00000000000E+00 0. -1.
         -2   -1    0    0    0  501 -0.00000000000E+00 -0.00000000000E+00 -0.16424244679E+02  0.16424244679E+02  0.00000000000E+00 0.  1.
         25    2    1    2    0    0 -0.56169509010E+01  0.28289989899E+02  0.61039008637E+03  0.62374380199E+03  0.12509356226E+03 0.  0.
          5    1    3    3  502    0 -0.29607086040E+02  0.52561459655E+02  0.14525419174E+03  0.15733893098E+03  0.41800000000E+01 0.  1.
         -5    1    3    3    0  502  0.23990135139E+02 -0.24271469756E+02  0.46513589463E+03  0.46640487101E+03  0.41800000000E+01 0.  1.
        -11    1    1    2    0    0 -0.38461236223E+02 -0.24398052396E+02  0.12087821515E+03  0.12917458941E+03  0.00000000000E+00 0.  1.
         11    1    1    2    0    0  0.44078187124E+02 -0.38919375031E+01  0.81825514966E+02  0.93023914437E+02  0.00000000000E+00 0. -1.
</event>
<event>
 7    1  0.2732144E-009  0.1630677E+03  0.7561462E-02  0.1185276E+00
         -2   -1    0    0    0  501 -0.00000000000E+00  0.00000000000E+00  0.69558134849E+03  0.69558134849E+03  0.00000000000E+00 0.  1.
          2   -1    0    0  501    0  0.00000000000E+00 -0.00000000000E+00 -0.10800458308E+03  0.10800458308E+03  0.00000000000E+00 0. -1.
         25    2    1    2    0    0 -0.14098354224E+03 -0.13608516255E+02 -0.35908450341E+01  0.18901003257E+03  0.12510134830E+03 0.  0.
          5    1    3    3  502    0 -0.14855980475E+03 -0.14990876038E+02  0.31656028521E+02  0.15269026981E+03  0.41800000000E+01 0.  1.
         -5    1    3    3    0  502  0.75762625068E+01  0.13823597825E+01 -0.35246873555E+02  0.36319762769E+02  0.41800000000E+01 0.  1.
        -11    1    1    2    0    0  0.10346074362E+03 -0.32600024863E+02  0.38281173728E+03  0.39788404503E+03  0.00000000000E+00 0.  1.
         11    1    1    2    0    0  0.37522798618E+02  0.46208541118E+02  0.20835587317E+03  0.21669185396E+03  0.00000000000E+00 0. -1.
</event>
<event>
 7    1  0.2732144E-009  0.2114508E+03  0.7561462E-02  0.1140422E+00
         -1   -1    0    0    0  501 -0.00000000000E+00  0.00000000000E+00  0.15042211823E+03  0.15042211823E+03  0.00000000000E+00 0.  1.
          1   -1    0    0  501    0  0.00000000000E+00 -0.00000000000E+00 -0.45723492202E+03  0.45723492202E+03  0.00000000000E+00 0. -1.
         25    2    1    2    0    0 -0.20370724499E+03 -0.48978295914E+02 -0.48139792974E+02  0.24871548855E+03  0.12508572837E+03 0.  0.
          5    1    3    3  502    0 -0.86744638768E+02 -0.10158359718E+02  0.40989583565E+02  0.96568333256E+02  0.41800000000E+01 0.  1.
         -5    1    3    3    0  502 -0.11696260622E+03 -0.38819936196E+02 -0.89129376539E+02  0.15214715529E+03  0.41800000000E+01 0.  1.
        -11    1    1    2    0    0  0.16028184058E+02  0.13925298484E+02  0.14464007819E+02  0.25690935060E+02  0.00000000000E+00 0.  1.
         11    1    1    2    0    0  0.18767906093E+03  0.35052997430E+02 -0.27313701864E+03  0.33325061664E+03  0.00000000000E+00 0. -1.
</event>
<event>
 7    1  0.2732144E-009  0.1101196E+03  0.7561462E-02  0.1260348E+00
         -2   -1    0    0    0  501 -0.00000000000E+00  0.00000000000E+00  0.16860961429E+03  0.16860961429E+03  0.00000000000E+00 0. -1.
          2   -1    0    0  501    0  0.00000000000E+00 -0.00000000000E+00 -0.10853664979E+03  0.10853664979E+03  0.00000000000E+00 0.  1.
         25    2    1    2    0    0  0.60370359617E+02 -0.16203134447E+02  0.86319565147E+02  0.16433547550E+03  0.12509180346E+03 0.  0.
          5    1    3    3  502    0  0.64571585993E+02 -0.48373457584E+02  0.10027510984E+03  0.12877131346E+03  0.41800000000E+01 0.  1.
         -5    1    3    3    0  502 -0.42012263760E+01  0.32170323137E+02 -0.13955544695E+02  0.35564162039E+02  0.41800000000E+01 0.  1.
        -11    1    1    2    0    0  0.14124088686E+02  0.27956792287E+02 -0.19942302560E+02  0.37131759285E+02  0.00000000000E+00 0.  1.
         11    1    1    2    0    0 -0.74494448303E+02 -0.11753657840E+02 -0.63042980912E+01  0.75679029295E+02  0.00000000000E+00 0. -1.
</event>
<event>
 7    1  0.2732144E-009  0.9527284E+02  0.7561462E-02  0.1290563E+00
          1   -1    0    0  501    0  0.00000000000E+00  0.00000000000E+00  0.14565886608E+03  0.14565886608E+03  0.00000000000E+00 0. -1.
         -1   -1    0    0    0  501 -0.00000000000E+00 -0.00000000000E+00 -0.12852931165E+03  0.12852931165E+03  0.00000000000E+00 0.  1.
         25    2    1    2    0    0 -0.18897585674E+02 -0.54735581790E+02 -0.49875095987E+02  0.14658993979E+03  0.12509189658E+03 0.  0.
          5    1    3    3  502    0 -0.37207111159E+02  0.28222036052E+02  0.20588199753E+01  0.46931477490E+02  0.41800000000E+01 0.  1.
         -5    1    3    3    0  502  0.18309525485E+02 -0.82957617842E+02 -0.51933915963E+02  0.99658462304E+02  0.41800000000E+01 0.  1.
        -11    1    1    2    0    0  0.91618532905E+01  0.14087137614E+02  0.81609793573E+02  0.83321938341E+02  0.00000000000E+00 0. -1.
         11    1    1    2    0    0  0.97357323840E+01  0.40648444176E+02 -0.14605143165E+02  0.44276299595E+02  0.00000000000E+00 0.  1.
</event>
<event>
 7    1  0.2732144E-009  0.1126259E+03  0.7561462E-02  0.1255783E+00
         -2   -1    0    0    0  501 -0.00000000000E+00  0.00000000000E+00  0.21664702204E+02  0.21664702204E+02  0.00000000000E+00 0.  1.
          2   -1    0    0  501    0  0.00000000000E+00 -0.00000000000E+00 -0.79583060432E+03  0.79583060432E+03  0.00000000000E+00 0. -1.
         25    2    1    2    0    0 -0.33324083355E+02 -0.66900915096E+02 -0.40824895415E+03  0.43347364581E+03  0.12508383616E+03 0.  0.
          5    1    3    3  502    0  0.55441951859E+01  0.26255208855E+02 -0.20193130304E+03  0.20374935004E+03  0.41800000000E+01 0. -1.
         -5    1    3    3    0  502 -0.38868278541E+02 -0.93156123951E+02 -0.20631765111E+03  0.22972429577E+03  0.41800000000E+01 0. -1.
        -11    1    1    2    0    0 -0.23470024416E+01 -0.11074608928E+02 -0.38773315458E+01  0.11966164101E+02  0.00000000000E+00 0.  1.
         11    1    1    2    0    0  0.35671085797E+02  0.77975524024E+02 -0.36203961642E+03  0.37205549662E+03  0.00000000000E+00 0. -1.
</event>
<event>
 7    1  0.2732144E-009  0.9124520E+02  0.7561462E-02  0.1299864E+00
         -1   -1    0    0    0  501 -0.00000000000E+00  0.00000000000E+00  0.18436515245E+03  0.18436515245E+03  0.00000000000E+00 0.  1.
          1   -1    0    0  501    0  0.00000000000E+00 -0.00000000000E+00 -0.95742926026E+02  0.95742926026E+02  0.00000000000E+00 0. -1.
         25    2    1    2    0    0 -0.22245120540E+02 -0.24666400439E+02  0.12173791554E+03  0.17768101254E+03  0.12508855038E+03 0.  0.
          5    1    3    3  502    0 -0.67107533328E+02 -0.40763929169E+02  0.93329446977E+02  0.12203678554E+03  0.41800000000E+01 0. -1.
         -5    1    3    3    0  502  0.44862412788E+02  0.16097528730E+02  0.28408468567E+02  0.55644227002E+02  0.41800000000E+01 0. -1.
        -11    1    1    2    0    0  0.34959851043E+02  0.25501839653E+02 -0.59239637198E+02  0.73361226993E+02  0.00000000000E+00 0. -1.
         11    1    1    2    0    0 -0.12714730503E+02 -0.83543921390E+00  0.26123948083E+02  0.29065838950E+02  0.00000000000E+00 0.  1.
</event>
<event>
 7    1  0.2732144E-009  0.1139517E+03  0.7561462E-02  0.1253422E+00
          2   -1    0    0  501    0  0.00000000000E+00  0.00000000000E+00  0.21948286303E+04  0.21948286303E+04  0.00000000000E+00 0. -1.
         -2   -1    0    0    0  501 -0.00000000000E+00 -0.00000000000E+00 -0.12737823803E+02  0.12737823803E+02  0.00000000000E+00 0.  1.
         25    2    1    2    0    0  0.61150056363E+02 -0.31439179589E+02  0.18617106888E+04  0.18671749574E+04  0.12509149073E+03 0.  0.
          5    1    3    3  502    0  0.84813916061E+01 -0.54480699248E+02  0.14896502969E+04  0.14906762090E+04  0.41800000000E+01 0.  1.
         -5    1    3    3    0  502  0.52668664757E+02  0.23041519659E+02  0.37206039194E+03  0.37649874837E+03  0.41800000000E+01 0.  1.
        -11    1    1    2    0    0 -0.51144371171E+02 -0.25505362689E+02  0.15586706562E+03  0.16601449447E+03  0.00000000000E+00 0.  1.
         11    1    1    2    0    0 -0.10005685192E+02  0.56944542278E+02  0.16451305204E+03  0.17437700228E+03  0.00000000000E+00 0. -1.
</event>
<event>
 7    1  0.2732144E-009  0.8864891E+02  0.7561462E-02  0.1306157E+00
          1   -1    0    0  501    0  0.00000000000E+00  0.00000000000E+00  0.44145935709E+03  0.44145935709E+03  0.00000000000E+00 0. -1.
         -1   -1    0    0    0  501 -0.00000000000E+00 -0.00000000000E+00 -0.30212660627E+02  0.30212660627E+02  0.00000000000E+00 0.  1.
         25    2    1    2    0    0 -0.30772056958E+02  0.77234780985E+01  0.18441902697E+03  0.22510927048E+03  0.12512887173E+03 0.  0.
          5    1    3    3  502    0 -0.39716263675E+02  0.34082767710E+02  0.16772625841E+02  0.55116331814E+02  0.41800000000E+01 0.  1.
         -5    1    3    3    0  502  0.89442067169E+01 -0.26359289612E+02  0.16764640113E+03  0.16999293866E+03  0.41800000000E+01 0.  1.
        -11    1    1    2    0    0 -0.32750824508E+02 -0.94442880460E+00  0.75395738649E+02  0.82207212933E+02  0.00000000000E+00 0. -1.
         11    1    1    2    0    0  0.63522881465E+02 -0.67790492939E+01  0.15143193084E+03  0.16435553430E+03  0.00000000000E+00 0.  1.
</event>
<event>
 7    1  0.2732144E-009  0.1208763E+03  0.7561462E-02  0.1241658E+00
          2   -1    0    0  501    0  0.00000000000E+00  0.00000000000E+00  0.41257085887E+03  0.41257085887E+03  0.00000000000E+00 0. -1.
         -2   -1    0    0    0  501 -0.00000000000E+00 -0.00000000000E+00 -0.49717093369E+02  0.49717093369E+02  0.00000000000E+00 0.  1.
         25    2    1    2    0    0  0.37341279845E+02  0.44201165775E+02  0.31513521898E+03  0.34395471295E+03  0.12508606670E+03 0.  0.
          5    1    3    3  502    0  0.70004714980E+02  0.64185148511E+02  0.25880807879E+03  0.27571631699E+03  0.41800000000E+01 0. -1.
         -5    1    3    3    0  502 -0.32663435135E+02 -0.19983982736E+02  0.56327140188E+02  0.68238395955E+02  0.41800000000E+01 0. -1.
        -11    1    1    2    0    0 -0.58840304354E+02  0.19200144382E+00  0.23184565542E+02  0.63243516351E+02  0.00000000000E+00 0.  1.
         11    1    1    2    0    0  0.21499024509E+02 -0.44393167218E+02  0.24533980974E+02  0.55089722934E+02  0.00000000000E+00 0. -1.
</event>
<event>
 7    1  0.2732144E-009  0.1634760E+03  0.7561462E-02  0.1184827E+00
          1   -1    0    0  501    0  0.00000000000E+00  0.00000000000E+00  0.71474746590E+03  0.71474746590E+03  0.00000000000E+00 0. -1.
         -1   -1    0    0    0  501 -0.00000000000E+00 -0.00000000000E+00 -0.40864353185E+02  0.40864353185E+02  0.00000000000E+00 0.  1.
         25    2    1    2    0    0  0.12941303470E+03 -0.16278449959E+02  0.30857007067E+03  0.35759394636E+03  0.12508085576E+03 0.  0.
          5    1    3    3  502    0  0.93728587863E+02  0.40192999465E+02  0.24445656192E+03  0.26490943444E+03  0.41800000000E+01 0.  1.
         -5    1    3    3    0  502  0.35684446834E+02 -0.56471449424E+02  0.64113508750E+02  0.92684511921E+02  0.41800000000E+01 0.  1.
        -11    1    1    2    0    0 -0.12471887661E+03 -0.15634648185E+02  0.29469416827E+03  0.32038085651E+03  0.00000000000E+00 0.  1.
         11    1    1    2    0    0 -0.46941580889E+01  0.31913098144E+02  0.70618873773E+02  0.77637016212E+02  0.00000000000E+00 0. -1.
</event>
<event>
 7    1  0.2732144E-009  0.1436774E+03  0.7561462E-02  0.1208465E+00
          2   -1    0    0  501    0  0.00000000000E+00  0.00000000000E+00  0.45316854961E+03  0.45316854961E+03  0.00000000000E+00 0.  1.
         -2   -1    0    0    0  501 -0.00000000000E+00 -0.00000000000E+00 -0.59710145030E+02  0.59710145030E+02  0.00000000000E+00 0. -1.
         25    2    1    2    0    0  0.36503856867E+02 -0.11219324093E+03  0.15051853547E+03  0.22852292159E+03  0.12508813410E+03 0.  0.
          5    1    3    3  502    0  0.63800321896E+02 -0.12202798512E+03  0.14234043274E+03  0.19808983169E+03  0.41800000000E+01 0. -1.
         -5    1    3    3    0  502 -0.27296465030E+02  0.98347441875E+01  0.81781027306E+01  0.30433089896E+02  0.41800000000E+01 0. -1.
        -11    1    1    2    0    0  0.19536919574E+01  0.23809249574E+02  0.98639827426E+00  0.23909626912E+02  0.00000000000E+00 0. -1.
         11    1    1    2    0    0 -0.38457548824E+02  0.88383991359E+02  0.24195347083E+03  0.26044614614E+03  0.00000000000E+00 0.  1.
</event>
<event>
 7    1  0.2732144E-009  0.8540704E+02  0.7561462E-02  0.1314372E+00
          2   -1    0    0  501    0  0.00000000000E+00  0.00000000000E+00  0.48018142061E+02  0.48018142061E+02  0.00000000000E+00 0. -1.
         -2   -1    0    0    0  501 -0.00000000000E+00 -0.00000000000E+00 -0.29739180014E+03  0.29739180014E+03  0.00000000000E+00 0.  1.
         25    2    1    2    0    0 -0.46047514230E+02  0.40620284224E+02 -0.17306217670E+03  0.22219054458E+03  0.12509092708E+03 0.  0.
          5    1    3    3  502    0  0.20977735231E+02  0.34043576401E+02 -0.42957182777E+01  0.40434589958E+02  0.41800000000E+01 0. -1.
         -5    1    3    3    0  502 -0.67025249461E+02  0.65767078236E+01 -0.16876645842E+03  0.18175595462E+03  0.41800000000E+01 0. -1.
        -11    1    1    2    0    0  0.22143792312E+02 -0.10029782922E+02 -0.80576451897E+02  0.84163582883E+02  0.00000000000E+00 0.  1.
         11    1    1    2    0    0  0.23903721918E+02 -0.30590501302E+02  0.42649705196E+01  0.39055814739E+02  0.00000000000E+00 0. -1.
</event>
<event>
 7    1  0.2732144E-009  0.1978546E+03  0.7561462E-02  0.1151562E+00
          1   -1    0    0  501    0  0.00000000000E+00  0.00000000000E+00  0.33486215899E+03  0.33486215899E+03  0.00000000000E+00 0. -1.
         -1   -1    0    0    0  501 -0.00000000000E+00 -0.00000000000E+00 -0.12160099238E+03  0.12160099238E+03  0.00000000000E+00 0.  1.
         25    2    1    2    0    0 -0.17467731721E+03 -0.20533514854E+02  0.13490194996E+03  0.25451817240E+03  0.12508866294E+03 0.  0.
          5    1    3    3  502    0 -0.11323097530E+03 -0.72491142000E+02  0.74081890361E+02  0.15356372721E+03  0.41800000000E+01 0.  1.
         -5    1    3    3    0  502 -0.61446341911E+02  0.51957627146E+02  0.60820059598E+02  0.10095444518E+03  0.41800000000E+01 0.  1.
        -11    1    1    2    0    0  0.50182756195E+02  0.24956477403E+02  0.47841727818E+02  0.73688301001E+02  0.00000000000E+00 0. -1.
         11    1    1    2    0    0  0.12449456102E+03 -0.44229625484E+01  0.30517488835E+02  0.12825667798E+03  0.00000000000E+00 0.  1.
</event>
<event>
 7    1  0.2732144E-009  0.8608770E+02  0.7561462E-02  0.1312612E+00
          4   -1    0    0  501    0  0.00000000000E+00  0.00000000000E+00  0.86703169289E+02  0.86703169289E+02  0.00000000000E+00 0. -1.
         -4   -1    0    0    0  501 -0.00000000000E+00 -0.00000000000E+00 -0.17117590561E+03  0.17117590561E+03  0.00000000000E+00 0.  1.
         25    2    1    2    0    0  0.25054298776E+02  0.33922068835E+02 -0.85634235937E+02  0.15734970808E+03  0.12508910275E+03 0.  0.
          5    1    3    3  502    0  0.54062995068E+01  0.50003175185E+02  0.15657228079E+02  0.52840957543E+02  0.41800000000E+01 0. -1.
         -5    1    3    3    0  502  0.19647999270E+02 -0.16081106349E+02 -0.10129146402E+03  0.10450875054E+03  0.41800000000E+01 0. -1.
        -11    1    1    2    0    0  0.31093862625E+02 -0.14801896039E+01  0.14475279814E+02  0.34330059422E+02  0.00000000000E+00 0. -1.
         11    1    1    2    0    0 -0.56148161402E+02 -0.32441879232E+02 -0.13313780201E+02  0.66199307399E+02  0.00000000000E+00 0.  1.
</event>
<event>
 7    1  0.2732144E-009  0.1107688E+03  0.7561462E-02  0.1259153E+00
          1   -1    0    0  501    0  0.00000000000E+00  0.00000000000E+00  0.32776831758E+02  0.32776831758E+02  0.00000000000E+00 0.  1.
         -1   -1    0    0    0  501 -0.00000000000E+00 -0.00000000000E+00 -0.48447456628E+03  0.48447456628E+03  0.00000000000E+00 0. -1.
         25    2    1    2    0    0  0.59057203991E+02  0.26592719688E+02 -0.25746496937E+03  0.29348221423E+03  0.12509465829E+03 0.  0.
          5    1    3    3  502    0 -0.87081671528E+01  0.40570827833E+02 -0.20277639421E+02  0.46373260687E+02  0.41800000000E+01 0. -1.
         -5    1    3    3    0  502  0.67765371144E+02 -0.13978108145E+02 -0.23718732995E+03  0.24710895354E+03  0.41800000000E+01 0. -1.
        -11    1    1    2    0    0 -0.44692846190E+02  0.28880278134E+02 -0.81964666106E+02  0.97722706960E+02  0.00000000000E+00 0.  1.
         11    1    1    2    0    0 -0.14364357801E+02 -0.55472997821E+02 -0.11226809905E+03  0.12604647685E+03  0.00000000000E+00 0. -1.
</event>
<event>
 7    1  0.2732144E-009  0.1416205E+03  0.7561462E-02  0.1211165E+00
          3   -1    0    0  501    0  0.00000000000E+00  0.00000000000E+00  0.61246947670E+02  0.61246947670E+02  0.00000000000E+00 0. -1.
         -3   -1    0    0    0  501 -0.00000000000E+00 -0.00000000000E+00 -0.44222489890E+03  0.44222489890E+03  0.00000000000E+00 0.  1.
         25    2    1    2    0    0 -0.55362533972E+02 -0.88410150572E+02 -0.10069953408E+03  0.19149162440E+03  0.12508909288E+03 0.  0.
          5    1    3    3  502    0 -0.34089976394E+01  0.31259282833E+02 -0.26598481757E+02  0.41397048928E+02  0.41800000000E+01 0.  1.
         -5    1    3    3    0  502 -0.51953536332E+02 -0.11966943341E+03 -0.74101052324E+02  0.15009457547E+03  0.41800000000E+01 0.  1.
        -11    1    1    2    0    0 -0.10357998510E+02  0.34401397550E+02 -0.27415785473E+02  0.45192583237E+02  0.00000000000E+00 0. -1.
         11    1    1    2    0    0  0.65720532481E+02  0.54008753022E+02 -0.25286263168E+03  0.26678763894E+03  0.00000000000E+00 0.  1.
</event>
<event>
 7    1  0.2732144E-009  0.1057083E+03  0.7561462E-02  0.1268730E+00
         -1   -1    0    0    0  501 -0.00000000000E+00  0.00000000000E+00  0.93122210807E+02  0.93122210807E+02  0.00000000000E+00 0.  1.
          1   -1    0    0  501    0  0.00000000000E+00 -0.00000000000E+00 -0.16143499225E+03  0.16143499225E+03  0.00000000000E+00 0. -1.
         25    2    1    2    0    0 -0.44786444666E+01 -0.31389563230E+02  0.12102477356E+02  0.12960936035E+03  0.12508698332E+03 0.  0.
          5    1    3    3  502    0  0.43067656346E+02  0.28891209298E+02  0.20836290872E+01  0.52070518607E+02  0.41800000000E+01 0.  1.
         -5    1    3    3    0  502 -0.47546300813E+02 -0.60280772527E+02  0.10018848268E+02  0.77538841738E+02  0.41800000000E+01 0.  1.
        -11    1    1    2    0    0 -0.14007887070E+02  0.52559102452E+02 -0.80121934459E+02  0.96841130374E+02  0.00000000000E+00 0.  1.
         11    1    1    2    0    0  0.18486531537E+02 -0.21169539222E+02 -0.29332433861E+00  0.28106712335E+02  0.00000000000E+00 0. -1.
</event>
<event>
 7    1  0.2732144E-009  0.1222804E+03  0.7561462E-02  0.1239382E+00
          1   -1    0    0  501    0  0.00000000000E+00  0.00000000000E+00  0.12052555274E+04  0.12052555274E+04  0.00000000000E+00 0. -1.
         -1   -1    0    0    0  501 -0.00000000000E+00 -0.00000000000E+00 -0.17946286780E+02  0.17946286780E+02  0.00000000000E+00 0.  1.
         25    2    1    2    0    0 -0.42107393938E+02  0.55961716817E+02  0.93721437395E+03  0.94811569618E+03  0.12509134352E+03 0.  0.
          5    1    3    3  502    0 -0.62723925968E+02 -0.15486782270E+02  0.55051231805E+03  0.55430624752E+03  0.41800000000E+01 0. -1.
         -5    1    3    3    0  502  0.20616532030E+02  0.71448499087E+02  0.38670205590E+03  0.39380944866E+03  0.41800000000E+01 0. -1.
        -11    1    1    2    0    0  0.15321741326E+01 -0.63962419322E+02  0.94738912689E+02  0.11431972805E+03  0.00000000000E+00 0.  1.
         11    1    1    2    0    0  0.40575219805E+02  0.80007025049E+01  0.15535595401E+03  0.16076638998E+03  0.00000000000E+00 0. -1.
</event>
<event>
 7    1  0.2732144E-009  0.1275903E+03  0.7561462E-02  0.1231076E+00
          2   -1    0    0  501    0  0.00000000000E+00  0.00000000000E+00  0.43823421535E+02  0.43823421535E+02  0.00000000000E+00 0.  1.
         -2   -1    0    0    0  501 -0.00000000000E+00 -0.00000000000E+00 -0.58209476052E+03  0.58209476052E+03  0.00000000000E+00 0. -1.
         25    2    1    2    0    0  0.25596877957E+02 -0.71007557170E+02 -0.47286809201E+03  0.49492260996E+03  0.12508750567E+03 0.  0.
          5    1    3    3  502    0 -0.12316990379E+02  0.30847840965E+02 -0.16620905689E+03  0.16954710418E+03  0.41800000000E+01 0. -1.
         -5    1    3    3    0  502  0.37913868336E+02 -0.10185539814E+03 -0.30665903512E+03  0.32537550578E+03  0.41800000000E+01 0. -1.
        -11    1    1    2    0    0  0.31086469423E+02  0.27079491182E+02 -0.30224083038E+02  0.51119102294E+02  0.00000000000E+00 0. -1.
         11    1    1    2    0    0 -0.56683347380E+02  0.43928065988E+02 -0.35179163931E+02  0.79876469793E+02  0.00000000000E+00 0.  1.
</event>
<event>
 7    1  0.2983763E-009  0.9246958E+02  0.7561462E-02  0.1296979E+00
         -1   -1    0    0    0  501 -0.00000000000E+00  0.00000000000E+00  0.14193256161E+03  0.14193256161E+03  0.00000000000E+00 0.  1.
          1   -1    0    0  501    0  0.00000000000E+00 -0.00000000000E+00 -0.10093876886E+03  0.10093876886E+03  0.00000000000E+00 0. -1.
         25    2    1    2    0    0  0.28827579380E+02  0.22950789550E+02  0.57321198035E+02  0.14244659277E+03  0.12509014339E+03 0.  0.
          5    1    3    3  502    0  0.28385543071E+02 -0.49826829272E+02  0.26076085736E+02  0.63133878529E+02  0.41800000000E+01 0. -1.
         -5    1    3    3    0  502  0.44203630844E+00  0.72777618822E+02  0.31245112299E+02  0.79312714240E+02  0.41800000000E+01 0. -1.
        -11    1    1    2    0    0  0.73014714412E+01 -0.16226560785E+02  0.33842502093E+02  0.38235163241E+02  0.00000000000E+00 0.  1.
         11    1    1    2    0    0 -0.36129050821E+02 -0.67242287650E+01 -0.50169907377E+02  0.62189574464E+02  0.00000000000E+00 0. -1.
</event>
<event>
 7    1  0.2732144E-009  0.8920017E+02  0.7561462E-02  0.1304800E+00
         -1   -1    0    0    0  501 -0.00000000000E+00  0.00000000000E+00  0.24227914641E+03  0.24227914641E+03  0.00000000000E+00 0.  1.
          1   -1    0    0  501    0  0.00000000000E+00 -0.00000000000E+00 -0.60226365175E+02  0.60226365175E+02  0.00000000000E+00 0. -1.
         25    2    1    2    0    0  0.39155077566E+02  0.31759266151E+02  0.81633443918E+02  0.15764998933E+03  0.12509088250E+03 0.  0.
          5    1    3    3  502    0  0.12261287516E+02 -0.15722314123E+02  0.98340085221E+02  0.10042795972E+03  0.41800000000E+01 0.  1.
         -5    1    3    3    0  502  0.26893790050E+02  0.47481580274E+02 -0.16706641302E+02  0.57222029605E+02  0.41800000000E+01 0.  1.
        -11    1    1    2    0    0  0.21067187146E+02 -0.37284398348E+02  0.52139837687E+02  0.67472330688E+02  0.00000000000E+00 0.  1.
         11    1    1    2    0    0 -0.60222264711E+02  0.55251321970E+01  0.48279499629E+02  0.77383191568E+02  0.00000000000E+00 0. -1.
</event>
<event>
 7    1  0.2732144E-009  0.1064949E+03  0.7561462E-02  0.1267202E+00
          1   -1    0    0  501    0  0.00000000000E+00  0.00000000000E+00  0.14043582131E+03  0.14043582131E+03  0.00000000000E+00 0. -1.
         -1   -1    0    0    0  501 -0.00000000000E+00 -0.00000000000E+00 -0.10566732636E+03  0.10566732636E+03  0.00000000000E+00 0.  1.
         25    2    1    2    0    0  0.77110826602E+01  0.71336143314E+01  0.73608199898E+02  0.14551278397E+03  0.12508178907E+03 0.  0.
          5    1    3    3  502    0 -0.53327571619E+02 -0.15569796365E+02  0.14745049518E+02  0.57629309721E+02  0.41800000000E+01 0. -1.
         -5    1    3    3    0  502  0.61038654279E+02  0.22703410697E+02  0.58863150380E+02  0.87883474249E+02  0.41800000000E+01 0. -1.
        -11    1    1    2    0    0  0.21881970540E+02 -0.41349586157E+02 -0.26200970078E+02  0.53619956575E+02  0.00000000000E+00 0.  1.
         11    1    1    2    0    0 -0.29593053201E+02  0.34215971826E+02 -0.12638734873E+02  0.46970407119E+02  0.00000000000E+00 0. -1.
</event>
<event>
 7    1  0.2732144E-009  0.8159620E+02  0.7561462E-02  0.1324582E+00
         -2   -1    0    0    0  501 -0.00000000000E+00  0.00000000000E+00  0.43477433331E+02  0.43477433331E+02  0.00000000000E+00 0.  1.
          2   -1    0    0  501    0  0.00000000000E+00 -0.00000000000E+00 -0.29419123016E+03  0.29419123016E+03  0.00000000000E+00 0. -1.
         25    2    1    2    0    0  0.15870368325E+02 -0.26605115140E+02 -0.12287925112E+03  0.17806240515E+03  0.12508880457E+03 0.  0.
          5    1    3    3  502    0  0.35646082985E+02 -0.43146730051E+02 -0.13722883137E+03  0.14826162047E+03  0.41800000000E+01 0. -1.
         -5    1    3    3    0  502 -0.19775714660E+02  0.16541614911E+02  0.14349580249E+02  0.29800784679E+02  0.41800000000E+01 0. -1.
        -11    1    1    2    0    0  0.28230014050E+02  0.23518269677E+02 -0.10196953931E+03  0.10838740540E+03  0.00000000000E+00 0. -1.
         11    1    1    2    0    0 -0.44100382375E+02  0.30868454628E+01 -0.25865006398E+02  0.51218852940E+02  0.00000000000E+00 0.  1.
</event>
<event>
 7    1  0.2732144E-009  0.1061500E+03  0.7561462E-02  0.1267870E+00
          1   -1    0    0  501    0  0.00000000000E+00  0.00000000000E+00  0.48398497045E+03  0.48398497045E+03  0.00000000000E+00 0.  1.
         -1   -1    0    0    0  501 -0.00000000000E+00 -0.00000000000E+00 -0.32615626997E+02  0.32615626997E+02  0.00000000000E+00 0. -1.
         25    2    1    2    0    0 -0.34392563148E+02  0.18067947960E+02  0.14719849099E+03  0.19704021970E+03  0.12509257886E+03 0.  0.
          5    1    3    3  502    0 -0.74950311069E+02 -0.37943470599E-01  0.50287892906E+02  0.90354275726E+02  0.41800000000E+01 0. -1.
         -5    1    3    3    0  502  0.40557747921E+02  0.18105891431E+02  0.96910598084E+02  0.10668594398E+03  0.41800000000E+01 0. -1.
        -11    1    1    2    0    0  0.38326911313E+02 -0.48567542928E+02  0.14835463358E+03  0.16073846977E+03  0.00000000000E+00 0. -1.
         11    1    1    2    0    0 -0.39343481649E+01  0.30499594968E+02  0.15581621888E+03  0.15882190799E+03  0.00000000000E+00 0.  1.
</event>
<event>
 7    1  0.2732144E-009  0.2759178E+03  0.7561462E-02  0.1097940E+00
          1   -1    0    0  501    0  0.00000000000E+00  0.00000000000E+00  0.14638532426E+04  0.14638532426E+04  0.00000000000E+00 0. -1.
         -1   -1    0    0    0  501 -0.00000000000E+00 -0.00000000000E+00 -0.59253392085E+02  0.59253392085E+02  0.00000000000E+00 0.  1.
         25    2    1    2    0    0  0.10356778973E+03 -0.24719212724E+03  0.85897084572E+03  0.90846488343E+03  0.12508915137E+03 0.  0.
          5    1    3    3  502    0  0.58937410882E+02 -0.54070094911E+02  0.12721284452E+03  0.15032555929E+03  0.41800000000E+01 0.  1.
         -5    1    3    3    0  502  0.44630378845E+02 -0.19312203232E+03  0.73175800120E+03  0.75813932414E+03  0.41800000000E+01 0.  1.
        -11    1    1    2    0    0 -0.51523934068E+02  0.59471447146E+02  0.23657089734E+03  0.24931377475E+03  0.00000000000E+00 0.  1.
         11    1    1    2    0    0 -0.52043855659E+02  0.18772068009E+03  0.30905810750E+03  0.36532797656E+03  0.00000000000E+00 0. -1.
</event>
<event>
 7    1  0.2732144E-009  0.9879267E+02  0.7561462E-02  0.1282855E+00
          2   -1    0    0  501    0  0.00000000000E+00  0.00000000000E+00  0.10595161548E+04  0.10595161548E+04  0.00000000000E+00 0.  1.
         -2   -1    0    0    0  501 -0.00000000000E+00 -0.00000000000E+00 -0.13457855329E+02  0.13457855329E+02  0.00000000000E+00 0. -1.
         25    2    1    2    0    0 -0.13404642090E+02  0.24229391732E+02  0.77174678096E+03  0.78230832170E+03  0.12508584420E+03 0.  0.
          5    1    3    3  502    0 -0.97190114560E+01 -0.38363449285E+02  0.99983190622E+02  0.10761191492E+03  0.41800000000E+01 0. -1.
         -5    1    3    3    0  502 -0.36856306341E+01  0.62592841017E+02  0.67176359034E+03  0.67469640678E+03  0.41800000000E+01 0. -1.
        -11    1    1    2    0    0  0.32078908866E+02 -0.52228942651E+02  0.19780001734E+03  0.20707912909E+03  0.00000000000E+00 0. -1.
         11    1    1    2    0    0 -0.18674266776E+02  0.27999550919E+02  0.76511501161E+02  0.83586559334E+02  0.00000000000E+00 0.  1.
</event>
<event>
 7    1  0.2732144E-009  0.1293870E+03  0.7561462E-02  0.1228368E+00
         -1   -1    0    0    0  501 -0.00000000000E+00  0.00000000000E+00  0.10887914831E+03  0.10887914831E+03  0.00000000000E+00 0.  1.
          1   -1    0    0  501    0  0.00000000000E+00 -0.00000000000E+00 -0.22932851330E+03  0.22932851330E+03  0.00000000000E+00 0. -1.
         25    2    1    2    0    0 -0.51415617519E+02  0.91660808024E+02 -0.11185322384E+03  0.19800081354E+03  0.12509160254E+03 0.  0.
          5    1    3    3  502    0 -0.46236956592E+02  0.26465553856E+02  0.14753675382E+02  0.55438479715E+02  0.41800000000E+01 0. -1.
         -5    1    3    3    0  502 -0.51786609268E+01  0.65195254168E+02 -0.12660689922E+03  0.14256233382E+03  0.41800000000E+01 0. -1.
        -11    1    1    2    0    0 -0.28461656984E+01  0.17588958555E+02  0.10088149662E+01  0.17846283363E+02  0.00000000000E+00 0. -1.
         11    1    1    2    0    0  0.54261783217E+02 -0.10924976658E+03 -0.96049561186E+01  0.12236056472E+03  0.00000000000E+00 0.  1.
</event>
<event>
 7    1  0.2732144E-009  0.1052462E+03  0.7561462E-02  0.1269635E+00
          3   -1    0    0  501    0  0.00000000000E+00  0.00000000000E+00  0.25320573758E+03  0.25320573758E+03  0.00000000000E+00 0. -1.
         -3   -1    0    0    0  501 -0.00000000000E+00 -0.00000000000E+00 -0.92085985981E+02  0.92085985981E+02  0.00000000000E+00 0.  1.
         25    2    1    2    0    0  0.53160549425E+02 -0.64862531915E+02  0.16285296453E+03  0.22180747175E+03  0.12507707386E+03 0.  0.
          5    1    3    3  502    0  0.16707349551E+02 -0.46314751814E+02  0.17261707876E+03  0.17955032733E+03  0.41800000000E+01 0. -1.
         -5    1    3    3    0  502  0.36453199874E+02 -0.18547780101E+02 -0.97641142309E+01  0.42257144419E+02  0.41800000000E+01 0. -1.
        -11    1    1    2    0    0 -0.44514412610E+02 -0.91538694648E+01 -0.14867406337E+02  0.47815959965E+02  0.00000000000E+00 0.  1.
         11    1    1    2    0    0 -0.86461368154E+01  0.74016401379E+02  0.13134193409E+02  0.75668291850E+02  0.00000000000E+00 0. -1.
</event>
<event>
 7    1  0.2732144E-009  0.2343865E+03  0.7561462E-02  0.1123590E+00
          2   -1    0    0  501    0  0.00000000000E+00  0.00000000000E+00  0.16599487905E+03  0.16599487905E+03  0.00000000000E+00 0. -1.
         -2   -1    0    0    0  501 -0.00000000000E+00 -0.00000000000E+00 -0.33831256462E+03  0.33831256462E+03  0.00000000000E+00 0.  1.
         25    2    1    2    0    0  0.14911495674E+03  0.14815507475E+03 -0.10340960537E+03  0.26556845600E+03  0.12509141393E+03 0.  0.
          5    1    3    3  502    0  0.11205213620E+03  0.24859007492E+02 -0.37145827271E+02  0.12071013364E+03  0.41800000000E+01 0.  1.
         -5    1    3    3    0  502  0.37062820544E+02  0.12329606726E+03 -0.66263778101E+02  0.14485832236E+03  0.41800000000E+01 0.  1.
        -11    1    1    2    0    0 -0.48298715416E+02 -0.30218857855E+01 -0.32557723986E+02  0.58325835577E+02  0.00000000000E+00 0.  1.
         11    1    1    2    0    0 -0.10081624133E+03 -0.14513318896E+03 -0.36350356217E+02  0.18041315210E+03  0.00000000000E+00 0. -1.
</event>
<event>
 7    1  0.2732144E-009  0.1464985E+03  0.7561462E-02  0.1204843E+00
          1   -1    0    0  501    0  0.00000000000E+00  0.00000000000E+00  0.65884490606E+03  0.65884490606E+03  0.00000000000E+00 0. -1.
         -1   -1    0    0    0  501 -0.00000000000E+00 -0.00000000000E+00 -0.50544246372E+02  0.50544246372E+02  0.00000000000E+00 0.  1.
         25    2    1    2    0    0  0.12245095659E+03  0.79982019428E+01  0.16562559080E+03  0.24111698156E+03  0.12508938589E+03 0.  0.
          5    1    3    3  502    0  0.13419753979E+03  0.20634498959E+01  0.84123439330E+02  0.15845334631E+03  0.41800000000E+01 0.  1.
         -5    1    3    3    0  502 -0.11746583195E+02  0.59347520469E+01  0.81502151474E+02  0.82663635255E+02  0.41800000000E+01 0.  1.
        -11    1    1    2    0    0  0.24865411456E+01 -0.19302605720E+02  0.22398636130E+02  0.29672754758E+02  0.00000000000E+00 0.  1.
         11    1    1    2    0    0 -0.12493749774E+03  0.11304403777E+02  0.42027643275E+03  0.43859941611E+03  0.00000000000E+00 0. -1.
</event>
<event>
 7    1  0.2732144E-009  0.1280352E+03  0.7561462E-02  0.1230401E+00
          4   -1    0    0  501    0  0.00000000000E+00  0.00000000000E+00  0.17538203620E+03  0.17538203620E+03  0.00000000000E+00 0.  1.
         -4   -1    0    0    0  501 -0.00000000000E+00 -0.00000000000E+00 -0.16591262315E+03  0.16591262315E+03  0.00000000000E+00 0. -1.
         25    2    1    2    0    0  0.50554200315E+02 -0.10950913886E+03  0.57353080311E+02  0.18298386246E+03  0.12508293023E+03 0.  0.
          5    1    3    3  502    0  0.58606213504E+02 -0.69644443391E+02 -0.21983548273E+02  0.93732521311E+02  0.41800000000E+01 0.  1.
         -5    1    3    3    0  502 -0.80520131891E+01 -0.39864695468E+02  0.79336628584E+02  0.89251341145E+02  0.41800000000E+01 0.  1.
        -11    1    1    2    0    0 -0.11413440405E+02  0.59388496573E+02  0.21508886747E+02  0.64186387624E+02  0.00000000000E+00 0.  1.
         11    1    1    2    0    0 -0.39140759910E+02  0.50120642286E+02 -0.69392554003E+02  0.94124409270E+02  0.00000000000E+00 0. -1.
</event>
<event>
 7    1  0.3403157E-009  0.9695282E+02  0.7561462E-02  0.1286837E+00
         -1   -1    0    0    0  501 -0.00000000000E+00  0.00000000000E+00  0.11232685321E+03  0.11232685321E+03  0.00000000000E+00 0.  1.
          1   -1    0    0  501    0  0.00000000000E+00 -0.00000000000E+00 -0.12260749000E+03  0.12260749000E+03  0.00000000000E+00 0. -1.
         25    2    1    2    0    0  0.17715644791E+01  0.37839873890E+02  0.16638964635E+02  0.13175518833E+03  0.12509028744E+03 0.  0.
          5    1    3    3  502    0  0.46006385355E+02  0.61966065169E+02 -0.34093250950E+01  0.77365862133E+02  0.41800000000E+01 0.  1.
         -5    1    3    3    0  502 -0.44234820876E+02 -0.24126191278E+02  0.20048289730E+02  0.54389326201E+02  0.41800000000E+01 0.  1.
        -11    1    1    2    0    0  0.22779996171E+02 -0.23499531958E+01  0.26161737299E+02  0.34769052389E+02  0.00000000000E+00 0.  1.
         11    1    1    2    0    0 -0.24551560650E+02 -0.35489920695E+02 -0.53081338729E+02  0.68410102489E+02  0.00000000000E+00 0. -1.
</event>
<event>
 7    1  0.2732144E-009  0.8325123E+02  0.7561462E-02  0.1320070E+00
          1   -1    0    0  501    0  0.00000000000E+00  0.00000000000E+00  0.11342045361E+03  0.11342045361E+03  0.00000000000E+00 0. -1.
         -1   -1    0    0    0  501 -0.00000000000E+00 -0.00000000000E+00 -0.11780366140E+03  0.11780366140E+03  0.00000000000E+00 0.  1.
         25    2    1    2    0    0  0.10807057078E+02 -0.29876080267E+02 -0.18545880574E+02  0.13038699182E+03  0.12508974896E+03 0.  0.
          5    1    3    3  502    0  0.19662359543E+02  0.24871808396E+02 -0.55188472019E+02  0.63784442300E+02  0.41800000000E+01 0. -1.
         -5    1    3    3    0  502 -0.88553024649E+01 -0.54747888663E+02  0.36642591445E+02  0.66602549521E+02  0.41800000000E+01 0. -1.
        -11    1    1    2    0    0 -0.35881459294E+02 -0.47077232193E+01  0.37538735544E+02  0.52142098589E+02  0.00000000000E+00 0. -1.
         11    1    1    2    0    0  0.25074402216E+02  0.34583803487E+02 -0.23376062765E+02  0.48695024596E+02  0.00000000000E+00 0.  1.
</event>
<event>
 7    1  0.2732144E-009  0.1088830E+03  0.7561462E-02  0.1262652E+00
          2   -1    0    0  501    0  0.00000000000E+00  0.00000000000E+00  0.10001283786E+04  0.10001283786E+04  0.00000000000E+00 0. -1.
         -2   -1    0    0    0  501 -0.00000000000E+00 -0.00000000000E+00 -0.12477725632E+02  0.12477725632E+02  0.00000000000E+00 0.  1.
         25    2    1    2    0    0  0.22529083686E+02 -0.97743385686E+00  0.60634260807E+03  0.61952190679E+03  0.12509004614E+03 0.  0.
          5    1    3    3  502    0  0.65371845315E+02 -0.32692635435E+02  0.37519241233E+03  0.38226836809E+03  0.41800000000E+01 0.  1.
         -5    1    3    3    0  502 -0.42842761629E+02  0.31715201578E+02  0.23115019574E+03  0.23725353870E+03  0.41800000000E+01 0.  1.
        -11    1    1    2    0    0  0.10634186453E+02 -0.38261386145E+02  0.10986127607E+03  0.11681831865E+03  0.00000000000E+00 0.  1.
         11    1    1    2    0    0 -0.33163270139E+02  0.39238820002E+02  0.27144676884E+03  0.27626587881E+03  0.00000000000E+00 0. -1.
</event>
<event>
 7    1  0.2732144E-009  0.1502892E+03  0.7561462E-02  0.1200118E+00
          2   -1    0    0  501    0  0.00000000000E+00  0.00000000000E+00  0.31666225015E+03  0.31666225015E+03  0.00000000000E+00 0. -1.
         -2   -1    0    0    0  501 -0.00000000000E+00 -0.00000000000E+00 -0.79001596712E+02  0.79001596712E+02  0.00000000000E+00 0.  1.
         25    2    1    2    0    0 -0.70947038053E+02 -0.90171358641E+02  0.14538045696E+03  0.22350531941E+03  0.12511912090E+03 0.  0.
          5    1    3    3  502    0  0.30988504619E+02 -0.50322147124E+02  0.62787842675E+02  0.86327234969E+02  0.41800000000E+01 0.  1.
         -5    1    3    3    0  502 -0.10193554267E+03 -0.39849211517E+02  0.82592614281E+02  0.13717808445E+03  0.41800000000E+01 0.  1.
        -11    1    1    2    0    0  0.66197890175E+02  0.32154573145E+02  0.14501699208E+02  0.75009176223E+02  0.00000000000E+00 0.  1.
         11    1    1    2    0    0  0.47491478783E+01  0.58016785496E+02  0.77778497269E+02  0.97149351219E+02  0.00000000000E+00 0. -1.
</event>
<event>
 7    1  0.2732144E-009  0.1183562E+03  0.7561462E-02  0.1245834E+00
         -1   -1    0    0    0  501 -0.00000000000E+00  0.00000000000E+00  0.11339608929E+04  0.11339608929E+04  0.00000000000E+00 0.  1.
          1   -1    0    0  501    0  0.00000000000E+00 -0.00000000000E+00 -0.23125856467E+02  0.23125856467E+02  0.00000000000E+00 0. -1.
         25    2    1    2    0    0 -0.66241420371E+02  0.80174642837E+02  0.80980759034E+03  0.82598543770E+03  0.12509081021E+03 0.  0.
          5    1    3    3  502    0 -0.82553328522E+02  0.67550886394E+02  0.78968598207E+03  0.79686861965E+03  0.41800000000E+01 0.  1.
         -5    1    3    3    0  502  0.16311908151E+02  0.12623756443E+02  0.20121608268E+02  0.29116818053E+02  0.41800000000E+01 0.  1.
        -11    1    1    2    0    0  0.51198330103E+02 -0.78582429226E+02  0.30171723580E+03  0.31595847443E+03  0.00000000000E+00 0.  1.
         11    1    1    2    0    0  0.15043090269E+02 -0.15922136101E+01 -0.68978972323E+00  0.15142837213E+02  0.00000000000E+00 0. -1.
</event>
<event>
 7    1  0.2732144E-009  0.1719338E+03  0.7561462E-02  0.1175846E+00
         -2   -1    0    0    0  501 -0.00000000000E+00  0.00000000000E+00  0.36154246319E+02  0.36154246319E+02  0.00000000000E+00 0.  1.
          2   -1    0    0  501    0  0.00000000000E+00 -0.00000000000E+00 -0.95071343243E+03  0.95071343243E+03  0.00000000000E+00 0. -1.
         25    2    1    2    0    0  0.70501578303E+02  0.13072712885E+03 -0.51488396856E+03  0.55028561200E+03  0.12509475982E+03 0.  0.
          5    1    3    3  502    0  0.76560777350E+02  0.15277678603E+03 -0.45432172906E+03  0.48541529114E+03  0.41800000000E+01 0.  1.
         -5    1    3    3    0  502 -0.60591990473E+01 -0.22049657184E+02 -0.60562239498E+02  0.64870320856E+02  0.41800000000E+01 0.  1.
        -11    1    1    2    0    0 -0.28468983216E+02 -0.34866896447E+02 -0.34532898460E+02  0.56733628029E+02  0.00000000000E+00 0.  1.
         11    1    1    2    0    0 -0.42032595086E+02 -0.95860232403E+02 -0.36514231909E+03  0.37984843872E+03  0.00000000000E+00 0. -1.
</event>
<event>
 7    1  0.2732144E-009  0.1140504E+03  0.7561462E-02  0.1253248E+00
          4   -1    0    0  501    0  0.00000000000E+00  0.00000000000E+00  0.38609418872E+03  0.38609418872E+03  0.00000000000E+00 0. -1.
         -4   -1    0    0    0  501 -0.00000000000E+00 -0.00000000000E+00 -0.42406210798E+02  0.42406210798E+02  0.00000000000E+00 0.  1.
         25    2    1    2    0    0  0.26132136064E+02  0.63926305172E+02  0.20099910279E+03  0.24660677040E+03  0.12507917036E+03 0.  0.
          5    1    3    3  502    0 -0.40252807638E+02  0.42198797356E+02  0.14705667536E+03  0.15825348397E+03  0.41800000000E+01 0. -1.
         -5    1    3    3    0  502  0.66384943702E+02  0.21727507816E+02  0.53942427432E+02  0.88353286433E+02  0.41800000000E+01 0. -1.
        -11    1    1    2    0    0  0.15557010801E+02 -0.54821206682E+02  0.37074658114E+02  0.67984671518E+02  0.00000000000E+00 0.  1.
         11    1    1    2    0    0 -0.41689146865E+02 -0.91050984894E+01  0.10561421702E+03  0.11390895760E+03  0.00000000000E+00 0. -1.
</event>
<event>
 7    1  0.2732144E-009  0.1002118E+03  0.7561462E-02  0.1279851E+00
          1   -1    0    0  501    0  0.00000000000E+00  0.00000000000E+00  0.32359940481E+03  0.32359940481E+03  0.00000000000E+00 0. -1.
         -1   -1    0    0    0  501 -0.00000000000E+00 -0.00000000000E+00 -0.57537486474E+02  0.57537486474E+02  0.00000000000E+00 0.  1.
         25    2    1    2    0    0  0.57264803297E+02  0.44340794597E+02  0.20228646076E+03  0.24861810546E+03  0.12508311794E+03 0.  0.
          5    1    3    3  502    0  0.95139172806E+01 -0.21829744739E+02  0.14927472469E+03  0.15121993323E+03  0.41800000000E+01 0.  1.
         -5    1    3    3    0  502  0.47750886016E+02  0.66170539336E+02  0.53011736069E+02  0.97398172223E+02  0.41800000000E+01 0.  1.
        -11    1    1    2    0    0 -0.40774622518E+02  0.63203931974E+01  0.67498893728E+02  0.79111426900E+02  0.00000000000E+00 0. -1.
         11    1    1    2    0    0 -0.16490180779E+02 -0.50661187794E+02 -0.37234361469E+01  0.53407358927E+02  0.00000000000E+00 0.  1.
</event>
<event>
 7    1  0.2732144E-009  0.1283785E+03  0.7561462E-02  0.1229882E+00
         -1   -1    0    0    0  501 -0.00000000000E+00  0.00000000000E+00  0.30729459286E+02  0.30729459286E+02  0.00000000000E+00 0.  1.
          1   -1    0    0  501    0  0.00000000000E+00 -0.00000000000E+00 -0.65074397024E+03  0.65074397024E+03  0.00000000000E+00 0. -1.
         25    2    1    2    0    0  0.67055320906E+02 -0.17404699532E+02 -0.47981104732E+03  0.50066486922E+03  0.12508929014E+03 0.  0.
          5    1    3    3  502    0  0.82057202311E+01 -0.65881718615E+02 -0.21361311847E+03  0.22373147180E+03  0.41800000000E+01 0. -1.
         -5    1    3    3    0  502  0.58849600675E+02  0.48477019083E+02 -0.26619792885E+03  0.27693339741E+03  0.41800000000E+01 0. -1.
        -11    1    1    2    0    0 -0.71012208056E+02  0.46259403363E+02 -0.10983421578E+03  0.13873075019E+03  0.00000000000E+00 0.  1.
         11    1    1    2    0    0  0.39568871498E+01 -0.28854703831E+02 -0.30369247849E+02  0.42077810115E+02  0.00000000000E+00 0. -1.
</event>
<event>
 7    1  0.2732144E-009  0.8327910E+02  0.7561462E-02  0.1319995E+00
         -1   -1    0    0    0  501 -0.00000000000E+00  0.00000000000E+00  0.12518288655E+03  0.12518288655E+03  0.00000000000E+00 0.  1.
          1   -1    0    0  501    0  0.00000000000E+00 -0.00000000000E+00 -0.11647003340E+03  0.11647003340E+03  0.00000000000E+00 0. -1.
         25    2    1    2    0    0  0.37445664956E+02 -0.33475586596E+02 -0.96689992792E+01  0.13514290908E+03  0.12508926255E+03 0.  0.
          5    1    3    3  502    0  0.90090860257E+01 -0.45092684699E+02 -0.60194913657E+02  0.75864444073E+02  0.41800000000E+01 0.  1.
         -5    1    3    3    0  502  0.28436578931E+02  0.11617098103E+02  0.50525914378E+02  0.59278465005E+02  0.41800000000E+01 0.  1.
        -11    1    1    2    0    0 -0.10232968318E+02 -0.23835941403E+02 -0.19648113571E+02  0.32540960497E+02  0.00000000000E+00 0. -1.
         11    1    1    2    0    0 -0.27212696638E+02  0.57311528000E+02  0.38029966000E+02  0.73969050378E+02  0.00000000000E+00 0.  1.
</event>
<event>
 7    1  0.2732144E-009  0.1696707E+03  0.7561462E-02  0.1178192E+00
          2   -1    0    0  501    0  0.00000000000E+00  0.00000000000E+00  0.20296139581E+03  0.20296139581E+03  0.00000000000E+00 0. -1.
         -2   -1    0    0    0  501 -0.00000000000E+00 -0.00000000000E+00 -0.18392597098E+03  0.18392597098E+03  0.00000000000E+00 0.  1.
         25    2    1    2    0    0 -0.13923606593E+03 -0.45997728403E+02  0.78488361918E+02  0.20811335658E+03  0.12509305799E+03 0.  0.
          5    1    3    3  502    0 -0.90882293962E+00 -0.39160315639E+02  0.54883978749E+02  0.67557973647E+02  0.41800000000E+01 0.  1.
         -5    1    3    3    0  502 -0.13832724299E+03 -0.68374127641E+01  0.23604383170E+02  0.14055538294E+03  0.41800000000E+01 0.  1.
        -11    1    1    2    0    0  0.12911346991E+02  0.31735874447E+02  0.75303615173E+01  0.35079551773E+02  0.00000000000E+00 0. -1.
         11    1    1    2    0    0  0.12632471894E+03  0.14261853956E+02 -0.66983298607E+02  0.14369445844E+03  0.00000000000E+00 0.  1.
</event>
<event>
 7    1  0.2732144E-009  0.1116658E+03  0.7561462E-02  0.1257516E+00
          1   -1    0    0  501    0  0.00000000000E+00  0.00000000000E+00  0.13429450742E+03  0.13429450742E+03  0.00000000000E+00 0. -1.
         -1   -1    0    0    0  501 -0.00000000000E+00 -0.00000000000E+00 -0.10756413535E+03  0.10756413535E+03  0.00000000000E+00 0.  1.
         25    2    1    2    0    0  0.26356398573E+02 -0.41444623332E+02  0.17496569794E+02  0.13551690978E+03  0.12508551608E+03 0.  0.
          5    1    3    3  502    0 -0.25359432938E+02 -0.59576730647E+02 -0.21244625254E+02  0.68273671175E+02  0.41800000000E+01 0.  1.
         -5    1    3    3    0  502  0.51715831512E+02  0.18132107315E+02  0.38741195048E+02  0.67243238607E+02  0.41800000000E+01 0.  1.
        -11    1    1    2    0    0 -0.32508585900E+02 -0.22314682335E+02  0.14635604721E+02  0.42058936393E+02  0.00000000000E+00 0. -1.
         11    1    1    2    0    0  0.61521873270E+01  0.63759305667E+02 -0.54018024410E+01  0.64282796592E+02  0.00000000000E+00 0.  1.
</event>
<event>
 7    1  0.2732144E-009  0.2134629E+03  0.7561462E-02  0.1138853E+00
         -1   -1    0    0    0  501 -0.00000000000E+00  0.00000000000E+00  0.99996875590E+02  0.99996875590E+02  0.00000000000E+00 0. -1.
          1   -1    0    0  501    0  0.00000000000E+00 -0.00000000000E+00 -0.50761976302E+03  0.50761976302E+03  0.00000000000E+00 0.  1.
         25    2    1    2    0    0  0.22924879797E+02 -0.19242040067E+03 -0.25250249390E+03  0.34198929231E+03  0.12509198983E+03 0.  0.
          5    1    3    3  502    0 -0.36081642466E+02 -0.86636166829E+01 -0.35087135987E+02  0.51239854497E+02  0.41800000000E+01 0.  1.
         -5    1    3    3    0  502  0.59006522263E+02 -0.18375678399E+03 -0.21741535791E+03  0.29074943781E+03  0.41800000000E+01 0.  1.
        -11    1    1    2    0    0  0.53187259967E+01  0.93926722501E+02 -0.20219350736E+02  0.96225465393E+02  0.00000000000E+00 0.  1.
         11    1    1    2    0    0 -0.28243605794E+02  0.98493678172E+02 -0.13490104280E+03  0.16940188091E+03  0.00000000000E+00 0. -1.
</event>
<event>
 7    1  0.3150711E-009  0.1350437E+03  0.7561462E-02  0.1220158E+00
          2   -1    0    0  501    0  0.00000000000E+00  0.00000000000E+00  0.11252068767E+04  0.11252068767E+04  0.00000000000E+00 0.  1.
         -2   -1    0    0    0  501 -0.00000000000E+00 -0.00000000000E+00 -0.23939386939E+02  0.23939386939E+02  0.00000000000E+00 0. -1.
         25    2    1    2    0    0 -0.40571923506E+02 -0.11511389972E+03  0.62929169272E+03  0.65310909147E+03  0.12508461115E+03 0.  0.
          5    1    3    3  502    0 -0.39485674478E+02 -0.39655989112E+02  0.50157018854E+03  0.50469975470E+03  0.41800000000E+01 0. -1.
         -5    1    3    3    0  502 -0.10862490277E+01 -0.75457910608E+02  0.12772150418E+03  0.14840933677E+03  0.41800000000E+01 0. -1.
        -11    1    1    2    0    0 -0.14167186012E+02  0.56247300693E+02  0.10116921287E+03  0.11661765573E+03  0.00000000000E+00 0. -1.
         11    1    1    2    0    0  0.54739109518E+02  0.58866599028E+02  0.37080658418E+03  0.37941951645E+03  0.00000000000E+00 0.  1.
</event>
<event>
 7    1  0.2732144E-009  0.6004066E+02  0.7561462E-02  0.1397661E+00
          4   -1    0    0  501    0  0.00000000000E+00  0.00000000000E+00  0.17359948330E+03  0.17359948330E+03  0.00000000000E+00 0. -1.
         -4   -1    0    0    0  501 -0.00000000000E+00 -0.00000000000E+00 -0.69971874530E+02  0.69971874530E+02  0.00000000000E+00 0.  1.
         25    2    1    2    0    0 -0.18153346820E+02 -0.19187123773E+02  0.88671860915E+02  0.15558624521E+03  0.12508673415E+03 0.  0.
          5    1    3    3  502    0 -0.21792904184E+02 -0.26420151543E+02  0.11900930725E+03  0.12390981677E+03  0.41800000000E+01 0.  1.
         -5    1    3    3    0  502  0.36395573639E+01  0.72330277699E+01 -0.30337446332E+02  0.31676428436E+02  0.41800000000E+01 0.  1.
        -11    1    1    2    0    0 -0.65684751392E+01 -0.24991943021E+02  0.25465627702E+02  0.36280025853E+02  0.00000000000E+00 0.  1.
         11    1    1    2    0    0  0.24721821960E+02  0.44179066794E+02 -0.10509879847E+02  0.51705086773E+02  0.00000000000E+00 0. -1.
</event>
<event>
 7    1  0.2732144E-009  0.1202027E+03  0.7561462E-02  0.1242763E+00
          1   -1    0    0  501    0  0.00000000000E+00  0.00000000000E+00  0.31989321626E+02  0.31989321626E+02  0.00000000000E+00 0. -1.
         -1   -1    0    0    0  501 -0.00000000000E+00 -0.00000000000E+00 -0.61679026352E+03  0.61679026352E+03  0.00000000000E+00 0.  1.
         25    2    1    2    0    0  0.18916502389E+02 -0.69353801138E+02 -0.43548731860E+03  0.45876524505E+03  0.12509421093E+03 0.  0.
          5    1    3    3  502    0 -0.37663065854E+02 -0.45030781986E+01 -0.45555923215E+02  0.59427256228E+02  0.41800000000E+01 0.  1.
         -5    1    3    3    0  502  0.56579568243E+02 -0.64850722939E+02 -0.38993139538E+03  0.39933798882E+03  0.41800000000E+01 0.  1.
        -11    1    1    2    0    0 -0.49015704852E+02  0.70609114710E+02 -0.12273544127E+03  0.14984049835E+03  0.00000000000E+00 0. -1.
         11    1    1    2    0    0  0.30099202463E+02 -0.12553135715E+01 -0.26578182027E+02  0.40173841750E+02  0.00000000000E+00 0.  1.
</event>
<event>
 7    1  0.2732144E-009  0.1504142E+03  0.7561462E-02  0.1199965E+00
         -1   -1    0    0    0  501 -0.00000000000E+00  0.00000000000E+00  0.21896975155E+02  0.21896975155E+02  0.00000000000E+00 0.  1.
          1   -1    0    0  501    0  0.00000000000E+00 -0.00000000000E+00 -0.16474236207E+04  0.16474236207E+04  0.00000000000E+00 0. -1.
         25    2    1    2    0    0 -0.53291122902E+02  0.12110736452E+03 -0.11799392870E+04  0.11939059202E+04  0.12509071850E+03 0.  0.
          5    1    3    3  502    0  0.96249724517E+01  0.33373487577E+02 -0.74242284844E+03  0.74324665357E+03  0.41800000000E+01 0.  1.
         -5    1    3    3    0  502 -0.62916095354E+02  0.87733876940E+02 -0.43751643855E+03  0.45065926665E+03  0.41800000000E+01 0.  1.
        -11    1    1    2    0    0  0.61773174035E+02 -0.34449232916E+02 -0.12953212605E+03  0.14758470909E+03  0.00000000000E+00 0.  1.
         11    1    1    2    0    0 -0.84820511334E+01 -0.86658131600E+02 -0.31605523252E+03  0.32782996655E+03  0.00000000000E+00 0. -1.
</event>
<event>
 7    1  0.2732144E-009  0.9469039E+02  0.7561462E-02  0.1291875E+00
         -2   -1    0    0    0  501 -0.00000000000E+00  0.00000000000E+00  0.22020005583E+02  0.22020005583E+02  0.00000000000E+00 0.  1.
          2   -1    0    0  501    0  0.00000000000E+00 -0.00000000000E+00 -0.80124081538E+03  0.80124081538E+03  0.00000000000E+00 0. -1.
         25    2    1    2    0    0  0.57134735538E+02 -0.44158687475E+02 -0.37205131745E+03  0.39910426369E+03  0.12509061836E+03 0.  0.
          5    1    3    3  502    0  0.27439560676E+00 -0.34642345657E+02 -0.31818735581E+03  0.32009503776E+03  0.41800000000E+01 0.  1.
         -5    1    3    3    0  502  0.56860339931E+02 -0.95163418180E+01 -0.53863961637E+02  0.79009225929E+02  0.41800000000E+01 0.  1.
        -11    1    1    2    0    0 -0.62772216518E+02  0.55647072509E+02 -0.40148281690E+03  0.41015289845E+03  0.00000000000E+00 0. -1.
         11    1    1    2    0    0  0.56374809806E+01 -0.11488385034E+02 -0.56866754546E+01  0.14003658816E+02  0.00000000000E+00 0.  1.
</event>
<event>
 7    1  0.2732144E-009  0.1419412E+03  0.7561462E-02  0.1210741E+00
         -2   -1    0    0    0  501 -0.00000000000E+00  0.00000000000E+00  0.20163931665E+02  0.20163931665E+02  0.00000000000E+00 0. -1.
          2   -1    0    0  501    0  0.00000000000E+00 -0.00000000000E+00 -0.11560720592E+04  0.11560720592E+04  0.00000000000E+00 0.  1.
         25    2    1    2    0    0 -0.90753889744E+02  0.50728028628E+02 -0.71031606708E+03  0.72870143076E+03  0.12508900292E+03 0.  0.
          5    1    3    3  502    0  0.23444500772E+02  0.22969618037E+02 -0.66988965564E+02  0.74714402069E+02  0.41800000000E+01 0. -1.
         -5    1    3    3    0  502 -0.11419839052E+03  0.27758410591E+02 -0.64332710151E+03  0.65398702869E+03  0.41800000000E+01 0. -1.
        -11    1    1    2    0    0  0.10114273333E+03 -0.23192584959E+02 -0.37410679989E+03  0.38823143384E+03  0.00000000000E+00 0.  1.
         11    1    1    2    0    0 -0.10388843583E+02 -0.27535443670E+02 -0.51485260616E+02  0.59303126307E+02  0.00000000000E+00 0. -1.
</event>
<event>
 7    1  0.2732144E-009  0.1539687E+03  0.7561462E-02  0.1195679E+00
         -1   -1    0    0    0  501 -0.00000000000E+00  0.00000000000E+00  0.71675170789E+02  0.71675170789E+02  0.00000000000E+00 0.  1.
          1   -1    0    0  501    0  0.00000000000E+00 -0.00000000000E+00 -0.47893769068E+03  0.47893769068E+03  0.00000000000E+00 0. -1.
         25    2    1    2    0    0 -0.12835451316E+03 -0.65242900297E+02 -0.28508616436E+03  0.34300682053E+03  0.12509212897E+03 0.  0.
          5    1    3    3  502    0 -0.43081009589E+02  0.15321550884E+02 -0.17896850383E+03  0.18476450165E+03  0.41800000000E+01 0.  1.
         -5    1    3    3    0  502 -0.85273503573E+02 -0.80564451181E+02 -0.10611766054E+03  0.15824231888E+03  0.41800000000E+01 0.  1.
        -11    1    1    2    0    0  0.21754950600E+02  0.17088728458E+02 -0.77677056267E+02  0.82456216177E+02  0.00000000000E+00 0. -1.
         11    1    1    2    0    0  0.10659956256E+03  0.48154171839E+02 -0.44499299261E+02  0.12514982476E+03  0.00000000000E+00 0.  1.
</event>
<event>
 7    1  0.2732144E-009  0.3199823E+03  0.7561462E-02  0.1075657E+00
         -1   -1    0    0    0  501 -0.00000000000E+00  0.00000000000E+00  0.18965754977E+03  0.18965754977E+03  0.00000000000E+00 0.  1.
          1   -1    0    0  501    0  0.00000000000E+00 -0.00000000000E+00 -0.67546428466E+03  0.67546428466E+03  0.00000000000E+00 0. -1.
         25    2    1    2    0    0  0.29975494354E+03  0.24572009471E+02 -0.53942190843E+02  0.33017253911E+03  0.12508931132E+03 0.  0.
          5    1    3    3  502    0  0.23681875502E+03 -0.33413816821E+02 -0.29094732582E+02  0.24096385984E+03  0.41800000000E+01 0. -1.
         -5    1    3    3    0  502  0.62936188521E+02  0.57985826292E+02 -0.24847458260E+02  0.89208679277E+02  0.41800000000E+01 0. -1.
        -11    1    1    2    0    0 -0.18687171688E+03  0.30733349379E+02 -0.24312116868E+03  0.30817767601E+03  0.00000000000E+00 0.  1.
         11    1    1    2    0    0 -0.11288322666E+03 -0.55305358849E+02 -0.18874337537E+03  0.22677161931E+03  0.00000000000E+00 0. -1.
</event>
<event>
 7    1  0.2732144E-009  0.1142675E+03  0.7561462E-02  0.1252865E+00
         -1   -1    0    0    0  501 -0.00000000000E+00  0.00000000000E+00  0.98184993615E+01  0.98184993615E+01  0.00000000000E+00 0.  1.
          1   -1    0    0  501    0  0.00000000000E+00 -0.00000000000E+00 -0.16588879801E+04  0.16588879801E+04  0.00000000000E+00 0. -1.
         25    2    1    2    0    0  0.40287536637E+02  0.64491981028E+02 -0.12828541677E+04  0.12911796632E+04  0.12509119000E+03 0.  0.
          5    1    3    3  502    0  0.80125151638E+02  0.69324231765E+02 -0.92290097906E+03  0.92897232391E+03  0.41800000000E+01 0. -1.
         -5    1    3    3    0  502 -0.39837615001E+02 -0.48322507378E+01 -0.35995318866E+03  0.36220733930E+03  0.41800000000E+01 0. -1.
        -11    1    1    2    0    0  0.27932589573E+01 -0.20103387591E+02 -0.33964111374E+02  0.39566518038E+02  0.00000000000E+00 0.  1.
         11    1    1    2    0    0 -0.43080795594E+02 -0.44388593437E+02 -0.33225120161E+03  0.33796029819E+03  0.00000000000E+00 0. -1.
</event>
<event>
 7    1  0.2732144E-009  0.1086777E+03  0.7561462E-02  0.1263038E+00
         -1   -1    0    0    0  501 -0.00000000000E+00  0.00000000000E+00  0.17381992861E+03  0.17381992861E+03  0.00000000000E+00 0.  1.
          1   -1    0    0  501    0  0.00000000000E+00 -0.00000000000E+00 -0.90738950856E+02  0.90738950856E+02  0.00000000000E+00 0. -1.
         25    2    1    2    0    0 -0.84994465314E+01  0.46782557115E+02  0.13437849773E+01  0.13382768187E+03  0.12508874623E+03 0.  0.
          5    1    3    3  502    0  0.23349773958E+02  0.78875379562E+02  0.19965771687E+02  0.84750468341E+02  0.41800000000E+01 0.  1.
         -5    1    3    3    0  502 -0.31849220490E+02 -0.32092822446E+02 -0.18621986710E+02  0.49077213525E+02  0.41800000000E+01 0.  1.
        -11    1    1    2    0    0  0.51482524714E+01 -0.67953722708E+02  0.29485116619E+02  0.74253518674E+02  0.00000000000E+00 0. -1.
         11    1    1    2    0    0  0.33511940600E+01  0.21171165593E+02  0.52252076156E+02  0.56477678925E+02  0.00000000000E+00 0.  1.
</event>
<event>
 7    1  0.2732144E-009  0.1808421E+03  0.7561462E-02  0.1166991E+00
          2   -1    0    0  501    0  0.00000000000E+00  0.00000000000E+00  0.77659896839E+03  0.77659896839E+03  0.00000000000E+00 0. -1.
         -2   -1    0    0    0  501 -0.00000000000E+00 -0.00000000000E+00 -0.82807825820E+02  0.82807825820E+02  0.00000000000E+00 0.  1.
         25    2    1    2    0    0 -0.15239526936E+03 -0.42602419878E+02  0.74854542867E+02  0.21515082285E+03  0.12508952666E+03 0.  0.
          5    1    3    3  502    0 -0.38038226775E+02  0.40399873360E+02  0.10007402386E+01  0.55655461050E+02  0.41800000000E+01 0.  1.
         -5    1    3    3    0  502 -0.11435704259E+03 -0.83002293238E+02  0.73853802628E+02  0.15949536180E+03  0.41800000000E+01 0.  1.
        -11    1    1    2    0    0  0.55913366360E+02  0.38908916935E+02  0.38821901938E+03  0.39414999095E+03  0.00000000000E+00 0. -1.
         11    1    1    2    0    0  0.96481903001E+02  0.36935029429E+01  0.23071758033E+03  0.25010598042E+03  0.00000000000E+00 0.  1.
</event>
<event>
 7    1  0.2732144E-009  0.8270178E+02  0.7561462E-02  0.1321554E+00
         -1   -1    0    0    0  501 -0.00000000000E+00  0.00000000000E+00  0.58137260304E+03  0.58137260304E+03  0.00000000000E+00 0.  1.
          1   -1    0    0  501    0  0.00000000000E+00 -0.00000000000E+00 -0.29670859033E+02  0.29670859033E+02  0.00000000000E+00 0. -1.
         25    2    1    2    0    0  0.53620619616E+02 -0.52412265446E+02  0.32020047254E+03  0.35185116277E+03  0.12509469096E+03 0.  0.
          5    1    3    3  502    0  0.41865271439E+02 -0.86418726104E+01  0.18549846835E+02  0.46786238708E+02  0.41800000000E+01 0.  1.
         -5    1    3    3    0  502  0.11755348177E+02 -0.43770392835E+02  0.30165062571E+03  0.30506492406E+03  0.41800000000E+01 0.  1.
        -11    1    1    2    0    0 -0.41285940107E+02  0.28929370915E+02  0.22669791055E+03  0.23223561311E+03  0.00000000000E+00 0.  1.
         11    1    1    2    0    0 -0.12334679509E+02  0.23482894531E+02  0.48033609102E+01  0.26956686187E+02  0.00000000000E+00 0. -1.
</event>
<event>
 7    1  0.2732144E-009  0.1220139E+03  0.7561462E-02  0.1239811E+00
         -1   -1    0    0    0  501 -0.00000000000E+00  0.00000000000E+00  0.29271896865E+02  0.29271896865E+02  0.00000000000E+00 0.  1.
          1   -1    0    0  501    0  0.00000000000E+00 -0.00000000000E+00 -0.59018560845E+03  0.59018560845E+03  0.00000000000E+00 0. -1.
         25    2    1    2    0    0  0.54327414055E+00  0.58369657104E+02 -0.21148376024E+03  0.25254630195E+03  0.12508773629E+03 0.  0.
          5    1    3    3  502    0 -0.44727055885E+02 -0.13815473182E+02 -0.43023081948E+02  0.63716833001E+02  0.41800000000E+01 0.  1.
         -5    1    3    3    0  502  0.45270330026E+02  0.72185130287E+02 -0.16846067829E+03  0.18882946895E+03  0.41800000000E+01 0.  1.
        -11    1    1    2    0    0 -0.25728316313E+02 -0.76485573231E+02 -0.26155286221E+03  0.27371863090E+03  0.00000000000E+00 0.  1.
         11    1    1    2    0    0  0.25185042172E+02  0.18115916127E+02 -0.87877089141E+02  0.93192572462E+02  0.00000000000E+00 0. -1.
</event>
<event>
 7    1  0.2732144E-009  0.1594455E+03  0.7561462E-02  0.1189324E+00
          2   -1    0    0  501    0  0.00000000000E+00  0.00000000000E+00  0.83787102847E+02  0.83787102847E+02  0.00000000000E+00 0.  1.
         -2   -1    0    0    0  501 -0.00000000000E+00 -0.00000000000E+00 -0.44308215210E+03  0.44308215210E+03  0.00000000000E+00 0. -1.
         25    2    1    2    0    0 -0.76472162537E+02 -0.12625436589E+03 -0.27331288795E+03  0.33486626816E+03  0.12508927324E+03 0.  0.
          5    1    3    3  502    0 -0.18896900968E+02 -0.35673846568E+02  0.65930649043E+00  0.40590926082E+02  0.41800000000E+01 0. -1.
         -5    1    3    3    0  502 -0.57575261568E+02 -0.90580519322E+02 -0.27397219444E+03  0.29427534207E+03  0.41800000000E+01 0. -1.
        -11    1    1    2    0    0  0.84935555772E+02  0.13450307689E+03 -0.74999132738E+02  0.17586925893E+03  0.00000000000E+00 0.  1.
         11    1    1    2    0    0 -0.84633932349E+01 -0.82487109987E+01 -0.10983028566E+02  0.16133727860E+02  0.00000000000E+00 0. -1.
</event>
<event>
 7    1  0.2732144E-009  0.1034656E+03  0.7561462E-02  0.1273173E+00
         -2   -1    0    0    0  501 -0.00000000000E+00  0.00000000000E+00  0.25736167485E+02  0.25736167485E+02  0.00000000000E+00 0.  1.
          2   -1    0    0  501    0  0.00000000000E+00 -0.00000000000E+00 -0.56435169411E+03  0.56435169411E+03  0.00000000000E+00 0. -1.
         25    2    1    2    0    0  0.48332121640E+02  0.10200957466E+02 -0.26070918669E+03  0.29335301407E+03  0.12508659931E+03 0.  0.
          5    1    3    3  502    0  0.19981484055E+02  0.57882949525E+02 -0.62956368662E+02  0.87924241855E+02  0.41800000000E+01 0.  1.
         -5    1    3    3    0  502  0.28350637584E+02 -0.47681992059E+02 -0.19775281803E+03  0.20542877222E+03  0.41800000000E+01 0.  1.
        -11    1    1    2    0    0 -0.12231742512E+02 -0.40803169176E+02 -0.58994540011E+02  0.72765856627E+02  0.00000000000E+00 0.  1.
         11    1    1    2    0    0 -0.36100379128E+02  0.30602211709E+02 -0.21891179993E+03  0.22396899090E+03  0.00000000000E+00 0. -1.
</event>
<event>
 7    1  0.2732144E-009  0.9724791E+02  0.7561462E-02  0.1286192E+00
         -2   -1    0    0    0  501 -0.00000000000E+00  0.00000000000E+00  0.77676199940E+02  0.77676199940E+02  0.00000000000E+00 0.  1.
          2   -1    0    0  501    0  0.00000000000E+00 -0.00000000000E+00 -0.18063136818E+03  0.18063136818E+03  0.00000000000E+00 0. -1.
         25    2    1    2    0    0  0.32565505313E+00 -0.41832009604E+02 -0.88540590147E+02  0.15889630728E+03  0.12513423706E+03 0.  0.
          5    1    3    3  502    0  0.27660875980E+02 -0.74847883507E+02 -0.83438864408E+02  0.11552855153E+03  0.41800000000E+01 0. -1.
         -5    1    3    3    0  502 -0.27335220927E+02  0.33015873903E+02 -0.51017257385E+01  0.43367755744E+02  0.41800000000E+01 0. -1.
        -11    1    1    2    0    0  0.28689613399E+02  0.17103554201E+02 -0.41037496145E+02  0.52912206278E+02  0.00000000000E+00 0. -1.
         11    1    1    2    0    0 -0.29015268452E+02  0.24728455403E+02  0.26622918052E+02  0.46499054567E+02  0.00000000000E+00 0.  1.
</event>
<event>
 7    1  0.2902228E-009  0.6701593E+02  0.7561462E-02  0.1370545E+00
          1   -1    0    0  501    0  0.00000000000E+00  0.00000000000E+00  0.48421272469E+03  0.48421272469E+03  0.00000000000E+00 0. -1.
         -1   -1    0    0    0  501 -0.00000000000E+00 -0.00000000000E+00 -0.25776807435E+02  0.25776807435E+02  0.00000000000E+00 0.  1.
         25    2    1    2    0    0 -0.24482269094E+02 -0.12702837652E+02  0.26016062109E+03  0.28998479967E+03  0.12508753611E+03 0.  0.
          5    1    3    3  502    0 -0.19592623798E+02  0.89153905829E+01 -0.61080088285E+01  0.22762584836E+02  0.41800000000E+01 0. -1.
         -5    1    3    3    0  502 -0.48896452959E+01 -0.21618228235E+02  0.26626862992E+03  0.26722221483E+03  0.41800000000E+01 0. -1.
        -11    1    1    2    0    0 -0.20864860347E+02 -0.23570785149E+02  0.36920338598E+02  0.48518405910E+02  0.00000000000E+00 0.  1.
         11    1    1    2    0    0  0.45347129441E+02  0.36273622801E+02  0.16135495757E+03  0.17148632655E+03  0.00000000000E+00 0. -1.
</event>
<event>
 7    1  0.2732144E-009  0.8056772E+02  0.7561462E-02  0.1327448E+00
         -1   -1    0    0    0  501 -0.00000000000E+00  0.00000000000E+00  0.12781996236E+02  0.12781996236E+02  0.00000000000E+00 0.  1.
          1   -1    0    0  501    0  0.00000000000E+00 -0.00000000000E+00 -0.10033319664E+04  0.10033319664E+04  0.00000000000E+00 0. -1.
         25    2    1    2    0    0 -0.35723261803E+02  0.46983039985E+01 -0.57148484248E+03  0.58612303779E+03  0.12508822785E+03 0.  0.
          5    1    3    3  502    0 -0.23907952789E+02  0.29213543333E+02 -0.44858169088E+02  0.58777113357E+02  0.41800000000E+01 0.  1.
         -5    1    3    3    0  502 -0.11815309015E+02 -0.24515239334E+02 -0.52662667340E+03  0.52734592444E+03  0.41800000000E+01 0.  1.
        -11    1    1    2    0    0  0.65518736324E+02 -0.41238721491E+00 -0.26208893475E+03  0.27015455686E+03  0.00000000000E+00 0.  1.
         11    1    1    2    0    0 -0.29795474520E+02 -0.42859167836E+01 -0.15697619294E+03  0.15983636800E+03  0.00000000000E+00 0. -1.
</event>
<event>
 7    1  0.2732144E-009  0.1169226E+03  0.7561462E-02  0.1248262E+00
         -3   -1    0    0    0  501 -0.00000000000E+00  0.00000000000E+00  0.47149683409E+02  0.47149683409E+02  0.00000000000E+00 0.  1.
          3   -1    0    0  501    0  0.00000000000E+00 -0.00000000000E+00 -0.32366216760E+03  0.32366216760E+03  0.00000000000E+00 0. -1.
         25    2    1    2    0    0  0.37682028118E+02  0.38372724883E+02 -0.19394636922E+03  0.23696876690E+03  0.12508637455E+03 0.  0.
          5    1    3    3  502    0 -0.33093693014E+02  0.46479101983E+02 -0.12624441232E+03  0.13860239349E+03  0.41800000000E+01 0.  1.
         -5    1    3    3    0  502  0.70775721131E+02 -0.81063770999E+01 -0.67701956892E+02  0.98366373413E+02  0.41800000000E+01 0.  1.
        -11    1    1    2    0    0 -0.57921694705E+02  0.42631187026E+01 -0.47919717657E+02  0.75295393212E+02  0.00000000000E+00 0.  1.
         11    1    1    2    0    0  0.20239666588E+02 -0.42635843586E+02 -0.34646397320E+02  0.58547690895E+02  0.00000000000E+00 0. -1.
</event>
<event>
 7    1  0.2732144E-009  0.8524023E+02  0.7561462E-02  0.1314806E+00
         -1   -1    0    0    0  501 -0.00000000000E+00  0.00000000000E+00  0.70342446285E+02  0.70342446285E+02  0.00000000000E+00 0.  1.
          1   -1    0    0  501    0  0.00000000000E+00 -0.00000000000E+00 -0.32155004490E+03  0.32155004490E+03  0.00000000000E+00 0. -1.
         25    2    1    2    0    0 -0.52224697992E+02 -0.43959536136E+02 -0.23815761576E+03  0.27753719079E+03  0.12509189594E+03 0.  0.
          5    1    3    3  502    0 -0.22065238082E+02 -0.18578386255E+02  0.63561116091E+01  0.29831254117E+02  0.41800000000E+01 0. -1.
         -5    1    3    3    0  502 -0.30159459910E+02 -0.25381149881E+02 -0.24451372737E+03  0.24770593667E+03  0.41800000000E+01 0. -1.
        -11    1    1    2    0    0  0.71199396718E+02  0.26688324673E+02  0.13731008447E+02  0.77266819268E+02  0.00000000000E+00 0.  1.
         11    1    1    2    0    0 -0.18974698726E+02  0.17271211463E+02 -0.26780991302E+02  0.37088481126E+02  0.00000000000E+00 0. -1.
</event>
<event>
 7    1  0.2732144E-009  0.8394186E+02  0.7561462E-02  0.1318223E+00
         -1   -1    0    0    0  501 -0.00000000000E+00  0.00000000000E+00  0.19414389706E+02  0.19414389706E+02  0.00000000000E+00 0.  1.
          1   -1    0    0  501    0  0.00000000000E+00 -0.00000000000E+00 -0.89863310452E+03  0.89863310452E+03  0.00000000000E+00 0. -1.
         25    2    1    2    0    0 -0.46371319984E+01 -0.28931024551E+02 -0.72775515083E+03  0.73900704726E+03  0.12508137021E+03 0.  0.
          5    1    3    3  502    0 -0.10168818773E+02  0.25177724565E+02 -0.36914830887E+02  0.46016299600E+02  0.41800000000E+01 0. -1.
         -5    1    3    3    0  502  0.55316867744E+01 -0.54108749116E+02 -0.69084031994E+03  0.69299074766E+03  0.41800000000E+01 0. -1.
        -11    1    1    2    0    0  0.10056238663E+02 -0.27441785086E+02 -0.18684930298E+02  0.34688703132E+02  0.00000000000E+00 0.  1.
         11    1    1    2    0    0 -0.54191066648E+01  0.56372809636E+02 -0.13277863369E+03  0.14435174383E+03  0.00000000000E+00 0. -1.
</event>
<event>
 7    1  0.2732144E-009  0.1644040E+03  0.7561462E-02  0.1183812E+00
         -1   -1    0    0    0  501 -0.00000000000E+00  0.00000000000E+00  0.42084275808E+02  0.42084275808E+02  0.00000000000E+00 0.  1.
          1   -1    0    0  501    0  0.00000000000E+00 -0.00000000000E+00 -0.79740260322E+03  0.79740260322E+03  0.00000000000E+00 0. -1.
         25    2    1    2    0    0 -0.55508667867E+01  0.13969170498E+03 -0.32526458501E+03  0.37548383678E+03  0.12508587794E+03 0.  0.
          5    1    3    3  502    0  0.48824675830E+02  0.93970220485E+02 -0.13042899659E+03  0.16805786759E+03  0.41800000000E+01 0.  1.
         -5    1    3    3    0  502 -0.54375542616E+02  0.45721484493E+02 -0.19483558843E+03  0.20742596920E+03  0.41800000000E+01 0.  1.
        -11    1    1    2    0    0  0.31688733715E+02 -0.91597641470E+02 -0.14957507663E+03  0.17823301410E+03  0.00000000000E+00 0.  1.
         11    1    1    2    0    0 -0.26137866928E+02 -0.48094063508E+02 -0.28047866578E+03  0.28577002815E+03  0.00000000000E+00 0. -1.
</event>
<event>
 7    1  0.2732144E-009  0.1169144E+03  0.7561462E-02  0.1248276E+00
         -2   -1    0    0    0  501 -0.00000000000E+00  0.00000000000E+00  0.67008886778E+03  0.67008886778E+03  0.00000000000E+00 0.  1.
          2   -1    0    0  501    0  0.00000000000E+00 -0.00000000000E+00 -0.34622615543E+02  0.34622615543E+02  0.00000000000E+00 0. -1.
         25    2    1    2    0    0  0.84019250526E+02  0.57986745928E+02  0.24948665618E+03  0.29717496446E+03  0.12509065005E+03 0.  0.
          5    1    3    3  502    0 -0.87546351167E+01 -0.22051657218E+01 -0.10590707825E+02  0.14530722079E+02  0.41800000000E+01 0. -1.
         -5    1    3    3    0  502  0.92773885643E+02  0.60191911649E+02  0.26007736400E+03  0.28264424238E+03  0.41800000000E+01 0. -1.
        -11    1    1    2    0    0 -0.39441052144E+02 -0.56120989889E+02  0.32391850889E+03  0.33110174041E+03  0.00000000000E+00 0.  1.
         11    1    1    2    0    0 -0.44578198382E+02 -0.18657560384E+01  0.62061087172E+02  0.76434778456E+02  0.00000000000E+00 0. -1.
</event>
<event>
 7    1  0.2732144E-009  0.1146385E+03  0.7561462E-02  0.1252214E+00
         -2   -1    0    0    0  501 -0.00000000000E+00  0.00000000000E+00  0.24426120062E+02  0.24426120062E+02  0.00000000000E+00 0.  1.
          2   -1    0    0  501    0  0.00000000000E+00 -0.00000000000E+00 -0.59849348542E+03  0.59849348542E+03  0.00000000000E+00 0. -1.
         25    2    1    2    0    0 -0.43848820948E+02  0.22503814674E+02 -0.38392641574E+03  0.40678765550E+03  0.12509022021E+03 0.  0.
          5    1    3    3  502    0 -0.57697125231E+01 -0.50515706118E+02 -0.12361375443E+03  0.13372718060E+03  0.41800000000E+01 0. -1.
         -5    1    3    3    0  502 -0.38079108425E+02  0.73019520793E+02 -0.26031266131E+03  0.27306047490E+03  0.41800000000E+01 0. -1.
        -11    1    1    2    0    0 -0.12314382718E+02 -0.35994208909E+02 -0.11642002422E+03  0.12247795368E+03  0.00000000000E+00 0.  1.
         11    1    1    2    0    0  0.56163203666E+02  0.13490394235E+02 -0.73720925397E+02  0.93653996305E+02  0.00000000000E+00 0. -1.
</event>
<event>
 7    1  0.2732144E-009  0.1489155E+03  0.7561462E-02  0.1201812E+00
          2   -1    0    0  501    0  0.00000000000E+00  0.00000000000E+00  0.38792575968E+02  0.38792575968E+02  0.00000000000E+00 0. -1.
         -2   -1    0    0    0  501 -0.00000000000E+00 -0.00000000000E+00 -0.83061276318E+03  0.83061276318E+03  0.00000000000E+00 0.  1.
         25    2    1    2    0    0  0.13628578273E+03 -0.39511369126E+02 -0.47884759201E+03  0.51485836113E+03  0.12509657382E+03 0.  0.
          5    1    3    3  502    0  0.88524402604E+02  0.10922759843E+01 -0.11277962232E+03  0.14343806515E+03  0.41800000000E+01 0.  1.
         -5    1    3    3    0  502  0.47761380125E+02 -0.40603645111E+02 -0.36606796969E+03  0.37142029598E+03  0.41800000000E+01 0.  1.
        -11    1    1    2    0    0 -0.27971019236E+02  0.24191227309E+02 -0.17294562386E+03  0.17685525779E+03  0.00000000000E+00 0.  1.
         11    1    1    2    0    0 -0.10831476349E+03  0.15320141817E+02 -0.14002697134E+03  0.17769172023E+03  0.00000000000E+00 0. -1.
</event>
<event>
 7    1  0.2732144E-009  0.1265171E+03  0.7561462E-02  0.1232717E+00
         -2   -1    0    0    0  501 -0.00000000000E+00  0.00000000000E+00  0.49225326183E+02  0.49225326183E+02  0.00000000000E+00 0.  1.
          2   -1    0    0  501    0  0.00000000000E+00 -0.00000000000E+00 -0.60134816828E+03  0.60134816828E+03  0.00000000000E+00 0. -1.
         25    2    1    2    0    0 -0.11320440347E+03  0.40921113428E+02 -0.39631124783E+03  0.43266535394E+03  0.12508768468E+03 0.  0.
          5    1    3    3  502    0 -0.29809214711E+02  0.23468234220E+02 -0.30624331370E+03  0.30861268102E+03  0.41800000000E+01 0.  1.
         -5    1    3    3    0  502 -0.83395188763E+02  0.17452879208E+02 -0.90067934121E+02  0.12405267292E+03  0.41800000000E+01 0.  1.
        -11    1    1    2    0    0  0.43238286250E+02  0.82851440084E+01 -0.11499062824E+03  0.12313016524E+03  0.00000000000E+00 0. -1.
         11    1    1    2    0    0  0.69966117224E+02 -0.49206257436E+02 -0.40820966027E+02  0.94777975277E+02  0.00000000000E+00 0.  1.
</event>
<event>
 7    1  0.2732144E-009  0.2259165E+03  0.7561462E-02  0.1129547E+00
         -2   -1    0    0    0  501 -0.00000000000E+00  0.00000000000E+00  0.55556237213E+03  0.55556237213E+03  0.00000000000E+00 0.  1.
          2   -1    0    0  501    0  0.00000000000E+00 -0.00000000000E+00 -0.18174124025E+03  0.18174124025E+03  0.00000000000E+00 0. -1.
         25    2    1    2    0    0 -0.18885734392E+03 -0.68501641524E+02 -0.65956538649E+02  0.24567604272E+03  0.12508749630E+03 0.  0.
          5    1    3    3  502    0 -0.12756820967E+03  0.14934098735E+02 -0.60188120016E+02  0.14190404369E+03  0.41800000000E+01 0. -1.
         -5    1    3    3    0  502 -0.61289134245E+02 -0.83435740259E+02 -0.57684186327E+01  0.10377199903E+03  0.41800000000E+01 0. -1.
        -11    1    1    2    0    0  0.14220459566E+02  0.40401127332E+02  0.89649490629E+02  0.99355441371E+02  0.00000000000E+00 0.  1.
         11    1    1    2    0    0  0.17463688435E+03  0.28100514192E+02  0.35012817990E+03  0.39227212829E+03  0.00000000000E+00 0. -1.
</event>
<event>
 7    1  0.2732144E-009  0.1035717E+03  0.7561462E-02  0.1272960E+00
          1   -1    0    0  501    0  0.00000000000E+00  0.00000000000E+00  0.31141848276E+03  0.31141848276E+03  0.00000000000E+00 0. -1.
         -1   -1    0    0    0  501 -0.00000000000E+00 -0.00000000000E+00 -0.47142029517E+02  0.47142029517E+02  0.00000000000E+00 0.  1.
         25    2    1    2    0    0  0.24207148722E+02 -0.41003017573E+02  0.11545792591E+03  0.17675264075E+03  0.12507489699E+03 0.  0.
          5    1    3    3  502    0  0.83785612213E+01  0.34017510831E+02 -0.31886290192E+01  0.35426417916E+02  0.41800000000E+01 0.  1.
         -5    1    3    3    0  502  0.15828587500E+02 -0.75020528404E+02  0.11864655493E+03  0.14132622284E+03  0.41800000000E+01 0.  1.
        -11    1    1    2    0    0 -0.47131688548E+02 -0.10895882043E+01  0.36281188418E+02  0.59488720787E+02  0.00000000000E+00 0.  1.
         11    1    1    2    0    0  0.22924539827E+02  0.42092605777E+02  0.11253733891E+03  0.12231915074E+03  0.00000000000E+00 0. -1.
</event>
<event>
 7    1  0.2732144E-009  0.8428156E+02  0.7561462E-02  0.1317322E+00
         -1   -1    0    0    0  501 -0.00000000000E+00  0.00000000000E+00  0.20295566147E+02  0.20295566147E+02  0.00000000000E+00 0.  1.
          1   -1    0    0  501    0  0.00000000000E+00 -0.00000000000E+00 -0.64991555144E+03  0.64991555144E+03  0.00000000000E+00 0. -1.
         25    2    1    2    0    0  0.38363562981E+02 -0.98932941369E+01 -0.39194592146E+03  0.41332708175E+03  0.12509208977E+03 0.  0.
          5    1    3    3  502    0  0.66164473464E+01 -0.40865989583E+02 -0.37256679388E+02  0.55851043312E+02  0.41800000000E+01 0.  1.
         -5    1    3    3    0  502  0.31747115635E+02  0.30972695446E+02 -0.35468924208E+03  0.35747603844E+03  0.41800000000E+01 0.  1.
        -11    1    1    2    0    0 -0.36334341106E+02  0.38956539925E+02 -0.77255595293E+02  0.93841479904E+02  0.00000000000E+00 0.  1.
         11    1    1    2    0    0 -0.20292218754E+01 -0.29063245788E+02 -0.16041846853E+03  0.16304255593E+03  0.00000000000E+00 0. -1.
</event>
<event>
 7    1  0.4294002E-009  0.1460275E+03  0.7561462E-02  0.1205441E+00
         -2   -1    0    0    0  501 -0.00000000000E+00  0.00000000000E+00  0.23343010995E+02  0.23343010995E+02  0.00000000000E+00 0.  1.
          2   -1    0    0  501    0  0.00000000000E+00 -0.00000000000E+00 -0.12405254380E+04  0.12405254380E+04  0.00000000000E+00 0. -1.
         25    2    1    2    0    0  0.16331142857E+01  0.12867676797E+03 -0.72439874617E+03  0.74629903504E+03  0.12509327949E+03 0.  0.
          5    1    3    3  502    0  0.40428579953E+02  0.11442017238E+03 -0.36863796351E+03  0.38812094309E+03  0.41800000000E+01 0. -1.
         -5    1    3    3    0  502 -0.38795465667E+02  0.14256595585E+02 -0.35576078266E+03  0.35817809195E+03  0.41800000000E+01 0. -1.
        -11    1    1    2    0    0 -0.59086753649E+01 -0.83589359502E+02 -0.44049052545E+03  0.44839045092E+03  0.00000000000E+00 0. -1.
         11    1    1    2    0    0  0.42755610792E+01 -0.45087408465E+02 -0.52293155343E+02  0.69178962989E+02  0.00000000000E+00 0.  1.
</event>
<event>
 7    1  0.2732144E-009  0.1098121E+03  0.7561462E-02  0.1260918E+00
         -1   -1    0    0    0  501 -0.00000000000E+00  0.00000000000E+00  0.32212611343E+02  0.32212611343E+02  0.00000000000E+00 0.  1.
          1   -1    0    0  501    0  0.00000000000E+00 -0.00000000000E+00 -0.44394446041E+03  0.44394446041E+03  0.00000000000E+00 0. -1.
         25    2    1    2    0    0  0.19385156686E+02 -0.40729618979E+02 -0.18504209268E+03  0.22786602732E+03  0.12509062387E+03 0.  0.
          5    1    3    3  502    0  0.47166924260E+02  0.24488385463E+02 -0.40935520316E+02  0.67213012061E+02  0.41800000000E+01 0.  1.
         -5    1    3    3    0  502 -0.27781767575E+02 -0.65218004443E+02 -0.14410657237E+03  0.16065301526E+03  0.41800000000E+01 0.  1.
        -11    1    1    2    0    0  0.27768536753E+02 -0.65478283669E+01 -0.34137731251E+02  0.44489890815E+02  0.00000000000E+00 0.  1.
         11    1    1    2    0    0 -0.47153693439E+02  0.47277447346E+02 -0.19255202514E+03  0.20380115362E+03  0.00000000000E+00 0. -1.
</event>
<event>
 7    1  0.2732144E-009  0.1229904E+03  0.7561462E-02  0.1238244E+00
         -1   -1    0    0    0  501 -0.00000000000E+00  0.00000000000E+00  0.38829008974E+02  0.38829008974E+02  0.00000000000E+00 0.  1.
          1   -1    0    0  501    0  0.00000000000E+00 -0.00000000000E+00 -0.43331061986E+03  0.43331061986E+03  0.00000000000E+00 0. -1.
         25    2    1    2    0    0 -0.92016287413E+02 -0.30393358514E+01 -0.29388213598E+03  0.33240145934E+03  0.12509110925E+03 0.  0.
          5    1    3    3  502    0 -0.10966813415E+03 -0.35446921116E+02 -0.19217458198E+03  0.22412524674E+03  0.41800000000E+01 0.  1.
         -5    1    3    3    0  502  0.17651846738E+02  0.32407585265E+02 -0.10170755399E+03  0.10827621260E+03  0.41800000000E+01 0.  1.
        -11    1    1    2    0    0  0.41024626109E+02  0.95053934420E+01 -0.27203386816E+02  0.50133788069E+02  0.00000000000E+00 0.  1.
         11    1    1    2    0    0  0.50991661303E+02 -0.64660575906E+01 -0.73396088089E+02  0.89604381422E+02  0.00000000000E+00 0. -1.
</event>
<event>
 7    1  0.2732144E-009  0.9921169E+02  0.7561462E-02  0.1281962E+00
          2   -1    0    0  501    0  0.00000000000E+00  0.00000000000E+00  0.58231194365E+02  0.58231194365E+02  0.00000000000E+00 0. -1.
         -2   -1    0    0    0  501 -0.00000000000E+00 -0.00000000000E+00 -0.23800857478E+03  0.23800857478E+03  0.00000000000E+00 0.  1.
         25    2    1    2    0    0  0.20541160900E+02  0.31905157798E+02 -0.76120516355E+02  0.15126407882E+03  0.12508641072E+03 0.  0.
          5    1    3    3  502    0 -0.30065273065E+02 -0.35234999840E+02 -0.28599127127E+02  0.54596779490E+02  0.41800000000E+01 0. -1.
         -5    1    3    3    0  502  0.50606433965E+02  0.67140157639E+02 -0.47521389228E+02  0.96667299334E+02  0.41800000000E+01 0. -1.
        -11    1    1    2    0    0  0.92208073656E+01  0.11728408153E+02 -0.88889557081E+02  0.90132858627E+02  0.00000000000E+00 0.  1.
         11    1    1    2    0    0 -0.29761968266E+02 -0.43633565952E+02 -0.14767306980E+02  0.54842831693E+02  0.00000000000E+00 0. -1.
</event>
<event>
 7    1  0.2732144E-009  0.1114319E+03  0.7561462E-02  0.1257941E+00
         -2   -1    0    0    0  501 -0.00000000000E+00  0.00000000000E+00  0.85224113311E+02  0.85224113311E+02  0.00000000000E+00 0.  1.
          2   -1    0    0  501    0  0.00000000000E+00 -0.00000000000E+00 -0.20521470438E+03  0.20521470438E+03  0.00000000000E+00 0. -1.
         25    2    1    2    0    0 -0.16291259396E+02  0.24402706030E+02 -0.12721385151E+03  0.18080505187E+03  0.12508479353E+03 0.  0.
          5    1    3    3  502    0  0.19507323968E+02  0.59888631480E+02 -0.27211943826E+02  0.68739698543E+02  0.41800000000E+01 0.  1.
         -5    1    3    3    0  502 -0.35798583364E+02 -0.35485925450E+02 -0.10000190769E+03  0.11206535333E+03  0.41800000000E+01 0.  1.
        -11    1    1    2    0    0  0.50879953164E+02 -0.45825893682E+02  0.10529166549E+01  0.68482777391E+02  0.00000000000E+00 0.  1.
         11    1    1    2    0    0 -0.34588693768E+02  0.21423187653E+02  0.61703437924E+01  0.41150988424E+02  0.00000000000E+00 0. -1.
</event>
<event>
 7    1  0.2732144E-009  0.1240169E+03  0.7561462E-02  0.1236614E+00
          2   -1    0    0  501    0  0.00000000000E+00  0.00000000000E+00  0.10024172754E+03  0.10024172754E+03  0.00000000000E+00 0. -1.
         -2   -1    0    0    0  501 -0.00000000000E+00 -0.00000000000E+00 -0.16900002032E+03  0.16900002032E+03  0.00000000000E+00 0.  1.
         25    2    1    2    0    0 -0.59307839637E+02 -0.34513715253E+02 -0.37830354789E+02  0.14760475951E+03  0.12508961949E+03 0.  0.
          5    1    3    3  502    0 -0.94403712213E+02 -0.20255389878E+01 -0.28269372847E+02  0.98654921463E+02  0.41800000000E+01 0. -1.
         -5    1    3    3    0  502  0.35095872576E+02 -0.32488176265E+02 -0.95609819422E+01  0.48949838045E+02  0.41800000000E+01 0. -1.
        -11    1    1    2    0    0  0.33696323520E+02 -0.24177527310E+02 -0.39202404610E+02  0.57068586568E+02  0.00000000000E+00 0.  1.
         11    1    1    2    0    0  0.25611516116E+02  0.58691242563E+02  0.82744666233E+01  0.64568401786E+02  0.00000000000E+00 0. -1.
</event>
<event>
 7    1  0.2732144E-009  0.1188412E+03  0.7561462E-02  0.1245021E+00
          2   -1    0    0  501    0  0.00000000000E+00  0.00000000000E+00  0.32935593292E+03  0.32935593292E+03  0.00000000000E+00 0. -1.
         -2   -1    0    0    0  501 -0.00000000000E+00 -0.00000000000E+00 -0.64405556672E+02  0.64405556672E+02  0.00000000000E+00 0.  1.
         25    2    1    2    0    0  0.29496156924E+02 -0.37682918211E+02  0.30769591842E+02  0.13742920739E+03  0.12509993471E+03 0.  0.
          5    1    3    3  502    0 -0.48047156643E+02 -0.27733131917E+02  0.13821713299E+02  0.57325108163E+02  0.41800000000E+01 0.  1.
         -5    1    3    3    0  502  0.77543313567E+02 -0.99497862938E+01  0.16947878544E+02  0.80104099230E+02  0.41800000000E+01 0.  1.
        -11    1    1    2    0    0 -0.17023517007E+02 -0.30238302494E+02  0.67073295965E+02  0.75518091214E+02  0.00000000000E+00 0. -1.
         11    1    1    2    0    0 -0.12472639918E+02  0.67921220705E+02  0.16710748844E+03  0.18081419098E+03  0.00000000000E+00 0.  1.
</event>
<event>
 7    1  0.2732144E-009  0.1287441E+03  0.7561462E-02  0.1229331E+00
          1   -1    0    0  501    0  0.00000000000E+00  0.00000000000E+00  0.11241796274E+03  0.11241796274E+03  0.00000000000E+00 0. -1.
         -1   -1    0    0    0  501 -0.00000000000E+00 -0.00000000000E+00 -0.41726558041E+03  0.41726558041E+03  0.00000000000E+00 0.  1.
         25    2    1    2    0    0  0.49547218495E+02 -0.55057297758E+02 -0.36883700976E+03  0.39645243735E+03  0.12509021710E+03 0.  0.
          5    1    3    3  502    0 -0.38958863554E+02 -0.43407474463E+01 -0.14796717161E+03  0.15312867599E+03  0.41800000000E+01 0. -1.
         -5    1    3    3    0  502  0.88506082049E+02 -0.50716550312E+02 -0.22086983815E+03  0.24332376136E+03  0.41800000000E+01 0. -1.
        -11    1    1    2    0    0  0.63519374413E+01  0.59555534592E+02  0.24851229821E+02  0.64844370869E+02  0.00000000000E+00 0.  1.
         11    1    1    2    0    0 -0.55899155936E+02 -0.44982368340E+01  0.39138162264E+02  0.68386734931E+02  0.00000000000E+00 0. -1.
</event>
<event>
 7    1  0.2732144E-009  0.2497669E+03  0.7561462E-02  0.1113452E+00
          2   -1    0    0  501    0  0.00000000000E+00  0.00000000000E+00  0.16970263157E+04  0.16970263157E+04  0.00000000000E+00 0. -1.
         -2   -1    0    0    0  501 -0.00000000000E+00 -0.00000000000E+00 -0.39331022346E+02  0.39331022346E+02  0.00000000000E+00 0.  1.
         25    2    1    2    0    0  0.32090232814E+02 -0.22506227546E+03  0.66118484611E+03  0.71027854548E+03  0.12508957015E+03 0.  0.
          5    1    3    3  502    0  0.11351032886E+01 -0.22372578275E+03  0.61555183579E+03  0.65496263196E+03  0.41800000000E+01 0.  1.
         -5    1    3    3    0  502  0.30955129526E+02 -0.13364927099E+01  0.45633010326E+02  0.55315913516E+02  0.41800000000E+01 0.  1.
        -11    1    1    2    0    0 -0.50002635591E+02  0.58410930180E+02  0.30397394233E+03  0.31354785591E+03  0.00000000000E+00 0.  1.
         11    1    1    2    0    0  0.17912402777E+02  0.16665134528E+03  0.69253650489E+03  0.71253093664E+03  0.00000000000E+00 0. -1.
</event>
<event>
 7    1  0.2732144E-009  0.1230218E+03  0.7561462E-02  0.1238194E+00
         -1   -1    0    0    0  501 -0.00000000000E+00  0.00000000000E+00  0.25477779815E+02  0.25477779815E+02  0.00000000000E+00 0.  1.
          1   -1    0    0  501    0  0.00000000000E+00 -0.00000000000E+00 -0.73735443190E+03  0.73735443190E+03  0.00000000000E+00 0. -1.
         25    2    1    2    0    0 -0.54154006892E+02 -0.25874996957E+02 -0.22964678058E+03  0.26830519816E+03  0.12509142097E+03 0.  0.
          5    1    3    3  502    0 -0.59927918169E+02  0.38765232276E+02 -0.96225541803E+02  0.11987879673E+03  0.41800000000E+01 0.  1.
         -5    1    3    3    0  502  0.57739112770E+01 -0.64640229233E+02 -0.13342123877E+03  0.14842640143E+03  0.41800000000E+01 0.  1.
        -11    1    1    2    0    0 -0.21627494032E+02 -0.12067945138E+02 -0.10134470583E+03  0.10432704921E+03  0.00000000000E+00 0.  1.
         11    1    1    2    0    0  0.75781500924E+02  0.37942942094E+02 -0.38088516568E+03  0.39019996434E+03  0.00000000000E+00 0. -1.
</event>
<event>
 7    1  0.2732144E-009  0.1093460E+03  0.7561462E-02  0.1261786E+00
         -2   -1    0    0    0  501 -0.00000000000E+00  0.00000000000E+00  0.10661793361E+03  0.10661793361E+03  0.00000000000E+00 0.  1.
          2   -1    0    0  501    0  0.00000000000E+00 -0.00000000000E+00 -0.13349761874E+03  0.13349761874E+03  0.00000000000E+00 0. -1.
         25    2    1    2    0    0  0.10829509768E+02 -0.54297203136E+01 -0.59915598462E+02  0.13922612847E+03  0.12508907132E+03 0.  0.
          5    1    3    3  502    0 -0.51282951129E+02 -0.28834344270E+02 -0.31940644229E+02  0.67074865932E+02  0.41800000000E+01 0.  1.
         -5    1    3    3    0  502  0.62112460897E+02  0.23404623957E+02 -0.27974954233E+02  0.72151262536E+02  0.41800000000E+01 0.  1.
        -11    1    1    2    0    0 -0.13357438910E+02 -0.42836536125E+02  0.26514120494E+02  0.52118984900E+02  0.00000000000E+00 0. -1.
         11    1    1    2    0    0  0.25279291422E+01  0.48266256439E+02  0.65217928340E+01  0.48770438978E+02  0.00000000000E+00 0.  1.
</event>
<event>
 7    1  0.2732144E-009  0.1273019E+03  0.7561462E-02  0.1231515E+00
         -1   -1    0    0    0  501 -0.00000000000E+00  0.00000000000E+00  0.34993887900E+03  0.34993887900E+03  0.00000000000E+00 0.  1.
          1   -1    0    0  501    0  0.00000000000E+00 -0.00000000000E+00 -0.81989036184E+02  0.81989036184E+02  0.00000000000E+00 0. -1.
         25    2    1    2    0    0  0.11039687757E+03  0.55662026492E+02  0.90958341206E+02  0.19803740136E+03  0.12513856613E+03 0.  0.
          5    1    3    3  502    0  0.40875974987E+02  0.36690134511E+02  0.11031404957E+03  0.12330317609E+03  0.41800000000E+01 0. -1.
         -5    1    3    3    0  502  0.69520902584E+02  0.18971891981E+02 -0.19355708360E+02  0.74734225276E+02  0.41800000000E+01 0. -1.
        -11    1    1    2    0    0 -0.87775288009E+02 -0.29165677406E+02  0.56322965047E+02  0.10829318684E+03  0.00000000000E+00 0. -1.
         11    1    1    2    0    0 -0.22621589562E+02 -0.26496349087E+02  0.12066853656E+03  0.12559732698E+03  0.00000000000E+00 0.  1.
</event>
<event>
 7    1  0.2732144E-009  0.1071551E+03  0.7561462E-02  0.1265931E+00
         -1   -1    0    0    0  501 -0.00000000000E+00  0.00000000000E+00  0.37833126745E+02  0.37833126745E+02  0.00000000000E+00 0.  1.
          1   -1    0    0  501    0  0.00000000000E+00 -0.00000000000E+00 -0.37609376292E+03  0.37609376292E+03  0.00000000000E+00 0. -1.
         25    2    1    2    0    0 -0.27953285618E+02 -0.34841968232E+02 -0.15050229868E+03  0.20074651408E+03  0.12511143863E+03 0.  0.
          5    1    3    3  502    0 -0.77092291412E+02 -0.12789770996E+02 -0.98025301123E+02  0.12543217967E+03  0.41800000000E+01 0.  1.
         -5    1    3    3    0  502  0.49139005794E+02 -0.22052197236E+02 -0.52476997561E+02  0.75314334402E+02  0.41800000000E+01 0.  1.
        -11    1    1    2    0    0  0.40221665105E+02 -0.48243647749E+01 -0.30982770611E+02  0.50999891314E+02  0.00000000000E+00 0.  1.
         11    1    1    2    0    0 -0.12268379487E+02  0.39666333007E+02 -0.15677556688E+03  0.16218048428E+03  0.00000000000E+00 0. -1.
</event>
<event>
 7    1  0.2732144E-009  0.2367526E+03  0.7561462E-02  0.1121975E+00
         -1   -1    0    0    0  501 -0.00000000000E+00  0.00000000000E+00  0.70158509085E+02  0.70158509085E+02  0.00000000000E+00 0.  1.
          1   -1    0    0  501    0  0.00000000000E+00 -0.00000000000E+00 -0.92730659895E+03  0.92730659895E+03  0.00000000000E+00 0. -1.
         25    2    1    2    0    0 -0.20199519968E+03  0.10994458062E+03 -0.47263555974E+03  0.54029780689E+03  0.12508987291E+03 0.  0.
          5    1    3    3  502    0 -0.15144464953E+03  0.10265737606E+03 -0.44697369813E+03  0.48298755466E+03  0.41800000000E+01 0.  1.
         -5    1    3    3    0  502 -0.50550550145E+02  0.72872045590E+01 -0.25661861604E+02  0.57310252235E+02  0.41800000000E+01 0.  1.
        -11    1    1    2    0    0  0.18615995412E+03 -0.74648450730E+02 -0.27033392738E+03  0.33661305977E+03  0.00000000000E+00 0.  1.
         11    1    1    2    0    0  0.15835245550E+02 -0.35296129891E+02 -0.11417860274E+03  0.12055424136E+03  0.00000000000E+00 0. -1.
</event>
<event>
 7    1  0.2804629E-009  0.1512433E+03  0.7561462E-02  0.1198954E+00
          2   -1    0    0  501    0  0.00000000000E+00  0.00000000000E+00  0.14935897254E+03  0.14935897254E+03  0.00000000000E+00 0.  1.
         -2   -1    0    0    0  501 -0.00000000000E+00 -0.00000000000E+00 -0.15521211510E+03  0.15521211510E+03  0.00000000000E+00 0. -1.
         25    2    1    2    0    0  0.53238436463E+02 -0.91113686028E+02  0.11966967771E+02  0.16409303640E+03  0.12508909376E+03 0.  0.
          5    1    3    3  502    0 -0.24794465060E+02  0.16578242849E+02  0.71197195334E+01  0.30947801858E+02  0.41800000000E+01 0. -1.
         -5    1    3    3    0  502  0.78032901524E+02 -0.10769192888E+03  0.48472482377E+01  0.13314523454E+03  0.41800000000E+01 0. -1.
        -11    1    1    2    0    0 -0.48783520466E+02  0.70003057912E+00 -0.48213817204E+01  0.49026193342E+02  0.00000000000E+00 0.  1.
         11    1    1    2    0    0 -0.44549159972E+01  0.90413655448E+02 -0.12998728613E+02  0.91451857902E+02  0.00000000000E+00 0. -1.
</event>
<event>
 7    1  0.2732144E-009  0.1237271E+03  0.7561462E-02  0.1237072E+00
         -1   -1    0    0    0  501 -0.00000000000E+00  0.00000000000E+00  0.83641059708E+02  0.83641059708E+02  0.00000000000E+00 0.  1.
          1   -1    0    0  501    0  0.00000000000E+00 -0.00000000000E+00 -0.24959239921E+03  0.24959239921E+03  0.00000000000E+00 0. -1.
         25    2    1    2    0    0 -0.20483073965E+02 -0.67263074036E+02 -0.17418045871E+03  0.22566940957E+03  0.12507586807E+03 0.  0.
          5    1    3    3  502    0  0.45375826991E+02  0.32183530017E+01 -0.42585201114E+02  0.62452343632E+02  0.41800000000E+01 0.  1.
         -5    1    3    3    0  502 -0.65858900956E+02 -0.70481427038E+02 -0.13159525760E+03  0.16321706594E+03  0.41800000000E+01 0.  1.
        -11    1    1    2    0    0 -0.28951995404E+02  0.12766467881E+02  0.12119511891E+02  0.33883378056E+02  0.00000000000E+00 0.  1.
         11    1    1    2    0    0  0.49435069369E+02  0.54496606155E+02 -0.38903926786E+01  0.73680671286E+02  0.00000000000E+00 0. -1.
</event>
<event>
 7    1  0.2732144E-009  0.7727075E+02  0.7561462E-02  0.1336980E+00
          1   -1    0    0  501    0  0.00000000000E+00  0.00000000000E+00  0.84844827922E+02  0.84844827922E+02  0.00000000000E+00 0.  1.
         -1   -1    0    0    0  501 -0.00000000000E+00 -0.00000000000E+00 -0.20106612279E+03  0.20106612279E+03  0.00000000000E+00 0. -1.
         25    2    1    2    0    0 -0.39566942726E+02  0.43737110950E+02 -0.10218293204E+03  0.17195320717E+03  0.12509227004E+03 0.  0.
          5    1    3    3  502    0 -0.10159639031E+02  0.42416692475E+02  0.18573497241E+02  0.47590348450E+02  0.41800000000E+01 0. -1.
         -5    1    3    3    0  502 -0.29407303695E+02  0.13204184745E+01 -0.12075642928E+03  0.12436285872E+03  0.41800000000E+01 0. -1.
        -11    1    1    2    0    0  0.33736704168E+02 -0.57151657650E+02 -0.44679453627E+02  0.80004567099E+02  0.00000000000E+00 0. -1.
         11    1    1    2    0    0  0.58302385581E+01  0.13414546700E+02  0.30641090805E+02  0.33953176442E+02  0.00000000000E+00 0.  1.
</event>
<event>
 7    1  0.2732144E-009  0.1015529E+03  0.7561462E-02  0.1277064E+00
         -2   -1    0    0    0  501 -0.00000000000E+00  0.00000000000E+00  0.73377973439E+02  0.73377973439E+02  0.00000000000E+00 0.  1.
          2   -1    0    0  501    0  0.00000000000E+00 -0.00000000000E+00 -0.18654459883E+03  0.18654459883E+03  0.00000000000E+00 0. -1.
         25    2    1    2    0    0 -0.20140690920E+02 -0.13115594860E+02 -0.29574968180E+02  0.13076847153E+03  0.12509215860E+03 0.  0.
          5    1    3    3  502    0  0.43668354628E+02 -0.36249527618E+02 -0.75650583478E+00  0.56912196843E+02  0.41800000000E+01 0.  1.
         -5    1    3    3    0  502 -0.63809045548E+02  0.23133932757E+02 -0.28818462345E+02  0.73856274686E+02  0.41800000000E+01 0.  1.
        -11    1    1    2    0    0 -0.14038283321E+02  0.34932875350E+02 -0.80037588056E+02  0.88449955798E+02  0.00000000000E+00 0. -1.
         11    1    1    2    0    0  0.34178974241E+02 -0.21817280490E+02 -0.35540691577E+01  0.40704144945E+02  0.00000000000E+00 0.  1.
</event>
<event>
 6    1  0.2732144E-009  0.1054741E+03  0.7561462E-02  0.1269188E+00
         -1   -1    0    0    0  501 -0.00000000000E+00  0.00000000000E+00  0.30127001895E+02  0.30127001895E+02  0.00000000000E+00 0.  1.
          1   -1    0    0  501    0  0.00000000000E+00 -0.00000000000E+00 -0.41453897758E+03  0.41453897758E+03  0.00000000000E+00 0. -1.
          5    1    1    2  502    0 -0.29679263189E+02  0.49277976702E+02 -0.77263464034E+02  0.96417285410E+02  0.41800000000E+01 0.  1.
         -5    1    1    2    0  502  0.54337320392E+02 -0.41626651525E+02 -0.13091741447E+03  0.14779094802E+03  0.41800000000E+01 0.  1.
        -11    1    1    2    0    0 -0.13824288311E+02  0.36606323411E+02 -0.12911280916E+03  0.13491201337E+03  0.00000000000E+00 0. -1.
         11    1    1    2    0    0 -0.10833768891E+02 -0.44257648588E+02 -0.47118288019E+02  0.65545732681E+02  0.00000000000E+00 0.  1.
</event>
<event>
 7    1  0.2732144E-009  0.1255835E+03  0.7561462E-02  0.1234160E+00
          1   -1    0    0  501    0  0.00000000000E+00  0.00000000000E+00  0.73374443750E+03  0.73374443750E+03  0.00000000000E+00 0. -1.
         -1   -1    0    0    0  501 -0.00000000000E+00 -0.00000000000E+00 -0.31346698204E+02  0.31346698204E+02  0.00000000000E+00 0.  1.
         25    2    1    2    0    0  0.76968409901E+01 -0.69533237061E+02  0.18083229996E+03  0.23074407999E+03  0.12509355428E+03 0.  0.
          5    1    3    3  502    0 -0.50073818482E+02 -0.59344047151E+02  0.13650252661E+03  0.15709715274E+03  0.41800000000E+01 0. -1.
         -5    1    3    3    0  502  0.57770659472E+02 -0.10189189909E+02  0.44329773353E+02  0.73646927243E+02  0.41800000000E+01 0. -1.
        -11    1    1    2    0    0  0.28421972061E+02  0.72974287537E+02  0.31294904105E+03  0.32259906607E+03  0.00000000000E+00 0.  1.
         11    1    1    2    0    0 -0.36118813051E+02 -0.34410504762E+01  0.20861639829E+03  0.21174798964E+03  0.00000000000E+00 0. -1.
</event>
<event>
 7    1  0.2732144E-009  0.1568754E+03  0.7561462E-02  0.1192270E+00
         -2   -1    0    0    0  501 -0.00000000000E+00  0.00000000000E+00  0.16523913526E+03  0.16523913526E+03  0.00000000000E+00 0.  1.
          2   -1    0    0  501    0  0.00000000000E+00 -0.00000000000E+00 -0.18564615808E+03  0.18564615808E+03  0.00000000000E+00 0. -1.
         25    2    1    2    0    0  0.12500984193E+03 -0.11907786831E+02  0.47026894176E+02  0.18338049037E+03  0.12509044530E+03 0.  0.
          5    1    3    3  502    0  0.78811556093E+02 -0.57692905668E+02 -0.79908246095E+01  0.98086994123E+02  0.41800000000E+01 0. -1.
         -5    1    3    3    0  502  0.46198285839E+02  0.45785118837E+02  0.55017718785E+02  0.85293496245E+02  0.41800000000E+01 0. -1.
        -11    1    1    2    0    0 -0.62450701758E+02 -0.35939430887E+02 -0.47369915489E+02  0.86230167204E+02  0.00000000000E+00 0. -1.
         11    1    1    2    0    0 -0.62559140175E+02  0.47847217718E+02 -0.20064001502E+02  0.81274635767E+02  0.00000000000E+00 0.  1.
</event>
<event>
 7    1  0.2732144E-009  0.2032070E+03  0.7561462E-02  0.1147061E+00
         -1   -1    0    0    0  501 -0.00000000000E+00  0.00000000000E+00  0.24461251069E+04  0.24461251069E+04  0.00000000000E+00 0.  1.
          1   -1    0    0  501    0  0.00000000000E+00 -0.00000000000E+00 -0.23322360811E+02  0.23322360811E+02  0.00000000000E+00 0. -1.
         25    2    1    2    0    0  0.16693796671E+03 -0.76457955905E+02  0.18183350723E+04  0.18318579218E+04  0.12508759681E+03 0.  0.
          5    1    3    3  502    0  0.17708131273E+03 -0.39809178073E+02  0.13873535643E+04  0.13991818848E+04  0.41800000000E+01 0. -1.
         -5    1    3    3    0  502 -0.10143346018E+02 -0.36648777832E+02  0.43098150800E+03  0.43267603703E+03  0.41800000000E+01 0. -1.
        -11    1    1    2    0    0 -0.94094644263E+02  0.61019697672E+02  0.23116201800E+03  0.25693011530E+03  0.00000000000E+00 0. -1.
         11    1    1    2    0    0 -0.72843322446E+02  0.15438258233E+02  0.37330565579E+03  0.38065943057E+03  0.00000000000E+00 0.  1.
</event>
<event>
 7    1  0.2732144E-009  0.2236703E+03  0.7561462E-02  0.1131176E+00
         -1   -1    0    0    0  501 -0.00000000000E+00  0.00000000000E+00  0.37598726639E+03  0.37598726639E+03  0.00000000000E+00 0.  1.
          1   -1    0    0  501    0  0.00000000000E+00 -0.00000000000E+00 -0.13877371195E+03  0.13877371195E+03  0.00000000000E+00 0. -1.
         25    2    1    2    0    0 -0.18453086692E+03 -0.66899087603E+02  0.15097124107E+03  0.27742920788E+03  0.12509005150E+03 0.  0.
          5    1    3    3  502    0 -0.19420157309E+03 -0.32803668115E+02  0.12530672992E+03  0.23347286908E+03  0.41800000000E+01 0.  1.
         -5    1    3    3    0  502  0.96707061715E+01 -0.34095419488E+02  0.25664511150E+02  0.43956338798E+02  0.41800000000E+01 0.  1.
        -11    1    1    2    0    0  0.65887137943E+02  0.69791041650E+02  0.10520331220E+02  0.96553517854E+02  0.00000000000E+00 0. -1.
         11    1    1    2    0    0  0.11864372898E+03 -0.28919540470E+01  0.75721982151E+02  0.14077825260E+03  0.00000000000E+00 0.  1.
</event>
<event>
 7    1  0.2732144E-009  0.1718536E+03  0.7561462E-02  0.1175929E+00
         -2   -1    0    0    0  501 -0.00000000000E+00  0.00000000000E+00  0.28080085644E+03  0.28080085644E+03  0.00000000000E+00 0.  1.
          2   -1    0    0  501    0  0.00000000000E+00 -0.00000000000E+00 -0.18190035221E+03  0.18190035221E+03  0.00000000000E+00 0. -1.
         25    2    1    2    0    0 -0.44749601676E+02 -0.14121540911E+03 -0.84151603922E+02  0.21135318780E+03  0.12507741175E+03 0.  0.
          5    1    3    3  502    0 -0.57730317000E+02 -0.15299840880E+03 -0.96108407775E+02  0.18972506698E+03  0.41800000000E+01 0. -1.
         -5    1    3    3    0  502  0.12980715324E+02  0.11782999685E+02  0.11956803853E+02  0.21628120821E+02  0.41800000000E+01 0. -1.
        -11    1    1    2    0    0 -0.14952012209E+02  0.56632846541E+02  0.28032966286E+02  0.64936039109E+02  0.00000000000E+00 0. -1.
         11    1    1    2    0    0  0.59701613886E+02  0.84582562574E+02  0.15501914187E+03  0.18641198174E+03  0.00000000000E+00 0.  1.
</event>
<event>
 7    1  0.2732144E-009  0.1154262E+03  0.7561462E-02  0.1250839E+00
         -2   -1    0    0    0  501 -0.00000000000E+00  0.00000000000E+00  0.92520996455E+02  0.92520996455E+02  0.00000000000E+00 0.  1.
          2   -1    0    0  501    0  0.00000000000E+00 -0.00000000000E+00 -0.20894064567E+03  0.20894064567E+03  0.00000000000E+00 0. -1.
         25    2    1    2    0    0 -0.61320708325E+02  0.58912325493E+02 -0.76864589090E+02  0.16967233899E+03  0.12509854595E+03 0.  0.
          5    1    3    3  502    0 -0.89786971517E+02  0.68923553002E+02 -0.36299895465E+02  0.11894247023E+03  0.41800000000E+01 0. -1.
         -5    1    3    3    0  502  0.28466263193E+02 -0.10011227509E+02 -0.40564693625E+02  0.50729868769E+02  0.41800000000E+01 0. -1.
        -11    1    1    2    0    0  0.12582889771E+02 -0.24230350123E+02  0.29656108169E+02  0.40310342765E+02  0.00000000000E+00 0.  1.
         11    1    1    2    0    0  0.48737818553E+02 -0.34681975370E+02 -0.69211168296E+02  0.91478960366E+02  0.00000000000E+00 0. -1.
</event>
<event>
 7    1  0.2732144E-009  0.1023751E+03  0.7561462E-02  0.1275379E+00
         -2   -1    0    0    0  501 -0.00000000000E+00  0.00000000000E+00  0.43689746343E+02  0.43689746343E+02  0.00000000000E+00 0.  1.
          2   -1    0    0  501    0  0.00000000000E+00 -0.00000000000E+00 -0.39256209747E+03  0.39256209747E+03  0.00000000000E+00 0. -1.
         25    2    1    2    0    0 -0.67133699256E+02  0.11593861301E+02 -0.15861929631E+03  0.21318774742E+03  0.12509030055E+03 0.  0.
          5    1    3    3  502    0 -0.29505978657E+02 -0.24764553502E+02  0.70661195826E+01  0.39386397812E+02  0.41800000000E+01 0.  1.
         -5    1    3    3    0  502 -0.37627720599E+02  0.36358414803E+02 -0.16568541589E+03  0.17380134961E+03  0.41800000000E+01 0.  1.
        -11    1    1    2    0    0 -0.21489734425E+02  0.76736467155E+01 -0.20843380691E+02  0.30905340286E+02  0.00000000000E+00 0.  1.
         11    1    1    2    0    0  0.88623433680E+02 -0.19267508017E+02 -0.16940967412E+03  0.19215875611E+03  0.00000000000E+00 0. -1.
</event>
<event>
 7    1  0.2732144E-009  0.8970271E+02  0.7561462E-02  0.1303573E+00
          4   -1    0    0  501    0  0.00000000000E+00  0.00000000000E+00  0.21577586778E+03  0.21577586778E+03  0.00000000000E+00 0. -1.
         -4   -1    0    0    0  501 -0.00000000000E+00 -0.00000000000E+00 -0.95013416952E+02  0.95013416952E+02  0.00000000000E+00 0.  1.
         25    2    1    2    0    0 -0.46045963121E+02  0.14580252403E+02  0.15230281804E+03  0.20291892021E+03  0.12508846997E+03 0.  0.
          5    1    3    3  502    0  0.21912191832E+02 -0.38660108038E+02  0.32591338969E+02  0.55266770126E+02  0.41800000000E+01 0.  1.
         -5    1    3    3    0  502 -0.67958154953E+02  0.53240360441E+02  0.11971147907E+03  0.14765215009E+03  0.41800000000E+01 0.  1.
        -11    1    1    2    0    0  0.17720176923E+02 -0.66288065974E+01  0.32381197865E+02  0.37503169496E+02  0.00000000000E+00 0. -1.
         11    1    1    2    0    0  0.28325786198E+02 -0.79514458059E+01 -0.63921565073E+02  0.70367195024E+02  0.00000000000E+00 0.  1.
</event>
<event>
 7    1  0.2732144E-009  0.8045592E+02  0.7561462E-02  0.1327763E+00
         -2   -1    0    0    0  501 -0.00000000000E+00  0.00000000000E+00  0.28777343729E+02  0.28777343729E+02  0.00000000000E+00 0.  1.
          2   -1    0    0  501    0  0.00000000000E+00 -0.00000000000E+00 -0.61499329650E+03  0.61499329650E+03  0.00000000000E+00 0. -1.
         25    2    1    2    0    0  0.62795306466E+02  0.19370290683E+02 -0.22674624480E+03  0.26717110423E+03  0.12509228885E+03 0.  0.
          5    1    3    3  502    0  0.47736531400E+02  0.16153927403E+02 -0.24071219408E+03  0.24596658021E+03  0.41800000000E+01 0. -1.
         -5    1    3    3    0  502  0.15058775067E+02  0.32163632796E+01  0.13965949287E+02  0.21204524016E+02  0.41800000000E+01 0. -1.
        -11    1    1    2    0    0  0.14328685458E+02  0.17204726111E+01 -0.87407312384E+01  0.16872214897E+02  0.00000000000E+00 0.  1.
         11    1    1    2    0    0 -0.77123991924E+02 -0.21090763294E+02 -0.35072897673E+03  0.35972732110E+03  0.00000000000E+00 0. -1.
</event>
<event>
 7    1  0.2732144E-009  0.1151046E+03  0.7561462E-02  0.1251399E+00
         -1   -1    0    0    0  501 -0.00000000000E+00  0.00000000000E+00  0.10410559388E+03  0.10410559388E+03  0.00000000000E+00 0.  1.
          1   -1    0    0  501    0  0.00000000000E+00 -0.00000000000E+00 -0.20819858118E+03  0.20819858118E+03  0.00000000000E+00 0. -1.
         25    2    1    2    0    0  0.82481022741E+02 -0.41125815856E+02 -0.17296062791E+02  0.15633502059E+03  0.12508810108E+03 0.  0.
          5    1    3    3  502    0 -0.10826136344E+02 -0.19165578885E+02  0.39082566561E+02  0.45049351284E+02  0.41800000000E+01 0. -1.
         -5    1    3    3    0  502  0.93307159085E+02 -0.21960236971E+02 -0.56378629352E+02  0.11128566930E+03  0.41800000000E+01 0. -1.
        -11    1    1    2    0    0 -0.91646104040E+02  0.27963483625E+02 -0.97488810525E+02  0.13669320751E+03  0.00000000000E+00 0. -1.
         11    1    1    2    0    0  0.91650812988E+01  0.13162332231E+02  0.10691886017E+02  0.19275946969E+02  0.00000000000E+00 0.  1.
</event>
<event>
 7    1  0.2732144E-009  0.1269294E+03  0.7561462E-02  0.1232084E+00
          1   -1    0    0  501    0  0.00000000000E+00  0.00000000000E+00  0.82550705550E+03  0.82550705550E+03  0.00000000000E+00 0. -1.
         -1   -1    0    0    0  501 -0.00000000000E+00 -0.00000000000E+00 -0.29271882376E+02  0.29271882376E+02  0.00000000000E+00 0.  1.
         25    2    1    2    0    0 -0.79572198179E+02  0.38274817617E+02  0.25171471108E+03  0.29462942102E+03  0.12509797589E+03 0.  0.
          5    1    3    3  502    0 -0.90993043150E+02  0.51628787010E+02  0.25554744213E+03  0.27616522795E+03  0.41800000000E+01 0.  1.
         -5    1    3    3    0  502  0.11420844971E+02 -0.13353969393E+02 -0.38327310551E+01  0.18464193070E+02  0.41800000000E+01 0.  1.
        -11    1    1    2    0    0  0.82228125624E+02 -0.64640962804E+02  0.44897896710E+03  0.46100111888E+03  0.00000000000E+00 0.  1.
         11    1    1    2    0    0 -0.26559274442E+01  0.26366145187E+02  0.95541494950E+02  0.99148397969E+02  0.00000000000E+00 0. -1.
</event>
<event>
 7    1  0.2732144E-009  0.9487788E+02  0.7561462E-02  0.1291451E+00
          2   -1    0    0  501    0  0.00000000000E+00  0.00000000000E+00  0.12978877009E+03  0.12978877009E+03  0.00000000000E+00 0.  1.
         -2   -1    0    0    0  501 -0.00000000000E+00 -0.00000000000E+00 -0.96304725347E+02  0.96304725347E+02  0.00000000000E+00 0. -1.
         25    2    1    2    0    0  0.12644973163E+02  0.25536581575E+02  0.56742958970E+02  0.14028469002E+03  0.12509204019E+03 0.  0.
          5    1    3    3  502    0 -0.22535476403E+02 -0.37100529536E+02 -0.69797477961E+01  0.44164309888E+02  0.41800000000E+01 0. -1.
         -5    1    3    3    0  502  0.35180449566E+02  0.62637111111E+02  0.63722706766E+02  0.96120380137E+02  0.41800000000E+01 0. -1.
        -11    1    1    2    0    0 -0.86506216726E+01  0.23470933239E+02  0.94646919493E+01  0.26745062276E+02  0.00000000000E+00 0.  1.
         11    1    1    2    0    0 -0.39943514909E+01 -0.49007514814E+02 -0.32723606176E+02  0.59063743136E+02  0.00000000000E+00 0. -1.
</event>
<event>
 7    1  0.2732144E-009  0.1195457E+03  0.7561462E-02  0.1243848E+00
          1   -1    0    0  501    0  0.00000000000E+00  0.00000000000E+00  0.61227547591E+03  0.61227547591E+03  0.00000000000E+00 0. -1.
         -1   -1    0    0    0  501 -0.00000000000E+00 -0.00000000000E+00 -0.26193487914E+02  0.26193487914E+02  0.00000000000E+00 0.  1.
         25    2    1    2    0    0  0.56542837691E+02  0.60801325734E+00  0.23852301998E+03  0.27520173809E+03  0.12508118728E+03 0.  0.
          5    1    3    3  502    0  0.94943573245E+02 -0.71079282910E+00  0.19544198618E+03  0.21732425012E+03  0.41800000000E+01 0.  1.
         -5    1    3    3    0  502 -0.38400735554E+02  0.13188060864E+01  0.43081033799E+02  0.57877487970E+02  0.41800000000E+01 0.  1.
        -11    1    1    2    0    0 -0.70237861237E+02 -0.27336730249E+02  0.25977502747E+03  0.27048792740E+03  0.00000000000E+00 0.  1.
         11    1    1    2    0    0  0.13695023545E+02  0.26728716992E+02  0.87783940552E+02  0.92779298342E+02  0.00000000000E+00 0. -1.
</event>
<event>
 7    1  0.2732144E-009  0.1016693E+03  0.7561462E-02  0.1276824E+00
          3   -1    0    0  501    0  0.00000000000E+00  0.00000000000E+00  0.12367855490E+03  0.12367855490E+03  0.00000000000E+00 0. -1.
         -3   -1    0    0    0  501 -0.00000000000E+00 -0.00000000000E+00 -0.96271748600E+02  0.96271748600E+02  0.00000000000E+00 0.  1.
         25    2    1    2    0    0  0.50002570621E+02  0.39361681560E+02  0.45759055554E+02  0.14761727632E+03  0.12508944824E+03 0.  0.
          5    1    3    3  502    0 -0.48545573609E+01  0.70179161221E+02  0.13394765438E+01  0.70483671827E+02  0.41800000000E+01 0. -1.
         -5    1    3    3    0  502  0.54857127982E+02 -0.30817479661E+02  0.44419579010E+02  0.77133604496E+02  0.41800000000E+01 0. -1.
        -11    1    1    2    0    0 -0.62878913978E+00 -0.14526736862E+02 -0.18723086164E+01  0.14660388781E+02  0.00000000000E+00 0. -1.
         11    1    1    2    0    0 -0.49373781481E+02 -0.24834944698E+02 -0.16479940640E+02  0.57672638395E+02  0.00000000000E+00 0.  1.
</event>
<event>
 7    1  0.2732144E-009  0.1765311E+03  0.7561462E-02  0.1171203E+00
          1   -1    0    0  501    0  0.00000000000E+00  0.00000000000E+00  0.48461454887E+03  0.48461454887E+03  0.00000000000E+00 0. -1.
         -1   -1    0    0    0  501 -0.00000000000E+00 -0.00000000000E+00 -0.86856829045E+02  0.86856829045E+02  0.00000000000E+00 0.  1.
         25    2    1    2    0    0  0.97043714987E+02 -0.10457804353E+03  0.34199199631E+03  0.39110103078E+03  0.12508973153E+03 0.  0.
          5    1    3    3  502    0  0.12592540168E+03 -0.90434693904E+02  0.25748703095E+03  0.30058723219E+03  0.41800000000E+01 0. -1.
         -5    1    3    3    0  502 -0.28881686694E+02 -0.14143349628E+02  0.84504965355E+02  0.90513798587E+02  0.41800000000E+01 0. -1.
        -11    1    1    2    0    0  0.80910632199E+01  0.42888414599E+02  0.36632057733E+02  0.56980602529E+02  0.00000000000E+00 0. -1.
         11    1    1    2    0    0 -0.10513477821E+03  0.61689628934E+02  0.19133665783E+02  0.12338974460E+03  0.00000000000E+00 0.  1.
</event>
<event>
 7    1  0.2732144E-009  0.2371236E+03  0.7561462E-02  0.1121724E+00
         -1   -1    0    0    0  501 -0.00000000000E+00  0.00000000000E+00  0.22884392935E+03  0.22884392935E+03  0.00000000000E+00 0.  1.
          1   -1    0    0  501    0  0.00000000000E+00 -0.00000000000E+00 -0.28296135320E+03  0.28296135320E+03  0.00000000000E+00 0. -1.
         25    2    1    2    0    0 -0.75144395248E+02 -0.19897060853E+03  0.59846464562E+02  0.25388091727E+03  0.12505173983E+03 0.  0.
          5    1    3    3  502    0 -0.73017807995E+02 -0.34262082967E+02  0.31473399097E+02  0.86680666035E+02  0.41800000000E+01 0. -1.
         -5    1    3    3    0  502 -0.21265872534E+01 -0.16470852557E+03  0.28373065464E+02  0.16720025123E+03  0.41800000000E+01 0. -1.
        -11    1    1    2    0    0  0.52257279728E+02  0.34424480056E+02 -0.14292399750E+02  0.64188322944E+02  0.00000000000E+00 0.  1.
         11    1    1    2    0    0  0.22887115520E+02  0.16454612848E+03 -0.99671488662E+02  0.19373604235E+03  0.00000000000E+00 0. -1.
</event>
<event>
 7    1  0.2732144E-009  0.1073852E+03  0.7561462E-02  0.1265490E+00
          3   -1    0    0  501    0  0.00000000000E+00  0.00000000000E+00  0.59793980891E+03  0.59793980891E+03  0.00000000000E+00 0.  1.
         -3   -1    0    0    0  501 -0.00000000000E+00 -0.00000000000E+00 -0.35298009543E+02  0.35298009543E+02  0.00000000000E+00 0. -1.
         25    2    1    2    0    0  0.60580306986E+02 -0.68624356630E+02  0.36239974247E+03  0.39415829439E+03  0.12509161355E+03 0.  0.
          5    1    3    3  502    0  0.89448605144E+01 -0.70676511399E+02  0.80698930428E+02  0.10772636430E+03  0.41800000000E+01 0.  1.
         -5    1    3    3    0  502  0.51635446471E+02  0.20521547697E+01  0.28170081204E+03  0.28643193009E+03  0.41800000000E+01 0.  1.
        -11    1    1    2    0    0 -0.24406383145E+02  0.29214659313E+02  0.71747470978E+01  0.38738157583E+02  0.00000000000E+00 0. -1.
         11    1    1    2    0    0 -0.36173923841E+02  0.39409697316E+02  0.19306730980E+03  0.20034136648E+03  0.00000000000E+00 0.  1.
</event>
<event>
 7    1  0.2732144E-009  0.1004084E+03  0.7561462E-02  0.1279439E+00
          1   -1    0    0  501    0  0.00000000000E+00  0.00000000000E+00  0.11470819120E+03  0.11470819120E+03  0.00000000000E+00 0. -1.
         -1   -1    0    0    0  501 -0.00000000000E+00 -0.00000000000E+00 -0.15015582012E+03  0.15015582012E+03  0.00000000000E+00 0.  1.
         25    2    1    2    0    0 -0.63818121626E+02 -0.48447375342E+01 -0.49997503448E+02  0.14914099319E+03  0.12508821435E+03 0.  0.
          5    1    3    3  502    0  0.16575820217E+02 -0.44043406347E+02 -0.14028684171E+01  0.47265419689E+02  0.41800000000E+01 0.  1.
         -5    1    3    3    0  502 -0.80393941844E+02  0.39198668813E+02 -0.48594635031E+02  0.10187557350E+03  0.41800000000E+01 0.  1.
        -11    1    1    2    0    0  0.23124791257E+02  0.27277812585E+01 -0.40808605777E+02  0.46984455586E+02  0.00000000000E+00 0.  1.
         11    1    1    2    0    0  0.40693330370E+02  0.21169562757E+01  0.55358480305E+02  0.68738562555E+02  0.00000000000E+00 0. -1.
</event>
<event>
 7    1  0.2732144E-009  0.1434471E+03  0.7561462E-02  0.1208765E+00
          3   -1    0    0  501    0  0.00000000000E+00  0.00000000000E+00  0.18521826200E+03  0.18521826200E+03  0.00000000000E+00 0. -1.
         -3   -1    0    0    0  501 -0.00000000000E+00 -0.00000000000E+00 -0.13702926058E+03  0.13702926058E+03  0.00000000000E+00 0.  1.
         25    2    1    2    0    0  0.64790008484E+02 -0.97552840491E+02  0.32669006048E+02  0.17443806046E+03  0.12508825323E+03 0.  0.
          5    1    3    3  502    0 -0.19835405206E+02 -0.59849218869E+02  0.49393454746E+02  0.80203229802E+02  0.41800000000E+01 0.  1.
         -5    1    3    3    0  502  0.84625413691E+02 -0.37703621622E+02 -0.16724448698E+02  0.94234830662E+02  0.41800000000E+01 0.  1.
        -11    1    1    2    0    0 -0.46369233363E+02  0.10197484176E+03 -0.13834119497E+02  0.11287318998E+03  0.00000000000E+00 0.  1.
         11    1    1    2    0    0 -0.18420775121E+02 -0.44220012685E+01  0.29354114862E+02  0.34936272133E+02  0.00000000000E+00 0. -1.
</event>
<event>
 7    1  0.2732144E-009  0.1161162E+03  0.7561462E-02  0.1249645E+00
          2   -1    0    0  501    0  0.00000000000E+00  0.00000000000E+00  0.25310437834E+03  0.25310437834E+03  0.00000000000E+00 0. -1.
         -2   -1    0    0    0  501 -0.00000000000E+00 -0.00000000000E+00 -0.70733678829E+02  0.70733678829E+02  0.00000000000E+00 0.  1.
         25    2    1    2    0    0 -0.48775436192E+02 -0.38049862553E+02  0.42154133760E+02  0.14577194682E+03  0.12508258980E+03 0.  0.
          5    1    3    3  502    0 -0.18149890508E+01  0.35422490698E+02  0.46182532822E+02  0.58381039477E+02  0.41800000000E+01 0. -1.
         -5    1    3    3    0  502 -0.46960447141E+02 -0.73472353251E+02 -0.40283990622E+01  0.87390907347E+02  0.41800000000E+01 0. -1.
        -11    1    1    2    0    0  0.64757267784E+02 -0.33485265958E+01  0.91769567244E+02  0.11236712078E+03  0.00000000000E+00 0.  1.
         11    1    1    2    0    0 -0.15981831592E+02  0.41398389149E+02  0.48446998511E+02  0.65698989565E+02  0.00000000000E+00 0. -1.
</event>
<event>
 7    1  0.2732144E-009  0.1290648E+03  0.7561462E-02  0.1228850E+00
         -1   -1    0    0    0  501 -0.00000000000E+00  0.00000000000E+00  0.41957919856E+02  0.41957919856E+02  0.00000000000E+00 0.  1.
          1   -1    0    0  501    0  0.00000000000E+00 -0.00000000000E+00 -0.70442062045E+03  0.70442062045E+03  0.00000000000E+00 0. -1.
         25    2    1    2    0    0  0.10148189182E+03 -0.74714284828E+02 -0.50651626828E+03  0.53673026977E+03  0.12505940078E+03 0.  0.
          5    1    3    3  502    0  0.10347482856E+03 -0.67955618449E+02 -0.23991480781E+03  0.27000295115E+03  0.41800000000E+01 0. -1.
         -5    1    3    3    0  502 -0.19929367407E+01 -0.67586663780E+01 -0.26660146047E+03  0.26672731861E+03  0.41800000000E+01 0. -1.
        -11    1    1    2    0    0 -0.42799000545E+02  0.29280480693E+02 -0.21619350793E+02  0.56182713764E+02  0.00000000000E+00 0.  1.
         11    1    1    2    0    0 -0.58682891280E+02  0.45433804135E+02 -0.13432708152E+03  0.15346555678E+03  0.00000000000E+00 0. -1.
</event>
<event>
 7    1  0.2732144E-009  0.1194698E+03  0.7561462E-02  0.1243974E+00
         -2   -1    0    0    0  501 -0.00000000000E+00  0.00000000000E+00  0.75780869259E+02  0.75780869259E+02  0.00000000000E+00 0.  1.
          2   -1    0    0  501    0  0.00000000000E+00 -0.00000000000E+00 -0.20648837853E+03  0.20648837853E+03  0.00000000000E+00 0. -1.
         25    2    1    2    0    0 -0.33473657744E+02  0.51724291842E+02 -0.96084596216E+02  0.16934168335E+03  0.12509383661E+03 0.  0.
          5    1    3    3  502    0 -0.68452942738E+02 -0.88293185439E+00 -0.22308293060E+02  0.72122931702E+02  0.41800000000E+01 0.  1.
         -5    1    3    3    0  502  0.34979284993E+02  0.52607223696E+02 -0.73776303156E+02  0.97218751643E+02  0.41800000000E+01 0.  1.
        -11    1    1    2    0    0 -0.28000229063E+02 -0.21767386008E+01 -0.13692437081E+02  0.31244741186E+02  0.00000000000E+00 0.  1.
         11    1    1    2    0    0  0.61473886807E+02 -0.49547553241E+02 -0.20930475977E+02  0.81682823262E+02  0.00000000000E+00 0. -1.
</event>
<event>
 7    1  0.2732144E-009  0.1088105E+03  0.7561462E-02  0.1262789E+00
          2   -1    0    0  501    0  0.00000000000E+00  0.00000000000E+00  0.74206679405E+03  0.74206679405E+03  0.00000000000E+00 0. -1.
         -2   -1    0    0    0  501 -0.00000000000E+00 -0.00000000000E+00 -0.25984142947E+02  0.25984142947E+02  0.00000000000E+00 0.  1.
         25    2    1    2    0    0 -0.19328274049E+02 -0.86047097223E+02  0.37603487955E+03  0.40598780778E+03  0.12508470852E+03 0.  0.
          5    1    3    3  502    0 -0.35796380990E+02 -0.19446433260E+02  0.24338744739E+02  0.47638131303E+02  0.41800000000E+01 0.  1.
         -5    1    3    3    0  502  0.16468106941E+02 -0.66600663963E+02  0.35169613481E+03  0.35834967647E+03  0.41800000000E+01 0.  1.
        -11    1    1    2    0    0 -0.21120984971E+02  0.47839339745E+02  0.25586045658E+03  0.26114990269E+03  0.00000000000E+00 0. -1.
         11    1    1    2    0    0  0.40449259020E+02  0.38207757478E+02  0.84187314967E+02  0.10091322653E+03  0.00000000000E+00 0.  1.
</event>
<event>
 7    1  0.2732144E-009  0.1157108E+03  0.7561462E-02  0.1250345E+00
          1   -1    0    0  501    0  0.00000000000E+00  0.00000000000E+00  0.26643136554E+03  0.26643136554E+03  0.00000000000E+00 0. -1.
         -1   -1    0    0    0  501 -0.00000000000E+00 -0.00000000000E+00 -0.73660298138E+02  0.73660298138E+02  0.00000000000E+00 0.  1.
         25    2    1    2    0    0  0.39489665112E+02  0.17114652925E+02  0.19922138571E+03  0.23914274803E+03  0.12509096055E+03 0.  0.
          5    1    3    3  502    0  0.29897192988E+02  0.70703517089E+02  0.12929439091E+03  0.15042387243E+03  0.41800000000E+01 0.  1.
         -5    1    3    3    0  502  0.95924721235E+01 -0.53588864164E+02  0.69926994810E+02  0.88718875596E+02  0.41800000000E+01 0.  1.
        -11    1    1    2    0    0  0.22231653574E+02 -0.29551747108E+02  0.37346873052E+01  0.37168535982E+02  0.00000000000E+00 0.  1.
         11    1    1    2    0    0 -0.61721318686E+02  0.12437094183E+02 -0.10185005615E+02  0.63780379674E+02  0.00000000000E+00 0. -1.
</event>
<event>
 6    1  0.2732144E-009  0.1469710E+03  0.7561462E-02  0.1204245E+00
         -1   -1    0    0    0  501 -0.00000000000E+00  0.00000000000E+00  0.22578511044E+03  0.22578511044E+03  0.00000000000E+00 0.  1.
          1   -1    0    0  501    0  0.00000000000E+00 -0.00000000000E+00 -0.18206816933E+03  0.18206816933E+03  0.00000000000E+00 0. -1.
          5    1    1    2  502    0 -0.13267178973E+02 -0.12442276730E+02  0.93217997165E+02  0.95067847791E+02  0.41800000000E+01 0. -1.
         -5    1    1    2    0  502 -0.10261775303E+03  0.66704251283E+02  0.43103861500E+02  0.12982786932E+03  0.41800000000E+01 0. -1.
        -11    1    1    2    0    0  0.65125177024E+01 -0.42291604744E+02 -0.47811567774E+02  0.64163375314E+02  0.00000000000E+00 0. -1.
         11    1    1    2    0    0  0.10937241430E+03 -0.11970369809E+02 -0.44793349783E+02  0.11879418735E+03  0.00000000000E+00 0.  1.
</event>
<event>
 7    1  0.2732144E-009  0.1243563E+03  0.7561462E-02  0.1236079E+00
         -1   -1    0    0    0  501 -0.00000000000E+00  0.00000000000E+00  0.73145095547E+02  0.73145095547E+02  0.00000000000E+00 0.  1.
          1   -1    0    0  501    0  0.00000000000E+00 -0.00000000000E+00 -0.24706666540E+03  0.24706666540E+03  0.00000000000E+00 0. -1.
         25    2    1    2    0    0 -0.23101527372E+02 -0.74872041884E+02 -0.10893220911E+03  0.18344802520E+03  0.12508976195E+03 0.  0.
          5    1    3    3  502    0  0.22407210039E+02 -0.94587580065E+02 -0.79340063309E+02  0.12554366336E+03  0.41800000000E+01 0. -1.
         -5    1    3    3    0  502 -0.45508737411E+02  0.19715538181E+02 -0.29592145800E+02  0.57904361835E+02  0.41800000000E+01 0. -1.
        -11    1    1    2    0    0  0.21421331716E+02 -0.48028440553E+01 -0.51438476274E+02  0.55927252792E+02  0.00000000000E+00 0.  1.
         11    1    1    2    0    0  0.16801956560E+01  0.79674885939E+02 -0.13550884466E+02  0.80836482956E+02  0.00000000000E+00 0. -1.
</event>
<event>
 7    1  0.2732144E-009  0.1679269E+03  0.7561462E-02  0.1180027E+00
         -1   -1    0    0    0  501 -0.00000000000E+00  0.00000000000E+00  0.62677213150E+02  0.62677213150E+02  0.00000000000E+00 0.  1.
          1   -1    0    0  501    0  0.00000000000E+00 -0.00000000000E+00 -0.55445342279E+03  0.55445342279E+03  0.00000000000E+00 0. -1.
         25    2    1    2    0    0  0.25666932640E+01  0.15104543395E+03 -0.31178057021E+03  0.36834243474E+03  0.12509082395E+03 0.  0.
          5    1    3    3  502    0 -0.24682170087E+02  0.14728028809E+03 -0.30512438103E+03  0.33973379738E+03  0.41800000000E+01 0.  1.
         -5    1    3    3    0  502  0.27248863351E+02  0.37651458621E+01 -0.66561891790E+01  0.28608637362E+02  0.41800000000E+01 0.  1.
        -11    1    1    2    0    0  0.20087638216E+02 -0.10940249294E+03 -0.76637002268E+02  0.13507645534E+03  0.00000000000E+00 0.  1.
         11    1    1    2    0    0 -0.22654331480E+02 -0.41642941009E+02 -0.10335863716E+03  0.11371174586E+03  0.00000000000E+00 0. -1.
</event>
<event>
 7    1  0.2732144E-009  0.1118543E+03  0.7561462E-02  0.1257174E+00
         -2   -1    0    0    0  501 -0.00000000000E+00  0.00000000000E+00  0.11041991269E+02  0.11041991269E+02  0.00000000000E+00 0.  1.
          2   -1    0    0  501    0  0.00000000000E+00 -0.00000000000E+00 -0.19510737317E+04  0.19510737317E+04  0.00000000000E+00 0. -1.
         25    2    1    2    0    0 -0.18779445739E+02 -0.23685732013E+02 -0.16759287786E+04  0.16808615374E+04  0.12507819656E+03 0.  0.
          5    1    3    3  502    0 -0.51860859780E+02  0.33807407880E+02 -0.85214295102E+03  0.85439895306E+03  0.41800000000E+01 0.  1.
         -5    1    3    3    0  502  0.33081414041E+02 -0.57493139893E+02 -0.82378582761E+03  0.82646258431E+03  0.41800000000E+01 0.  1.
        -11    1    1    2    0    0  0.13119825914E+02  0.58486328849E+02 -0.18920482622E+03  0.19847228209E+03  0.00000000000E+00 0. -1.
         11    1    1    2    0    0  0.56596198245E+01 -0.34800596836E+02 -0.74898135621E+02  0.82781903555E+02  0.00000000000E+00 0.  1.
</event>
<event>
 7    1  0.2732144E-009  0.7324466E+02  0.7561462E-02  0.1349395E+00
         -1   -1    0    0    0  501 -0.00000000000E+00  0.00000000000E+00  0.24580549389E+02  0.24580549389E+02  0.00000000000E+00 0.  1.
          1   -1    0    0  501    0  0.00000000000E+00 -0.00000000000E+00 -0.93874324024E+03  0.93874324024E+03  0.00000000000E+00 0. -1.
         25    2    1    2    0    0  0.10492723504E+02 -0.43712802214E+02 -0.79937163375E+03  0.81034774473E+03  0.12509017639E+03 0.  0.
          5    1    3    3  502    0 -0.26200675475E+01 -0.60129230292E+02 -0.77712592480E+03  0.77946428044E+03  0.41800000000E+01 0. -1.
         -5    1    3    3    0  502  0.13112791051E+02  0.16416428078E+02 -0.22245708949E+02  0.30883464292E+02  0.41800000000E+01 0. -1.
        -11    1    1    2    0    0  0.90687586838E+01 -0.62941068481E+01  0.11379693706E+02  0.15854197990E+02  0.00000000000E+00 0.  1.
         11    1    1    2    0    0 -0.19561482188E+02  0.50006909062E+02 -0.12617075081E+03  0.13712184691E+03  0.00000000000E+00 0. -1.
</event>
<event>
 7    1  0.2732144E-009  0.5386371E+02  0.7561462E-02  0.1425550E+00
          2   -1    0    0  501    0  0.00000000000E+00  0.00000000000E+00  0.20833580917E+03  0.20833580917E+03  0.00000000000E+00 0. -1.
         -2   -1    0    0    0  501 -0.00000000000E+00 -0.00000000000E+00 -0.58063603639E+02  0.58063603639E+02  0.00000000000E+00 0.  1.
         25    2    1    2    0    0 -0.58719002507E+01  0.76687305078E+01  0.67949010415E+02  0.14267623962E+03  0.12508458217E+03 0.  0.
          5    1    3    3  502    0  0.12212213772E+02 -0.31010722740E+00 -0.35238545668E+02  0.37529479512E+02  0.41800000000E+01 0.  1.
         -5    1    3    3    0  502 -0.18084114022E+02  0.79788377352E+01  0.10318755608E+03  0.10514676011E+03  0.41800000000E+01 0.  1.
        -11    1    1    2    0    0  0.38910562169E+02 -0.13252593844E+02  0.80234181824E+02  0.90150912502E+02  0.00000000000E+00 0. -1.
         11    1    1    2    0    0 -0.33038661918E+02  0.55838633362E+01  0.20890132957E+01  0.33572260687E+02  0.00000000000E+00 0.  1.
</event>
<event>
 7    1  0.2732144E-009  0.8500104E+02  0.7561462E-02  0.1315430E+00
         -2   -1    0    0    0  501 -0.00000000000E+00  0.00000000000E+00  0.58718175943E+02  0.58718175943E+02  0.00000000000E+00 0.  1.
          2   -1    0    0  501    0  0.00000000000E+00 -0.00000000000E+00 -0.22608389808E+03  0.22608389808E+03  0.00000000000E+00 0. -1.
         25    2    1    2    0    0 -0.13680236391E+01  0.12338983264E+02 -0.42472977888E+02  0.13268476857E+03  0.12508865642E+03 0.  0.
          5    1    3    3  502    0 -0.40608735876E+02 -0.20198184831E+02 -0.62858450927E+02  0.77625339631E+02  0.41800000000E+01 0. -1.
         -5    1    3    3    0  502  0.39240712237E+02  0.32537168094E+02  0.20385473039E+02  0.55059428943E+02  0.41800000000E+01 0. -1.
        -11    1    1    2    0    0  0.18815794926E+01  0.30454292319E+02 -0.95353467255E+02  0.10011637219E+03  0.00000000000E+00 0. -1.
         11    1    1    2    0    0 -0.51355585351E+00 -0.42793275582E+02 -0.29539276989E+02  0.52000933258E+02  0.00000000000E+00 0.  1.
</event>
<event>
 7    1  0.2732144E-009  0.1881287E+03  0.7561462E-02  0.1160160E+00
         -2   -1    0    0    0  501 -0.00000000000E+00  0.00000000000E+00  0.60666844970E+02  0.60666844970E+02  0.00000000000E+00 0. -1.
          2   -1    0    0  501    0  0.00000000000E+00 -0.00000000000E+00 -0.60074181822E+03  0.60074181822E+03  0.00000000000E+00 0.  1.
         25    2    1    2    0    0  0.33801926649E+02  0.15027559153E+03 -0.23061099101E+03  0.30422714589E+03  0.12508958175E+03 0.  0.
          5    1    3    3  502    0  0.68818324716E+02  0.34790097678E+02 -0.10006296318E+03  0.12639771245E+03  0.41800000000E+01 0. -1.
         -5    1    3    3    0  502 -0.35016398067E+02  0.11548549385E+03 -0.13054802784E+03  0.17782943344E+03  0.41800000000E+01 0. -1.
        -11    1    1    2    0    0 -0.47189565239E+02 -0.27173688127E+02 -0.99295276629E+02  0.11324670571E+03  0.00000000000E+00 0.  1.
         11    1    1    2    0    0  0.13387638590E+02 -0.12310190341E+03 -0.21016870561E+03  0.24393481159E+03  0.00000000000E+00 0. -1.
</event>
<event>
 7    1  0.2732144E-009  0.5949477E+02  0.7561462E-02  0.1399964E+00
         -1   -1    0    0    0  501 -0.00000000000E+00  0.00000000000E+00  0.83668847243E+02  0.83668847243E+02  0.00000000000E+00 0.  1.
          1   -1    0    0  501    0  0.00000000000E+00 -0.00000000000E+00 -0.33253023224E+03  0.33253023224E+03  0.00000000000E+00 0. -1.
         25    2    1    2    0    0  0.10529797245E+02 -0.17083378855E+02 -0.28943605529E+03  0.31594965941E+03  0.12509292033E+03 0.  0.
          5    1    3    3  502    0 -0.44160851562E+01  0.30403620767E+02 -0.10742870475E+02  0.32814076703E+02  0.41800000000E+01 0. -1.
         -5    1    3    3    0  502  0.14945882401E+02 -0.47486999622E+02 -0.27869318481E+03  0.28313558271E+03  0.41800000000E+01 0. -1.
        -11    1    1    2    0    0 -0.22207513827E+02  0.98940708657E+01  0.66563535648E+02  0.70864452207E+02  0.00000000000E+00 0.  1.
         11    1    1    2    0    0  0.11677716582E+02  0.71893079890E+01 -0.25988865358E+02  0.29384967866E+02  0.00000000000E+00 0. -1.
</event>
<event>
 7    1  0.2732144E-009  0.1178035E+03  0.7561462E-02  0.1246765E+00
         -1   -1    0    0    0  501 -0.00000000000E+00  0.00000000000E+00  0.62507348439E+02  0.62507348439E+02  0.00000000000E+00 0.  1.
          1   -1    0    0  501    0  0.00000000000E+00 -0.00000000000E+00 -0.45901502591E+03  0.45901502591E+03  0.00000000000E+00 0. -1.
         25    2    1    2    0    0  0.93781257715E+01  0.91576119811E+02 -0.31722486372E+03  0.35321731617E+03  0.12512682890E+03 0.  0.
          5    1    3    3  502    0 -0.31644650979E+02  0.48466888376E+02 -0.27262438707E+03  0.27873276095E+03  0.41800000000E+01 0.  1.
         -5    1    3    3    0  502  0.41022776751E+02  0.43109231435E+02 -0.44600476658E+02  0.74484555214E+02  0.41800000000E+01 0.  1.
        -11    1    1    2    0    0 -0.12518278762E+02  0.10166815925E+02  0.20284723836E+02  0.25914117202E+02  0.00000000000E+00 0.  1.
         11    1    1    2    0    0  0.31401529907E+01 -0.10174293574E+03 -0.99567537581E+02  0.14239094098E+03  0.00000000000E+00 0. -1.
</event>
<event>
 7    1  0.2732144E-009  0.1043979E+03  0.7561462E-02  0.1271310E+00
         -2   -1    0    0    0  501 -0.00000000000E+00  0.00000000000E+00  0.80178471000E+02  0.80178471000E+02  0.00000000000E+00 0.  1.
          2   -1    0    0  501    0  0.00000000000E+00 -0.00000000000E+00 -0.24645119424E+03  0.24645119424E+03  0.00000000000E+00 0. -1.
         25    2    1    2    0    0  0.85710072546E+02 -0.12934615176E+02 -0.64099387467E+02  0.16513376725E+03  0.12508760453E+03 0.  0.
          5    1    3    3  502    0  0.38646545423E+01 -0.19161409467E+02  0.32590821954E+02  0.38232567833E+02  0.41800000000E+01 0. -1.
         -5    1    3    3    0  502  0.81845418003E+02  0.62267942908E+01 -0.96690209420E+02  0.12690119942E+03  0.41800000000E+01 0. -1.
        -11    1    1    2    0    0 -0.34009236805E+02 -0.25239355098E+02 -0.85011762898E+02  0.94977118639E+02  0.00000000000E+00 0.  1.
         11    1    1    2    0    0 -0.51700835741E+02  0.38173970274E+02 -0.17161572871E+02  0.66518779349E+02  0.00000000000E+00 0. -1.
</event>
<event>
 7    1  0.2732144E-009  0.1042503E+03  0.7561462E-02  0.1271604E+00
          1   -1    0    0  501    0  0.00000000000E+00  0.00000000000E+00  0.84629485873E+02  0.84629485873E+02  0.00000000000E+00 0. -1.
         -1   -1    0    0    0  501 -0.00000000000E+00 -0.00000000000E+00 -0.17879764854E+03  0.17879764854E+03  0.00000000000E+00 0.  1.
         25    2    1    2    0    0  0.56110076708E+02 -0.54533639915E+01 -0.48946245865E+02  0.14568770308E+03  0.12510432429E+03 0.  0.
          5    1    3    3  502    0  0.91648863319E+02  0.12914617783E+02 -0.50339068263E+02  0.10544095833E+03  0.41800000000E+01 0. -1.
         -5    1    3    3    0  502 -0.35538786611E+02 -0.18367981775E+02  0.13928223986E+01  0.40246744744E+02  0.41800000000E+01 0. -1.
        -11    1    1    2    0    0 -0.15070548265E+02  0.25756919104E+02 -0.62133881923E+02  0.68928655794E+02  0.00000000000E+00 0.  1.
         11    1    1    2    0    0 -0.41039528442E+02 -0.20303555113E+02  0.16911965121E+02  0.48810775544E+02  0.00000000000E+00 0. -1.
</event>
<event>
 7    1  0.2732144E-009  0.1035026E+03  0.7561462E-02  0.1273098E+00
          4   -1    0    0  501    0  0.00000000000E+00  0.00000000000E+00  0.46342779103E+03  0.46342779103E+03  0.00000000000E+00 0. -1.
         -4   -1    0    0    0  501 -0.00000000000E+00 -0.00000000000E+00 -0.36242650360E+02  0.36242650360E+02  0.00000000000E+00 0.  1.
         25    2    1    2    0    0 -0.31902769015E+02  0.57381923325E+02  0.19023999785E+03  0.23696176985E+03  0.12509656988E+03 0.  0.
          5    1    3    3  502    0 -0.21673678568E+01 -0.20803046927E+02 -0.71844401743E+01  0.22506728450E+02  0.41800000000E+01 0. -1.
         -5    1    3    3    0  502 -0.29735401158E+02  0.78184970253E+02  0.19742443802E+03  0.21445504140E+03  0.41800000000E+01 0. -1.
        -11    1    1    2    0    0 -0.26165363590E+02 -0.18139513724E+02  0.28266387703E+02  0.42575308381E+02  0.00000000000E+00 0.  1.
         11    1    1    2    0    0  0.58068132605E+02 -0.39242409601E+02  0.20867875512E+03  0.22013336316E+03  0.00000000000E+00 0. -1.
</event>
<event>
 7    1  0.2732144E-009  0.1213782E+03  0.7561462E-02  0.1240841E+00
          2   -1    0    0  501    0  0.00000000000E+00  0.00000000000E+00  0.14421707299E+03  0.14421707299E+03  0.00000000000E+00 0.  1.
         -2   -1    0    0    0  501 -0.00000000000E+00 -0.00000000000E+00 -0.23169563869E+03  0.23169563869E+03  0.00000000000E+00 0. -1.
         25    2    1    2    0    0  0.93273868735E+02  0.26568598843E+02  0.61696668615E+02  0.16988222763E+03  0.12509031662E+03 0.  0.
          5    1    3    3  502    0  0.11352995019E+00 -0.29417746031E+02  0.53005991466E+02  0.60766143550E+02  0.41800000000E+01 0.  1.
         -5    1    3    3    0  502  0.93160338785E+02  0.55986344875E+02  0.86906771489E+01  0.10911608408E+03  0.41800000000E+01 0.  1.
        -11    1    1    2    0    0 -0.50831266615E+02  0.54293846853E+01 -0.38214745889E+01  0.51263042748E+02  0.00000000000E+00 0.  1.
         11    1    1    2    0    0 -0.42442602120E+02 -0.31997983529E+02 -0.14535375973E+03  0.15476744131E+03  0.00000000000E+00 0. -1.
</event>
<event>
 7    1  0.2732144E-009  0.1942618E+03  0.7561462E-02  0.1154673E+00
         -2   -1    0    0    0  501 -0.00000000000E+00  0.00000000000E+00  0.34886868474E+02  0.34886868474E+02  0.00000000000E+00 0. -1.
          2   -1    0    0  501    0  0.00000000000E+00 -0.00000000000E+00 -0.12574248528E+04  0.12574248528E+04  0.00000000000E+00 0.  1.
         25    2    1    2    0    0  0.43350359332E+02  0.16041534499E+03 -0.84641101093E+03  0.87159140636E+03  0.12509054183E+03 0.  0.
          5    1    3    3  502    0 -0.41814708709E+02  0.33330217998E+02 -0.26518936323E+03  0.27055913229E+03  0.41800000000E+01 0.  1.
         -5    1    3    3    0  502  0.85165068041E+02  0.12708512699E+03 -0.58122164771E+03  0.60103227408E+03  0.41800000000E+01 0.  1.
        -11    1    1    2    0    0 -0.40143080971E+02 -0.26965326490E+02 -0.56693876161E+02  0.74517054267E+02  0.00000000000E+00 0. -1.
         11    1    1    2    0    0 -0.32072783609E+01 -0.13345001850E+03 -0.31943309722E+03  0.34620326063E+03  0.00000000000E+00 0.  1.
</event>
<event>
 7    1  0.2732144E-009  0.1007959E+03  0.7561462E-02  0.1278631E+00
         -1   -1    0    0    0  501 -0.00000000000E+00  0.00000000000E+00  0.10017605629E+02  0.10017605629E+02  0.00000000000E+00 0.  1.
          1   -1    0    0  501    0  0.00000000000E+00 -0.00000000000E+00 -0.17770077108E+04  0.17770077108E+04  0.00000000000E+00 0. -1.
         25    2    1    2    0    0  0.18674113451E+02  0.48524403217E+02 -0.13644940974E+04  0.13712018891E+04  0.12508852284E+03 0.  0.
          5    1    3    3  502    0 -0.30528329051E+02  0.35668298711E+02 -0.19576374578E+03  0.20135819568E+03  0.41800000000E+01 0. -1.
         -5    1    3    3    0  502  0.49202442502E+02  0.12856104506E+02 -0.11687303516E+04  0.11698436934E+04  0.41800000000E+01 0. -1.
        -11    1    1    2    0    0  0.35888180822E+02 -0.12293648355E+02 -0.12094768431E+03  0.12675739683E+03  0.00000000000E+00 0.  1.
         11    1    1    2    0    0 -0.54562294273E+02 -0.36230754862E+02 -0.28154832344E+03  0.28906603050E+03  0.00000000000E+00 0. -1.
</event>
<event>
 7    1  0.2732144E-009  0.1515751E+03  0.7561462E-02  0.1198551E+00
          2   -1    0    0  501    0  0.00000000000E+00  0.00000000000E+00  0.22097696192E+03  0.22097696192E+03  0.00000000000E+00 0. -1.
         -2   -1    0    0    0  501 -0.00000000000E+00 -0.00000000000E+00 -0.12242553767E+03  0.12242553767E+03  0.00000000000E+00 0.  1.
         25    2    1    2    0    0 -0.86980091112E+02 -0.62164383292E+02 -0.44215071337E+01  0.16460499354E+03  0.12508120312E+03 0.  0.
          5    1    3    3  502    0 -0.12213032690E+02 -0.82140948087E+02 -0.20073372232E+02  0.85537747182E+02  0.41800000000E+01 0. -1.
         -5    1    3    3    0  502 -0.74767058422E+02  0.19976564795E+02  0.15651865099E+02  0.79067246361E+02  0.41800000000E+01 0. -1.
        -11    1    1    2    0    0  0.53233905805E+01 -0.23532592136E+02  0.39074359233E+01  0.24441551411E+02  0.00000000000E+00 0.  1.
         11    1    1    2    0    0  0.81656700532E+02  0.85696975427E+02  0.99065495464E+02  0.15435595463E+03  0.00000000000E+00 0. -1.
</event>
<event>
 7    1  0.2732144E-009  0.1767450E+03  0.7561462E-02  0.1170991E+00
          2   -1    0    0  501    0  0.00000000000E+00  0.00000000000E+00  0.56072613862E+03  0.56072613862E+03  0.00000000000E+00 0. -1.
         -2   -1    0    0    0  501 -0.00000000000E+00 -0.00000000000E+00 -0.80940075755E+02  0.80940075755E+02  0.00000000000E+00 0.  1.
         25    2    1    2    0    0 -0.15854335621E+03  0.70996590290E+02  0.33637245672E+03  0.39871199990E+03  0.12509323562E+03 0.  0.
          5    1    3    3  502    0 -0.49974481401E+02  0.35318982878E+02  0.24433945439E+03  0.25192086200E+03  0.41800000000E+01 0. -1.
         -5    1    3    3    0  502 -0.10856887481E+03  0.35677607412E+02  0.92033002329E+02  0.14679113790E+03  0.41800000000E+01 0. -1.
        -11    1    1    2    0    0  0.13088946818E+03 -0.41380287570E+02  0.59192966699E+02  0.14949310481E+03  0.00000000000E+00 0.  1.
         11    1    1    2    0    0  0.27653888033E+02 -0.29616302721E+02  0.84220639452E+02  0.93461109665E+02  0.00000000000E+00 0. -1.
</event>
<event>
 7    1  0.2732144E-009  0.9977822E+02  0.7561462E-02  0.1280763E+00
          2   -1    0    0  501    0  0.00000000000E+00  0.00000000000E+00  0.49319022133E+03  0.49319022133E+03  0.00000000000E+00 0. -1.
         -2   -1    0    0    0  501 -0.00000000000E+00 -0.00000000000E+00 -0.23715690647E+02  0.23715690647E+02  0.00000000000E+00 0.  1.
         25    2    1    2    0    0  0.94888621327E+01 -0.94997703376E+01  0.26040306158E+03  0.28920217207E+03  0.12509139743E+03 0.  0.
          5    1    3    3  502    0 -0.49502934247E+02 -0.11690956383E+01  0.50027265622E+02  0.70513168907E+02  0.41800000000E+01 0.  1.
         -5    1    3    3    0  502  0.58991796380E+02 -0.83306746992E+01  0.21037579596E+03  0.21868900317E+03  0.41800000000E+01 0.  1.
        -11    1    1    2    0    0 -0.32078105134E+02 -0.30460903731E+02  0.10713614521E+03  0.11590955567E+03  0.00000000000E+00 0.  1.
         11    1    1    2    0    0  0.22589243001E+02  0.39960674068E+02  0.10193532390E+03  0.11179418424E+03  0.00000000000E+00 0. -1.
</event>
<event>
 7    1  0.2732144E-009  0.2252775E+03  0.7561462E-02  0.1130008E+00
         -1   -1    0    0    0  501 -0.00000000000E+00  0.00000000000E+00  0.64807625471E+02  0.64807625471E+02  0.00000000000E+00 0.  1.
          1   -1    0    0  501    0  0.00000000000E+00 -0.00000000000E+00 -0.91741338968E+03  0.91741338968E+03  0.00000000000E+00 0. -1.
         25    2    1    2    0    0 -0.16463839783E+03  0.13512961651E+03 -0.35018069967E+03  0.42852939791E+03  0.12508040274E+03 0.  0.
          5    1    3    3  502    0 -0.60603605094E+02  0.10123449339E+03 -0.97405436409E+02  0.15305721494E+03  0.41800000000E+01 0. -1.
         -5    1    3    3    0  502 -0.10403479274E+03  0.33895123111E+02 -0.25277526326E+03  0.27547218297E+03  0.41800000000E+01 0. -1.
        -11    1    1    2    0    0  0.11132472661E+03 -0.48844762393E+02 -0.35082244111E+03  0.37128882390E+03  0.00000000000E+00 0. -1.
         11    1    1    2    0    0  0.53313671223E+02 -0.86284854113E+02 -0.15160262342E+03  0.18240279334E+03  0.00000000000E+00 0.  1.
</event>
<event>
 7    1  0.2732144E-009  0.8828803E+02  0.7561462E-02  0.1307051E+00
          1   -1    0    0  501    0  0.00000000000E+00  0.00000000000E+00  0.10750263937E+03  0.10750263937E+03  0.00000000000E+00 0. -1.
         -1   -1    0    0    0  501 -0.00000000000E+00 -0.00000000000E+00 -0.12732642326E+03  0.12732642326E+03  0.00000000000E+00 0.  1.
         25    2    1    2    0    0  0.29229410666E+02 -0.11608781793E+02  0.19011223594E+02  0.13038019326E+03  0.12509374848E+03 0.  0.
          5    1    3    3  502    0  0.50761659481E+02 -0.56900448555E+02  0.23385196227E+02  0.79867057800E+02  0.41800000000E+01 0.  1.
         -5    1    3    3    0  502 -0.21532248815E+02  0.45291666762E+02 -0.43739726326E+01  0.50513135457E+02  0.41800000000E+01 0.  1.
        -11    1    1    2    0    0 -0.79666760918E+01  0.23991962917E+02  0.25294040965E+02  0.35761302002E+02  0.00000000000E+00 0. -1.
         11    1    1    2    0    0 -0.21262734574E+02 -0.12383181124E+02 -0.64129048451E+02  0.68687567372E+02  0.00000000000E+00 0.  1.
</event>
<event>
 7    1  0.2732144E-009  0.1249348E+03  0.7561462E-02  0.1235171E+00
         -2   -1    0    0    0  501 -0.00000000000E+00  0.00000000000E+00  0.14443597114E+02  0.14443597114E+02  0.00000000000E+00 0.  1.
          2   -1    0    0  501    0  0.00000000000E+00 -0.00000000000E+00 -0.17029459002E+04  0.17029459002E+04  0.00000000000E+00 0. -1.
         25    2    1    2    0    0  0.42131621098E+02 -0.97653170086E+02 -0.11144069313E+04  0.11264366962E+04  0.12508240024E+03 0.  0.
          5    1    3    3  502    0  0.16657819859E+02 -0.76369587954E+02 -0.10577221917E+04  0.10606146822E+04  0.41800000000E+01 0. -1.
         -5    1    3    3    0  502  0.25473801239E+02 -0.21283582132E+02 -0.56684739572E+02  0.65822013934E+02  0.41800000000E+01 0. -1.
        -11    1    1    2    0    0  0.30663815954E+01 -0.15755998344E+02 -0.40400272664E+02  0.43472246448E+02  0.00000000000E+00 0.  1.
         11    1    1    2    0    0 -0.45198002694E+02  0.11340916843E+03 -0.53369509919E+03  0.54748055475E+03  0.00000000000E+00 0. -1.
</event>
<event>
 7    1  0.2732144E-009  0.1169939E+03  0.7561462E-02  0.1248140E+00
          1   -1    0    0  501    0  0.00000000000E+00  0.00000000000E+00  0.30506188864E+03  0.30506188864E+03  0.00000000000E+00 0. -1.
         -1   -1    0    0    0  501 -0.00000000000E+00 -0.00000000000E+00 -0.58838114689E+02  0.58838114689E+02  0.00000000000E+00 0.  1.
         25    2    1    2    0    0 -0.75593235535E+02  0.14816890698E+02  0.16424641563E+03  0.22036299741E+03  0.12509631518E+03 0.  0.
          5    1    3    3  502    0 -0.10099784153E+03  0.27911992181E+02  0.81783339628E+02  0.13298733151E+03  0.41800000000E+01 0. -1.
         -5    1    3    3    0  502  0.25404605992E+02 -0.13095101483E+02  0.82463076006E+02  0.87375665908E+02  0.41800000000E+01 0. -1.
        -11    1    1    2    0    0 -0.28345100681E+01 -0.21348926532E+02  0.57057365617E+02  0.60986507381E+02  0.00000000000E+00 0. -1.
         11    1    1    2    0    0  0.78427745603E+02  0.65320358343E+01  0.24919992703E+02  0.82550498537E+02  0.00000000000E+00 0.  1.
</event>
<event>
 7    1  0.2732144E-009  0.1347523E+03  0.7561462E-02  0.1220570E+00
         -1   -1    0    0    0  501 -0.00000000000E+00  0.00000000000E+00  0.18605212943E+03  0.18605212943E+03  0.00000000000E+00 0.  1.
          1   -1    0    0  501    0  0.00000000000E+00 -0.00000000000E+00 -0.13166260544E+03  0.13166260544E+03  0.00000000000E+00 0. -1.
         25    2    1    2    0    0  0.25498165134E+00 -0.81762288309E+02  0.10737729438E+03  0.18401883013E+03  0.12509160520E+03 0.  0.
          5    1    3    3  502    0  0.20165471455E+02 -0.11005721009E+03  0.95614931842E+02  0.14723764234E+03  0.41800000000E+01 0. -1.
         -5    1    3    3    0  502 -0.19910489803E+02  0.28294921782E+02  0.11762362534E+02  0.36781187790E+02  0.41800000000E+01 0. -1.
        -11    1    1    2    0    0 -0.43643034481E+02  0.59871433120E+02 -0.29953010064E+02  0.79915491455E+02  0.00000000000E+00 0.  1.
         11    1    1    2    0    0  0.43388052829E+02  0.21890855189E+02 -0.23034760329E+02  0.53780413280E+02  0.00000000000E+00 0. -1.
</event>
<event>
 7    1  0.2732144E-009  0.1198565E+03  0.7561462E-02  0.1243334E+00
          2   -1    0    0  501    0  0.00000000000E+00  0.00000000000E+00  0.94437768994E+03  0.94437768994E+03  0.00000000000E+00 0. -1.
         -2   -1    0    0    0  501 -0.00000000000E+00 -0.00000000000E+00 -0.28809390584E+02  0.28809390584E+02  0.00000000000E+00 0.  1.
         25    2    1    2    0    0 -0.23935714059E+02 -0.79690652604E+02  0.76850360045E+03  0.78305103388E+03  0.12509044418E+03 0.  0.
          5    1    3    3  502    0  0.57889039888E+01 -0.89512804170E+02  0.29184878833E+03  0.30535101305E+03  0.41800000000E+01 0.  1.
         -5    1    3    3    0  502 -0.29724618048E+02  0.98221515657E+01  0.47665481212E+03  0.47770002083E+03  0.41800000000E+01 0.  1.
        -11    1    1    2    0    0 -0.25861435922E+02  0.58979471337E+02  0.61864770769E+02  0.89300849769E+02  0.00000000000E+00 0.  1.
         11    1    1    2    0    0  0.49797149982E+02  0.20711181266E+02  0.85199928134E+02  0.10083519688E+03  0.00000000000E+00 0. -1.
</event>
<event>
 7    1  0.2732144E-009  0.2819035E+03  0.7561462E-02  0.1094654E+00
         -2   -1    0    0    0  501 -0.00000000000E+00  0.00000000000E+00  0.19629156758E+03  0.19629156758E+03  0.00000000000E+00 0.  1.
          2   -1    0    0  501    0  0.00000000000E+00 -0.00000000000E+00 -0.45664132198E+03  0.45664132198E+03  0.00000000000E+00 0. -1.
         25    2    1    2    0    0 -0.27868955575E+03  0.36388403099E+01 -0.12746970956E+03  0.33102430451E+03  0.12508978248E+03 0.  0.
          5    1    3    3  502    0 -0.21259173239E+03 -0.14082933296E+02 -0.35066987524E+02  0.21596467236E+03  0.41800000000E+01 0.  1.
         -5    1    3    3    0  502 -0.66097823358E+02  0.17721773606E+02 -0.92402722035E+02  0.11505963216E+03  0.41800000000E+01 0.  1.
        -11    1    1    2    0    0  0.23417933123E+02  0.12162939624E+02 -0.43694383771E+02  0.51044449896E+02  0.00000000000E+00 0.  1.
         11    1    1    2    0    0  0.25527162263E+03 -0.15801779934E+02 -0.89185661072E+02  0.27086413515E+03  0.00000000000E+00 0. -1.
</event>
<event>
 7    1  0.2732144E-009  0.2458031E+03  0.7561462E-02  0.1115986E+00
         -1   -1    0    0    0  501 -0.00000000000E+00  0.00000000000E+00  0.21280470317E+03  0.21280470317E+03  0.00000000000E+00 0.  1.
          1   -1    0    0  501    0  0.00000000000E+00 -0.00000000000E+00 -0.51693855340E+03  0.51693855340E+03  0.00000000000E+00 0. -1.
         25    2    1    2    0    0  0.18412492259E+03  0.14493695960E+03  0.74182258849E+02  0.27578813463E+03  0.12508948116E+03 0.  0.
          5    1    3    3  502    0  0.89032413692E+02  0.78924076055E+01  0.61241690887E+02  0.10843005989E+03  0.41800000000E+01 0.  1.
         -5    1    3    3    0  502  0.95092508895E+02  0.13704455200E+03  0.12940567962E+02  0.16735807474E+03  0.41800000000E+01 0.  1.
        -11    1    1    2    0    0 -0.36457432563E+02 -0.39952560564E+02 -0.16730765675E+03  0.17583288513E+03  0.00000000000E+00 0. -1.
         11    1    1    2    0    0 -0.14766749002E+03 -0.10498439904E+03 -0.21100845234E+03  0.27812223681E+03  0.00000000000E+00 0.  1.
</event>
<event>
 7    1  0.2732144E-009  0.1555839E+03  0.7561462E-02  0.1193775E+00
          2   -1    0    0  501    0  0.00000000000E+00  0.00000000000E+00  0.87154071940E+03  0.87154071940E+03  0.00000000000E+00 0. -1.
         -2   -1    0    0    0  501 -0.00000000000E+00 -0.00000000000E+00 -0.35088729034E+02  0.35088729034E+02  0.00000000000E+00 0.  1.
         25    2    1    2    0    0  0.10705531967E+03 -0.77386409288E+02  0.51003750149E+03  0.54151248121E+03  0.12509203238E+03 0.  0.
          5    1    3    3  502    0  0.17105608521E+02  0.11750659939E+02  0.63037085880E+01  0.22088209385E+02  0.41800000000E+01 0.  1.
         -5    1    3    3    0  502  0.89949711152E+02 -0.89137069227E+02  0.50373379290E+03  0.51942427182E+03  0.41800000000E+01 0.  1.
        -11    1    1    2    0    0  0.14342090634E+02  0.29485315218E+02  0.74802087181E+02  0.81672710399E+02  0.00000000000E+00 0. -1.
         11    1    1    2    0    0 -0.12139741031E+03  0.47901094070E+02  0.25161240170E+03  0.28344425683E+03  0.00000000000E+00 0.  1.
</event>
<event>
 7    1  0.2732144E-009  0.1095612E+03  0.7561462E-02  0.1261385E+00
          4   -1    0    0  501    0  0.00000000000E+00  0.00000000000E+00  0.44718838558E+03  0.44718838558E+03  0.00000000000E+00 0. -1.
         -4   -1    0    0    0  501 -0.00000000000E+00 -0.00000000000E+00 -0.33521669766E+02  0.33521669766E+02  0.00000000000E+00 0.  1.
         25    2    1    2    0    0  0.26724456873E+01 -0.32007984785E+02  0.31836938769E+03  0.34356558363E+03  0.12508633092E+03 0.  0.
          5    1    3    3  502    0 -0.31150867772E+01  0.48193248838E+02  0.12779245450E+03  0.13667727253E+03  0.41800000000E+01 0. -1.
         -5    1    3    3    0  502  0.57875324644E+01 -0.80201233623E+02  0.19057693319E+03  0.20688831110E+03  0.41800000000E+01 0. -1.
        -11    1    1    2    0    0  0.34793939847E+02  0.38731493022E+02  0.26268807459E+02  0.58316353170E+02  0.00000000000E+00 0.  1.
         11    1    1    2    0    0 -0.37466385534E+02 -0.67235082369E+01  0.69028520667E+02  0.78828118546E+02  0.00000000000E+00 0. -1.
</event>
<event>
 7    1  0.2732144E-009  0.1023650E+03  0.7561462E-02  0.1275400E+00
         -2   -1    0    0    0  501 -0.00000000000E+00  0.00000000000E+00  0.64681601316E+02  0.64681601316E+02  0.00000000000E+00 0.  1.
          2   -1    0    0  501    0  0.00000000000E+00 -0.00000000000E+00 -0.37571362856E+03  0.37571362856E+03  0.00000000000E+00 0. -1.
         25    2    1    2    0    0  0.79376110214E+02 -0.19209116241E+02 -0.27435447532E+03  0.31238953848E+03  0.12508912264E+03 0.  0.
          5    1    3    3  502    0  0.37109374202E+02 -0.28581617193E+02 -0.14923211707E+02  0.49337502397E+02  0.41800000000E+01 0.  1.
         -5    1    3    3    0  502  0.42266736011E+02  0.93725009521E+01 -0.25943126361E+03  0.26305203608E+03  0.41800000000E+01 0.  1.
        -11    1    1    2    0    0 -0.38570482943E+02 -0.31017700199E+02  0.69195525258E+01  0.49976595395E+02  0.00000000000E+00 0.  1.
         11    1    1    2    0    0 -0.40805627270E+02  0.50226816440E+02 -0.43597104449E+02  0.78029096002E+02  0.00000000000E+00 0. -1.
</event>
<event>
 7    1  0.2732144E-009  0.9164272E+02  0.7561462E-02  0.1298922E+00
          3   -1    0    0  501    0  0.00000000000E+00  0.00000000000E+00  0.12784656442E+03  0.12784656442E+03  0.00000000000E+00 0. -1.
         -3   -1    0    0    0  501 -0.00000000000E+00 -0.00000000000E+00 -0.12825608077E+03  0.12825608077E+03  0.00000000000E+00 0.  1.
         25    2    1    2    0    0 -0.27028526533E+02 -0.17987376744E+02  0.58742313159E+02  0.14195661411E+03  0.12508770510E+03 0.  0.
          5    1    3    3  502    0  0.19407761844E+02 -0.34448546368E+02 -0.23360743964E+02  0.46114643284E+02  0.41800000000E+01 0.  1.
         -5    1    3    3    0  502 -0.46436288377E+02  0.16461169624E+02  0.82103057123E+02  0.95841970830E+02  0.41800000000E+01 0.  1.
        -11    1    1    2    0    0  0.54630808799E+02 -0.91282172768E+01 -0.49461207947E+02  0.74258068332E+02  0.00000000000E+00 0.  1.
         11    1    1    2    0    0 -0.27602282266E+02  0.27115594020E+02 -0.96906215569E+01  0.39887962740E+02  0.00000000000E+00 0. -1.
</event>
<event>
 7    1  0.2732144E-009  0.1359062E+03  0.7561462E-02  0.1218946E+00
          1   -1    0    0  501    0  0.00000000000E+00  0.00000000000E+00  0.42112544179E+02  0.42112544179E+02  0.00000000000E+00 0. -1.
         -1   -1    0    0    0  501 -0.00000000000E+00 -0.00000000000E+00 -0.53041429646E+03  0.53041429646E+03  0.00000000000E+00 0.  1.
         25    2    1    2    0    0  0.67495132444E+02 -0.76726680374E+02 -0.28337270249E+03  0.32617614654E+03  0.12509282021E+03 0.  0.
          5    1    3    3  502    0  0.79415565119E+02 -0.81321463191E+01 -0.88808800598E+02  0.11948823896E+03  0.41800000000E+01 0.  1.
         -5    1    3    3    0  502 -0.11920432675E+02 -0.68594534054E+02 -0.19456390189E+03  0.20668790757E+03  0.41800000000E+01 0.  1.
        -11    1    1    2    0    0  0.19734121400E+01  0.46203724643E+02 -0.28565447789E+02  0.54356814971E+02  0.00000000000E+00 0. -1.
         11    1    1    2    0    0 -0.69468544584E+02  0.30522955730E+02 -0.17636360200E+03  0.19199387913E+03  0.00000000000E+00 0.  1.
</event>
<event>
 7    1  0.2732144E-009  0.9414068E+02  0.7561462E-02  0.1293123E+00
          2   -1    0    0  501    0  0.00000000000E+00  0.00000000000E+00  0.97118794924E+02  0.97118794924E+02  0.00000000000E+00 0. -1.
         -2   -1    0    0    0  501 -0.00000000000E+00 -0.00000000000E+00 -0.11095812243E+03  0.11095812243E+03  0.00000000000E+00 0.  1.
         25    2    1    2    0    0 -0.88301452664E+00 -0.16439423892E+02  0.16210930651E+02  0.12720588463E+03  0.12509000136E+03 0.  0.
          5    1    3    3  502    0 -0.77766115278E+01  0.47832079868E+02 -0.20463152144E+02  0.52769276544E+02  0.41800000000E+01 0.  1.
         -5    1    3    3    0  502  0.68935970011E+01 -0.64271503760E+02  0.36674082794E+02  0.74436608090E+02  0.41800000000E+01 0.  1.
        -11    1    1    2    0    0  0.10747326793E+02  0.44156747670E+02 -0.21207098807E+02  0.50150418122E+02  0.00000000000E+00 0.  1.
         11    1    1    2    0    0 -0.98643122667E+01 -0.27717323778E+02 -0.88431593478E+01  0.30720614596E+02  0.00000000000E+00 0. -1.
</event>
<event>
 7    1  0.2732144E-009  0.3000868E+03  0.7561462E-02  0.1085197E+00
         -2   -1    0    0    0  501 -0.00000000000E+00  0.00000000000E+00  0.74212292018E+02  0.74212292018E+02  0.00000000000E+00 0. -1.
          2   -1    0    0  501    0  0.00000000000E+00 -0.00000000000E+00 -0.13226061624E+04  0.13226061624E+04  0.00000000000E+00 0.  1.
         25    2    1    2    0    0  0.18500313974E+02 -0.29184599323E+03 -0.60478419585E+03  0.68332217010E+03  0.12509564029E+03 0.  0.
          5    1    3    3  502    0 -0.76641562144E+01 -0.35340856949E+02 -0.14527353307E+02  0.39194793716E+02  0.41800000000E+01 0. -1.
         -5    1    3    3    0  502  0.26164470188E+02 -0.25650513628E+03 -0.59025684254E+03  0.64412737639E+03  0.41800000000E+01 0. -1.
        -11    1    1    2    0    0  0.34337117610E+02  0.71635468655E+02 -0.13295719232E+03  0.15488154508E+03  0.00000000000E+00 0.  1.
         11    1    1    2    0    0 -0.52837431584E+02  0.22021052458E+03 -0.51065248223E+03  0.55861473926E+03  0.00000000000E+00 0. -1.
</event>
<event>
 7    1  0.2732144E-009  0.2418438E+03  0.7561462E-02  0.1118571E+00
          1   -1    0    0  501    0  0.00000000000E+00  0.00000000000E+00  0.27140866222E+03  0.27140866222E+03  0.00000000000E+00 0. -1.
         -1   -1    0    0    0  501 -0.00000000000E+00 -0.00000000000E+00 -0.25184420022E+03  0.25184420022E+03  0.00000000000E+00 0.  1.
         25    2    1    2    0    0  0.22990312612E+03 -0.73188226203E+01 -0.54101959695E+02  0.26736445389E+03  0.12509083339E+03 0.  0.
          5    1    3    3  502    0  0.16203904102E+03 -0.42091650491E+02 -0.81477527439E+02  0.18623753041E+03  0.41800000000E+01 0. -1.
         -5    1    3    3    0  502  0.67864085099E+02  0.34772827870E+02  0.27375567744E+02  0.81126923482E+02  0.41800000000E+01 0. -1.
        -11    1    1    2    0    0 -0.12452413753E+03 -0.29949500193E+02  0.13058862060E+02  0.12873914427E+03  0.00000000000E+00 0.  1.
         11    1    1    2    0    0 -0.10537898859E+03  0.37268322813E+02  0.60607559633E+02  0.12714926427E+03  0.00000000000E+00 0. -1.
</event>
<event>
 7    1  0.2732144E-009  0.7905773E+02  0.7561462E-02  0.1331747E+00
          2   -1    0    0  501    0  0.00000000000E+00  0.00000000000E+00  0.25225279539E+02  0.25225279539E+02  0.00000000000E+00 0.  1.
         -2   -1    0    0    0  501 -0.00000000000E+00 -0.00000000000E+00 -0.50562024551E+03  0.50562024551E+03  0.00000000000E+00 0. -1.
         25    2    1    2    0    0 -0.15704222729E+02 -0.13343232771E+02 -0.33939841026E+03  0.36230288675E+03  0.12508971336E+03 0.  0.
          5    1    3    3  502    0 -0.12205033030E+02 -0.57574617781E+02 -0.81691503864E+02  0.10077089683E+03  0.41800000000E+01 0. -1.
         -5    1    3    3    0  502 -0.34991896987E+01  0.44231385010E+02 -0.25770690639E+03  0.26153198992E+03  0.41800000000E+01 0. -1.
        -11    1    1    2    0    0 -0.10773925403E+02  0.23763924093E+02 -0.14585771005E+01  0.26132910363E+02  0.00000000000E+00 0.  1.
         11    1    1    2    0    0  0.26478148133E+02 -0.10420691322E+02 -0.13953797862E+03  0.14240972794E+03  0.00000000000E+00 0. -1.
</event>
<event>
 7    1  0.2732144E-009  0.2730446E+03  0.7561462E-02  0.1099550E+00
         -2   -1    0    0    0  501 -0.00000000000E+00  0.00000000000E+00  0.98047336970E+02  0.98047336970E+02  0.00000000000E+00 0.  1.
          2   -1    0    0  501    0  0.00000000000E+00 -0.00000000000E+00 -0.77664588035E+03  0.77664588035E+03  0.00000000000E+00 0. -1.
         25    2    1    2    0    0 -0.10896630266E+03  0.22833996722E+03 -0.31384753924E+03  0.42208955353E+03  0.12508604067E+03 0.  0.
          5    1    3    3  502    0 -0.12800400680E+03  0.14301062626E+03 -0.24167298150E+03  0.30864278279E+03  0.41800000000E+01 0.  1.
         -5    1    3    3    0  502  0.19037704144E+02  0.85329340954E+02 -0.72174557746E+02  0.11344677075E+03  0.41800000000E+01 0.  1.
        -11    1    1    2    0    0  0.44311737572E+02 -0.20316093204E+02 -0.85687458680E+02  0.98583032540E+02  0.00000000000E+00 0.  1.
         11    1    1    2    0    0  0.64654565084E+02 -0.20802387401E+03 -0.27906354545E+03  0.35402063124E+03  0.00000000000E+00 0. -1.
</event>
<event>
 7    1  0.2732144E-009  0.6662680E+02  0.7561462E-02  0.1371955E+00
          1   -1    0    0  501    0  0.00000000000E+00  0.00000000000E+00  0.16369663390E+02  0.16369663390E+02  0.00000000000E+00 0. -1.
         -1   -1    0    0    0  501 -0.00000000000E+00 -0.00000000000E+00 -0.76110360238E+03  0.76110360238E+03  0.00000000000E+00 0.  1.
         25    2    1    2    0    0 -0.17732201908E+02 -0.12519422197E+02 -0.49994502197E+03  0.51581477578E+03  0.12509472810E+03 0.  0.
          5    1    3    3  502    0 -0.21882653257E+02 -0.25062793733E+02 -0.50080882221E+03  0.50193021721E+03  0.41800000000E+01 0.  1.
         -5    1    3    3    0  502  0.41504513489E+01  0.12543371536E+02  0.86380023522E+00  0.13884558572E+02  0.41800000000E+01 0.  1.
        -11    1    1    2    0    0 -0.27477347862E+02  0.26868596109E+02 -0.15953002002E+03  0.16409373355E+03  0.00000000000E+00 0.  1.
         11    1    1    2    0    0  0.45209549770E+02 -0.14349173911E+02 -0.85258896990E+02  0.97564756435E+02  0.00000000000E+00 0. -1.
</event>
<event>
 7    1  0.2732144E-009  0.1406990E+03  0.7561462E-02  0.1212392E+00
         -1   -1    0    0    0  501 -0.00000000000E+00  0.00000000000E+00  0.34706310961E+02  0.34706310961E+02  0.00000000000E+00 0.  1.
          1   -1    0    0  501    0  0.00000000000E+00 -0.00000000000E+00 -0.62662151684E+03  0.62662151684E+03  0.00000000000E+00 0. -1.
         25    2    1    2    0    0 -0.74165939983E+02  0.65247110129E+02 -0.29971345028E+03  0.33946071388E+03  0.12509057503E+03 0.  0.
          5    1    3    3  502    0  0.30432868331E+02  0.26689029420E+01 -0.10737143613E+03  0.11171114633E+03  0.41800000000E+01 0.  1.
         -5    1    3    3    0  502 -0.10459880831E+03  0.62578207187E+02 -0.19234201415E+03  0.22774956755E+03  0.41800000000E+01 0.  1.
        -11    1    1    2    0    0  0.67468709484E+02 -0.46412232433E+01 -0.10418106408E+03  0.12420652892E+03  0.00000000000E+00 0.  1.
         11    1    1    2    0    0  0.66972304985E+01 -0.60605886886E+02 -0.18802069153E+03  0.19766058500E+03  0.00000000000E+00 0. -1.
</event>
<event>
 7    1  0.2732144E-009  0.7427588E+02  0.7561462E-02  0.1346128E+00
          2   -1    0    0  501    0  0.00000000000E+00  0.00000000000E+00  0.99129438378E+02  0.99129438378E+02  0.00000000000E+00 0. -1.
         -2   -1    0    0    0  501 -0.00000000000E+00 -0.00000000000E+00 -0.14423291196E+03  0.14423291196E+03  0.00000000000E+00 0.  1.
         25    2    1    2    0    0  0.23548923904E+02 -0.19752922392E+02 -0.62940439706E+02  0.14336377505E+03  0.12508774235E+03 0.  0.
          5    1    3    3  502    0 -0.22611388679E+02  0.29861379426E+00 -0.85145972549E+02  0.88196786277E+02  0.41800000000E+01 0. -1.
         -5    1    3    3    0  502  0.46160312583E+02 -0.20051536186E+02  0.22205532843E+02  0.55166988770E+02  0.41800000000E+01 0. -1.
        -11    1    1    2    0    0  0.10784176843E+02  0.35631408037E+02 -0.23454186102E+02  0.43999938120E+02  0.00000000000E+00 0.  1.
         11    1    1    2    0    0 -0.34333100747E+02 -0.15878485645E+02  0.41291152224E+02  0.55998637173E+02  0.00000000000E+00 0. -1.
</event>
<event>
 7    1  0.2732144E-009  0.2565758E+03  0.7561462E-02  0.1109218E+00
         -1   -1    0    0    0  501 -0.00000000000E+00  0.00000000000E+00  0.43200670934E+02  0.43200670934E+02  0.00000000000E+00 0.  1.
          1   -1    0    0  501    0  0.00000000000E+00 -0.00000000000E+00 -0.28844753315E+04  0.28844753315E+04  0.00000000000E+00 0. -1.
         25    2    1    2    0    0 -0.24925094217E+03  0.15604380820E+02 -0.23652331890E+04  0.23816686586E+04  0.12509209336E+03 0.  0.
          5    1    3    3  502    0 -0.26823667960E+02  0.16402806135E+01 -0.62359211728E+02  0.68031929053E+02  0.41800000000E+01 0. -1.
         -5    1    3    3    0  502 -0.22242727421E+03  0.13964100207E+02 -0.23028739773E+04  0.23136367295E+04  0.41800000000E+01 0. -1.
        -11    1    1    2    0    0  0.74778931501E+02  0.33293694507E+02 -0.10545526233E+03  0.13349595890E+03  0.00000000000E+00 0.  1.
         11    1    1    2    0    0  0.17447201066E+03 -0.48898075327E+02 -0.37058620922E+03  0.41251138498E+03  0.00000000000E+00 0. -1.
</event>
<event>
 7    1  0.2732144E-009  0.2197375E+03  0.7561462E-02  0.1134079E+00
          1   -1    0    0  501    0  0.00000000000E+00  0.00000000000E+00  0.59165266565E+03  0.59165266565E+03  0.00000000000E+00 0. -1.
         -1   -1    0    0    0  501 -0.00000000000E+00 -0.00000000000E+00 -0.99554943329E+02  0.99554943329E+02  0.00000000000E+00 0.  1.
         25    2    1    2    0    0  0.21756221453E+03  0.22869279737E+02  0.25235623192E+03  0.35663327501E+03  0.12508918380E+03 0.  0.
          5    1    3    3  502    0  0.99620299391E+02  0.36228508173E+00  0.20411519954E+03  0.22716694826E+03  0.41800000000E+01 0.  1.
         -5    1    3    3    0  502  0.11794191514E+03  0.22506994656E+02  0.48241032389E+02  0.12946632675E+03  0.41800000000E+01 0.  1.
        -11    1    1    2    0    0 -0.53262957922E+02  0.27736962233E+01  0.11478053272E+03  0.12656700506E+03  0.00000000000E+00 0. -1.
         11    1    1    2    0    0 -0.16429925661E+03 -0.25642975961E+02  0.12496095767E+03  0.20800732891E+03  0.00000000000E+00 0.  1.
</event>
<event>
 7    1  0.2732144E-009  0.9174962E+02  0.7561462E-02  0.1298669E+00
          2   -1    0    0  501    0  0.00000000000E+00  0.00000000000E+00  0.57597944413E+03  0.57597944413E+03  0.00000000000E+00 0. -1.
         -2   -1    0    0    0  501 -0.00000000000E+00 -0.00000000000E+00 -0.24637836618E+02  0.24637836618E+02  0.00000000000E+00 0.  1.
         25    2    1    2    0    0  0.14684150170E+02 -0.36286024933E+02  0.43030350245E+03  0.44982296157E+03  0.12508913888E+03 0.  0.
          5    1    3    3  502    0  0.42752043748E+02  0.88324538538E+01  0.35423509642E+03  0.35693938621E+03  0.41800000000E+01 0.  1.
         -5    1    3    3    0  502 -0.28067893579E+02 -0.45118478786E+02  0.76068406023E+02  0.92883575367E+02  0.41800000000E+01 0.  1.
        -11    1    1    2    0    0  0.18317825132E+02  0.47959263559E+02  0.91818274091E+02  0.10519614601E+03  0.00000000000E+00 0. -1.
         11    1    1    2    0    0 -0.33001975302E+02 -0.11673238626E+02  0.29219830971E+02  0.45598173163E+02  0.00000000000E+00 0.  1.
</event>
<event>
 7    1  0.2732144E-009  0.1837705E+03  0.7561462E-02  0.1164203E+00
          2   -1    0    0  501    0  0.00000000000E+00  0.00000000000E+00  0.10733503802E+04  0.10733503802E+04  0.00000000000E+00 0. -1.
         -2   -1    0    0    0  501 -0.00000000000E+00 -0.00000000000E+00 -0.34524556494E+02  0.34524556494E+02  0.00000000000E+00 0.  1.
         25    2    1    2    0    0 -0.20456296891E+02  0.12658025348E+03  0.65964038782E+03  0.68353041761E+03  0.12508944762E+03 0.  0.
          5    1    3    3  502    0  0.10290455090E+02 -0.23096720512E+02  0.76018497017E+02  0.80222417398E+02  0.41800000000E+01 0.  1.
         -5    1    3    3    0  502 -0.30746751981E+02  0.14967697399E+03  0.58362189080E+03  0.60330800021E+03  0.41800000000E+01 0.  1.
        -11    1    1    2    0    0 -0.14656945115E+01 -0.15396633201E+03  0.28670375635E+03  0.32543328588E+03  0.00000000000E+00 0.  1.
         11    1    1    2    0    0  0.21921991403E+02  0.27386078528E+02  0.92481679552E+02  0.98911233219E+02  0.00000000000E+00 0. -1.
</event>
<event>
 7    1  0.2732144E-009  0.1329717E+03  0.7561462E-02  0.1223112E+00
          1   -1    0    0  501    0  0.00000000000E+00  0.00000000000E+00  0.49039212267E+02  0.49039212267E+02  0.00000000000E+00 0. -1.
         -1   -1    0    0    0  501 -0.00000000000E+00 -0.00000000000E+00 -0.47294550775E+03  0.47294550775E+03  0.00000000000E+00 0.  1.
         25    2    1    2    0    0  0.78045356527E+02 -0.71334866791E+02 -0.20458810481E+03  0.26207342041E+03  0.12508574724E+03 0.  0.
          5    1    3    3  502    0  0.58274333134E+02 -0.44555398400E+01 -0.15673739460E+02  0.60653839501E+02  0.41800000000E+01 0. -1.
         -5    1    3    3    0  502  0.19771023392E+02 -0.66879326951E+02 -0.18891436535E+03  0.20141958091E+03  0.41800000000E+01 0. -1.
        -11    1    1    2    0    0 -0.60221634436E+02  0.92148375255E+02 -0.15611208485E+03  0.19102081392E+03  0.00000000000E+00 0.  1.
         11    1    1    2    0    0 -0.17823722090E+02 -0.20813508463E+02 -0.63206105820E+02  0.68890485676E+02  0.00000000000E+00 0. -1.
</event>
<event>
 7    1  0.2732144E-009  0.2884982E+03  0.7561462E-02  0.1091136E+00
          2   -1    0    0  501    0  0.00000000000E+00  0.00000000000E+00  0.13067788231E+03  0.13067788231E+03  0.00000000000E+00 0. -1.
         -2   -1    0    0    0  501 -0.00000000000E+00 -0.00000000000E+00 -0.68846834857E+03  0.68846834857E+03  0.00000000000E+00 0.  1.
         25    2    1    2    0    0 -0.11275711134E+03 -0.24901221913E+03 -0.20596449038E+03  0.36439302846E+03  0.12505861209E+03 0.  0.
          5    1    3    3  502    0 -0.14045651152E+02 -0.14444098083E+03 -0.53386459648E+02  0.15468698631E+03  0.41800000000E+01 0. -1.
         -5    1    3    3    0  502 -0.98711460187E+02 -0.10457123830E+03 -0.15257803074E+03  0.20970604215E+03  0.41800000000E+01 0. -1.
        -11    1    1    2    0    0  0.19264382454E+02  0.15201731583E+03 -0.17920969800E+03  0.23578909347E+03  0.00000000000E+00 0. -1.
         11    1    1    2    0    0  0.93492728885E+02  0.96994903297E+02 -0.17261627788E+03  0.21896410895E+03  0.00000000000E+00 0.  1.
</event>
<event>
 7    1  0.2732144E-009  0.9015425E+02  0.7561462E-02  0.1302479E+00
          1   -1    0    0  501    0  0.00000000000E+00  0.00000000000E+00  0.46654286836E+02  0.46654286836E+02  0.00000000000E+00 0. -1.
         -1   -1    0    0    0  501 -0.00000000000E+00 -0.00000000000E+00 -0.31679199366E+03  0.31679199366E+03  0.00000000000E+00 0.  1.
         25    2    1    2    0    0  0.38975063651E+02 -0.36463515934E+02 -0.16519615283E+03  0.21397576227E+03  0.12508882584E+03 0.  0.
          5    1    3    3  502    0  0.53593972888E+01 -0.57035392339E+02 -0.16460564024E+03  0.17433946288E+03  0.41800000000E+01 0. -1.
         -5    1    3    3    0  502  0.33615666363E+02  0.20571876406E+02 -0.59051258189E+00  0.39636299385E+02  0.41800000000E+01 0. -1.
        -11    1    1    2    0    0 -0.11994493183E+02  0.51137151105E+02 -0.10646852486E+03  0.11871993462E+03  0.00000000000E+00 0.  1.
         11    1    1    2    0    0 -0.26980570469E+02 -0.14673635171E+02  0.15269708662E+01  0.30750583604E+02  0.00000000000E+00 0. -1.
</event>
<event>
 7    1  0.2732144E-009  0.1055373E+03  0.7561462E-02  0.1269065E+00
         -1   -1    0    0    0  501 -0.00000000000E+00  0.00000000000E+00  0.62081870524E+02  0.62081870524E+02  0.00000000000E+00 0.  1.
          1   -1    0    0  501    0  0.00000000000E+00 -0.00000000000E+00 -0.21415358212E+03  0.21415358212E+03  0.00000000000E+00 0. -1.
         25    2    1    2    0    0  0.11843354646E+02  0.16616460982E+01 -0.13521781392E+03  0.18459611333E+03  0.12509533060E+03 0.  0.
          5    1    3    3  502    0 -0.11852982773E+01  0.62395394023E+02 -0.78563962785E+02  0.10042090806E+03  0.41800000000E+01 0.  1.
         -5    1    3    3    0  502  0.13028652924E+02 -0.60733747924E+02 -0.56653851135E+02  0.84175205271E+02  0.41800000000E+01 0.  1.
        -11    1    1    2    0    0 -0.16994621536E+02  0.40435097661E+02 -0.21730315975E+02  0.48949166657E+02  0.00000000000E+00 0.  1.
         11    1    1    2    0    0  0.51512668892E+01 -0.42096743760E+02  0.48764183009E+01  0.42690172653E+02  0.00000000000E+00 0. -1.
</event>
<event>
 7    1  0.2732144E-009  0.1161420E+03  0.7561462E-02  0.1249601E+00
         -2   -1    0    0    0  501 -0.00000000000E+00  0.00000000000E+00  0.49093632431E+02  0.49093632431E+02  0.00000000000E+00 0.  1.
          2   -1    0    0  501    0  0.00000000000E+00 -0.00000000000E+00 -0.38133337698E+03  0.38133337698E+03  0.00000000000E+00 0. -1.
         25    2    1    2    0    0 -0.27486902113E+02  0.38764887001E+02 -0.73590566940E+02  0.15271293402E+03  0.12508965753E+03 0.  0.
          5    1    3    3  502    0 -0.72068929153E+02  0.46338019820E+02 -0.33353690045E+02  0.92038490153E+02  0.41800000000E+01 0.  1.
         -5    1    3    3    0  502  0.44582027040E+02 -0.75731328190E+01 -0.40236876895E+02  0.60674443862E+02  0.41800000000E+01 0.  1.
        -11    1    1    2    0    0  0.27715151836E+02  0.24998934714E+02 -0.99001359473E+02  0.10580333433E+03  0.00000000000E+00 0. -1.
         11    1    1    2    0    0 -0.22824972337E+00 -0.63763821715E+02 -0.15964781813E+03  0.17191074106E+03  0.00000000000E+00 0.  1.
</event>
<event>
 7    1  0.2732144E-009  0.9084389E+02  0.7561462E-02  0.1300821E+00
          1   -1    0    0  501    0  0.00000000000E+00  0.00000000000E+00  0.10145648875E+03  0.10145648875E+03  0.00000000000E+00 0. -1.
         -1   -1    0    0    0  501 -0.00000000000E+00 -0.00000000000E+00 -0.18957759788E+03  0.18957759788E+03  0.00000000000E+00 0.  1.
         25    2    1    2    0    0  0.49883691739E+02  0.40967826088E+02 -0.10417688667E+03  0.17511839278E+03  0.12508749857E+03 0.  0.
          5    1    3    3  502    0  0.19362281504E+02 -0.28857097990E+02 -0.91223910353E+02  0.97708261010E+02  0.41800000000E+01 0.  1.
         -5    1    3    3    0  502  0.30521410235E+02  0.69824924077E+02 -0.12952976314E+02  0.77410131769E+02  0.41800000000E+01 0.  1.
        -11    1    1    2    0    0 -0.22984431534E+02 -0.20736812003E+01 -0.37772871151E+02  0.44264817199E+02  0.00000000000E+00 0.  1.
         11    1    1    2    0    0 -0.26899260205E+02 -0.38894144888E+02  0.53828648684E+02  0.71650876654E+02  0.00000000000E+00 0. -1.
</event>
<event>
 6    1  0.2732144E-009  0.9591893E+02  0.7561462E-02  0.1289120E+00
          3   -1    0    0  501    0  0.00000000000E+00  0.00000000000E+00  0.67602854305E+03  0.67602854305E+03  0.00000000000E+00 0. -1.
         -3   -1    0    0    0  501 -0.00000000000E+00 -0.00000000000E+00 -0.26793568042E+02  0.26793568042E+02  0.00000000000E+00 0.  1.
          5    1    1    2  502    0 -0.13020227286E+02 -0.81346484620E+02  0.46108684586E+03  0.46840722529E+03  0.41800000000E+01 0.  1.
         -5    1    1    2    0  502  0.16649005883E+02  0.10738400140E+02  0.73429386091E+01  0.21538193561E+02  0.41800000000E+01 0.  1.
        -11    1    1    2    0    0  0.20761427987E+02  0.58086865149E+02  0.50506043730E+02  0.79724408109E+02  0.00000000000E+00 0.  1.
         11    1    1    2    0    0 -0.24390206585E+02  0.12521219331E+02  0.13029914682E+03  0.13315228414E+03  0.00000000000E+00 0. -1.
</event>
<event>
 7    1  0.2732144E-009  0.1403546E+03  0.7561462E-02  0.1212853E+00
          2   -1    0    0  501    0  0.00000000000E+00  0.00000000000E+00  0.67962905231E+03  0.67962905231E+03  0.00000000000E+00 0. -1.
         -2   -1    0    0    0  501 -0.00000000000E+00 -0.00000000000E+00 -0.36520774513E+02  0.36520774513E+02  0.00000000000E+00 0.  1.
         25    2    1    2    0    0  0.36197623902E+02 -0.10744727304E+03  0.33946739179E+03  0.37913074563E+03  0.12508728045E+03 0.  0.
          5    1    3    3  502    0  0.28166984552E+02 -0.17619498632E+00  0.65209943891E+01  0.29213110605E+02  0.41800000000E+01 0.  1.
         -5    1    3    3    0  502  0.80306393499E+01 -0.10727107806E+03  0.33294639740E+03  0.34991763502E+03  0.41800000000E+01 0.  1.
        -11    1    1    2    0    0 -0.52885984492E+02  0.21600930622E+02  0.95980936469E+02  0.11169542392E+03  0.00000000000E+00 0.  1.
         11    1    1    2    0    0  0.16688360590E+02  0.85846342423E+02  0.20765994954E+03  0.22532365728E+03  0.00000000000E+00 0. -1.
</event>
<event>
 7    1  0.2732144E-009  0.9568354E+02  0.7561462E-02  0.1289644E+00
         -2   -1    0    0    0  501 -0.00000000000E+00  0.00000000000E+00  0.41867201944E+03  0.41867201944E+03  0.00000000000E+00 0.  1.
          2   -1    0    0  501    0  0.00000000000E+00 -0.00000000000E+00 -0.32290020231E+02  0.32290020231E+02  0.00000000000E+00 0. -1.
         25    2    1    2    0    0 -0.12078833828E+02 -0.54459496985E-01  0.13845388966E+03  0.18698046719E+03  0.12508522837E+03 0.  0.
          5    1    3    3  502    0 -0.48384732329E+02 -0.26901977461E+02  0.18143559183E+02  0.58407703719E+02  0.41800000000E+01 0. -1.
         -5    1    3    3    0  502  0.36305898501E+02  0.26847517964E+02  0.12031033048E+03  0.12857276347E+03  0.41800000000E+01 0. -1.
        -11    1    1    2    0    0  0.29758489482E+02  0.38220555424E+02  0.12506849880E+03  0.13412124345E+03  0.00000000000E+00 0.  1.
         11    1    1    2    0    0 -0.17679655654E+02 -0.38166095928E+02  0.12285961075E+03  0.12986032903E+03  0.00000000000E+00 0. -1.
</event>
<event>
 7    1  0.2732144E-009  0.8068101E+02  0.7561462E-02  0.1327130E+00
         -3   -1    0    0    0  501 -0.00000000000E+00  0.00000000000E+00  0.59602249211E+03  0.59602249211E+03  0.00000000000E+00 0.  1.
          3   -1    0    0  501    0  0.00000000000E+00 -0.00000000000E+00 -0.20571703555E+02  0.20571703555E+02  0.00000000000E+00 0. -1.
         25    2    1    2    0    0  0.13720030485E+02  0.20691252014E+02  0.34123526110E+03  0.36428739631E+03  0.12508971398E+03 0.  0.
          5    1    3    3  502    0 -0.31366450223E+02 -0.99280848031E+01  0.20633602245E+02  0.39059429195E+02  0.41800000000E+01 0.  1.
         -5    1    3    3    0  502  0.45086480708E+02  0.30619336817E+02  0.32060165886E+03  0.32522796711E+03  0.41800000000E+01 0.  1.
        -11    1    1    2    0    0 -0.39201714111E+02  0.22266434475E+01  0.43764720503E+02  0.58796964981E+02  0.00000000000E+00 0.  1.
         11    1    1    2    0    0  0.25481683626E+02 -0.22917895461E+02  0.19045080695E+03  0.19350983438E+03  0.00000000000E+00 0. -1.
</event>
<event>
 7    1  0.2732144E-009  0.1358136E+03  0.7561462E-02  0.1219076E+00
          1   -1    0    0  501    0  0.00000000000E+00  0.00000000000E+00  0.18625422172E+03  0.18625422172E+03  0.00000000000E+00 0. -1.
         -1   -1    0    0    0  501 -0.00000000000E+00 -0.00000000000E+00 -0.20134789770E+03  0.20134789770E+03  0.00000000000E+00 0.  1.
         25    2    1    2    0    0 -0.12475143395E+03 -0.25693358138E+02 -0.10487426749E+03  0.20704961617E+03  0.12509141716E+03 0.  0.
          5    1    3    3  502    0 -0.31889593713E+02 -0.11968424375E+02  0.28012176721E+02  0.44298350013E+02  0.41800000000E+01 0.  1.
         -5    1    3    3    0  502 -0.92861840237E+02 -0.13724933763E+02 -0.13288644421E+03  0.16275126615E+03  0.41800000000E+01 0.  1.
        -11    1    1    2    0    0  0.92400196611E+02 -0.12557101920E+02  0.21210117555E+02  0.95631303605E+02  0.00000000000E+00 0.  1.
         11    1    1    2    0    0  0.32351237339E+02  0.38250460058E+02  0.68570473949E+02  0.84921199648E+02  0.00000000000E+00 0. -1.
</event>
<event>
 7    1  0.2732144E-009  0.1141826E+03  0.7561462E-02  0.1253015E+00
         -1   -1    0    0    0  501 -0.00000000000E+00  0.00000000000E+00  0.35778929296E+02  0.35778929296E+02  0.00000000000E+00 0.  1.
          1   -1    0    0  501    0  0.00000000000E+00 -0.00000000000E+00 -0.67347788054E+03  0.67347788054E+03  0.00000000000E+00 0. -1.
         25    2    1    2    0    0  0.48120998415E+02  0.77132029589E+02 -0.48846986048E+03  0.51236270569E+03  0.12509099529E+03 0.  0.
          5    1    3    3  502    0 -0.11898893165E+02  0.58281740172E+02 -0.39587182258E+03  0.40033775392E+03  0.41800000000E+01 0. -1.
         -5    1    3    3    0  502  0.60019891580E+02  0.18850289417E+02 -0.92598037898E+02  0.11202495177E+03  0.41800000000E+01 0. -1.
        -11    1    1    2    0    0 -0.30816357451E+02 -0.46485943744E+01 -0.10655690086E+03  0.11102085587E+03  0.00000000000E+00 0. -1.
         11    1    1    2    0    0 -0.17304640964E+02 -0.72483435215E+02 -0.42672189898E+02  0.85873248280E+02  0.00000000000E+00 0.  1.
</event>
<event>
 7    1  0.2732144E-009  0.9770641E+02  0.7561462E-02  0.1285194E+00
         -1   -1    0    0    0  501 -0.00000000000E+00  0.00000000000E+00  0.49120445296E+03  0.49120445296E+03  0.00000000000E+00 0.  1.
          1   -1    0    0  501    0  0.00000000000E+00 -0.00000000000E+00 -0.36505175719E+02  0.36505175719E+02  0.00000000000E+00 0. -1.
         25    2    1    2    0    0  0.47350106765E+01  0.58875933066E+02  0.35011639568E+03  0.37645243017E+03  0.12508455475E+03 0.  0.
          5    1    3    3  502    0 -0.36606637829E+02 -0.77174586255E+00  0.28129278494E+02  0.46361301033E+02  0.41800000000E+01 0.  1.
         -5    1    3    3    0  502  0.41341648506E+02  0.59647678929E+02  0.32198711718E+03  0.33009112914E+03  0.41800000000E+01 0.  1.
        -11    1    1    2    0    0  0.20835131911E+01  0.13252860227E+02 -0.92701892944E+01  0.16306923099E+02  0.00000000000E+00 0. -1.
         11    1    1    2    0    0 -0.68185238677E+01 -0.72128793293E+02  0.11385307086E+03  0.13495027541E+03  0.00000000000E+00 0.  1.
</event>
<event>
 7    1  0.2732144E-009  0.1135206E+03  0.7561462E-02  0.1254186E+00
         -2   -1    0    0    0  501 -0.00000000000E+00  0.00000000000E+00  0.84339050717E+02  0.84339050717E+02  0.00000000000E+00 0.  1.
          2   -1    0    0  501    0  0.00000000000E+00 -0.00000000000E+00 -0.28647286575E+03  0.28647286575E+03  0.00000000000E+00 0. -1.
         25    2    1    2    0    0 -0.88951233983E+02 -0.28868950548E+02 -0.38155595863E+02  0.16077685570E+03  0.12509040530E+03 0.  0.
          5    1    3    3  502    0 -0.71894588986E+02 -0.14505239383E+02 -0.82804446990E+02  0.11069454700E+03  0.41800000000E+01 0.  1.
         -5    1    3    3    0  502 -0.17056644996E+02 -0.14363711165E+02  0.44648851127E+02  0.50082308692E+02  0.41800000000E+01 0.  1.
        -11    1    1    2    0    0 -0.19086744577E+02  0.92863224423E-01 -0.18756875109E+02  0.26760657802E+02  0.00000000000E+00 0.  1.
         11    1    1    2    0    0  0.10803797856E+03  0.28776087323E+02 -0.14522134406E+03  0.18327440297E+03  0.00000000000E+00 0. -1.
</event>
<event>
 7    1  0.2732144E-009  0.1279112E+03  0.7561462E-02  0.1230589E+00
         -1   -1    0    0    0  501 -0.00000000000E+00  0.00000000000E+00  0.46585682608E+03  0.46585682608E+03  0.00000000000E+00 0.  1.
          1   -1    0    0  501    0  0.00000000000E+00 -0.00000000000E+00 -0.53702675353E+02  0.53702675353E+02  0.00000000000E+00 0. -1.
         25    2    1    2    0    0  0.23746192618E+02  0.84313066429E+02  0.13450347543E+03  0.20352017176E+03  0.12512673806E+03 0.  0.
          5    1    3    3  502    0  0.27630053992E+01 -0.16281206926E+02  0.89763587247E+02  0.91365671306E+02  0.41800000000E+01 0. -1.
         -5    1    3    3    0  502  0.20983187219E+02  0.10059427336E+03  0.44739888180E+02  0.11215450045E+03  0.41800000000E+01 0. -1.
        -11    1    1    2    0    0 -0.65152008951E+02 -0.54118937288E+02  0.23353817961E+03  0.24842247278E+03  0.00000000000E+00 0.  1.
         11    1    1    2    0    0  0.41405816333E+02 -0.30194129141E+02  0.44112495690E+02  0.67616856898E+02  0.00000000000E+00 0. -1.
</event>
<event>
 7    1  0.2732144E-009  0.1094489E+03  0.7561462E-02  0.1261594E+00
         -2   -1    0    0    0  501 -0.00000000000E+00  0.00000000000E+00  0.51905815970E+02  0.51905815970E+02  0.00000000000E+00 0.  1.
          2   -1    0    0  501    0  0.00000000000E+00 -0.00000000000E+00 -0.28741342478E+03  0.28741342478E+03  0.00000000000E+00 0. -1.
         25    2    1    2    0    0 -0.41089484822E+02 -0.12879545305E+02 -0.80189985038E+02  0.15469968087E+03  0.12508928456E+03 0.  0.
          5    1    3    3  502    0 -0.52148510143E+02 -0.55800591297E+02 -0.79290691706E+02  0.11017104561E+03  0.41800000000E+01 0.  1.
         -5    1    3    3    0  502  0.11059025321E+02  0.42921045992E+02 -0.89929333127E+00  0.44528635265E+02  0.41800000000E+01 0.  1.
        -11    1    1    2    0    0  0.23766264345E+02  0.50862919586E+02 -0.70835655373E+02  0.90385629288E+02  0.00000000000E+00 0.  1.
         11    1    1    2    0    0  0.17323220477E+02 -0.37983374281E+02 -0.84481968400E+02  0.94233930588E+02  0.00000000000E+00 0. -1.
</event>
<event>
 7    1  0.2732144E-009  0.1697520E+03  0.7561462E-02  0.1178107E+00
         -2   -1    0    0    0  501 -0.00000000000E+00  0.00000000000E+00  0.19753935754E+02  0.19753935754E+02  0.00000000000E+00 0.  1.
          2   -1    0    0  501    0  0.00000000000E+00 -0.00000000000E+00 -0.21415708328E+04  0.21415708328E+04  0.00000000000E+00 0. -1.
         25    2    1    2    0    0  0.54597220836E+02 -0.12035322255E+03 -0.17032593131E+04  0.17129523320E+04  0.12509056466E+03 0.  0.
          5    1    3    3  502    0  0.29102387335E+02  0.21087593485E+02 -0.25128383363E+03  0.25387530993E+03  0.41800000000E+01 0. -1.
         -5    1    3    3    0  502  0.25494833501E+02 -0.14144081604E+03 -0.14519754794E+04  0.14590770220E+04  0.41800000000E+01 0. -1.
        -11    1    1    2    0    0 -0.75880157595E+02  0.63873096084E+02 -0.23257888000E+03  0.25284482621E+03  0.00000000000E+00 0.  1.
         11    1    1    2    0    0  0.21282936759E+02  0.56480126467E+02 -0.18597870398E+03  0.19552761037E+03  0.00000000000E+00 0. -1.
</event>
<event>
 7    1  0.2732144E-009  0.1104678E+03  0.7561462E-02  0.1259706E+00
         -2   -1    0    0    0  501 -0.00000000000E+00  0.00000000000E+00  0.23293465083E+02  0.23293465083E+02  0.00000000000E+00 0.  1.
          2   -1    0    0  501    0  0.00000000000E+00 -0.00000000000E+00 -0.63427834860E+03  0.63427834860E+03  0.00000000000E+00 0. -1.
         25    2    1    2    0    0 -0.21406708456E+02 -0.45249108108E+02 -0.41536063083E+03  0.43666183680E+03  0.12507348687E+03 0.  0.
          5    1    3    3  502    0 -0.72255887781E+02 -0.39597477514E+02 -0.23110185641E+03  0.24538625467E+03  0.41800000000E+01 0.  1.
         -5    1    3    3    0  502  0.50849179325E+02 -0.56516305944E+01 -0.18425877442E+03  0.19127558213E+03  0.41800000000E+01 0.  1.
        -11    1    1    2    0    0 -0.23639363892E+02  0.55511126138E+00 -0.11944823446E+03  0.12176620380E+03  0.00000000000E+00 0. -1.
         11    1    1    2    0    0  0.45046072348E+02  0.44693996847E+02 -0.76176018224E+02  0.99143773080E+02  0.00000000000E+00 0.  1.
</event>
<event>
 7    1  0.2732144E-009  0.2082749E+03  0.7561462E-02  0.1142939E+00
          1   -1    0    0  501    0  0.00000000000E+00  0.00000000000E+00  0.66180324323E+02  0.66180324323E+02  0.00000000000E+00 0. -1.
         -1   -1    0    0    0  501 -0.00000000000E+00 -0.00000000000E+00 -0.69729144211E+03  0.69729144211E+03  0.00000000000E+00 0.  1.
         25    2    1    2    0    0  0.18849698563E+02  0.17861811433E+03 -0.41223477637E+03  0.46673739884E+03  0.12508615719E+03 0.  0.
          5    1    3    3  502    0  0.62568779596E+02  0.15306897252E+03 -0.28189396382E+03  0.32684345147E+03  0.41800000000E+01 0.  1.
         -5    1    3    3    0  502 -0.43719081033E+02  0.25549141805E+02 -0.13034081255E+03  0.13989394737E+03  0.41800000000E+01 0.  1.
        -11    1    1    2    0    0  0.34737922505E+02 -0.93479291561E+02 -0.10614198921E+03  0.14564073292E+03  0.00000000000E+00 0.  1.
         11    1    1    2    0    0 -0.53587621068E+02 -0.85138822768E+02 -0.11273435221E+03  0.15109363468E+03  0.00000000000E+00 0. -1.
</event>
<event>
 7    1  0.2732144E-009  0.1153630E+03  0.7561462E-02  0.1250949E+00
         -2   -1    0    0    0  501 -0.00000000000E+00  0.00000000000E+00  0.30162169850E+02  0.30162169850E+02  0.00000000000E+00 0.  1.
          2   -1    0    0  501    0  0.00000000000E+00 -0.00000000000E+00 -0.52461404261E+03  0.52461404261E+03  0.00000000000E+00 0. -1.
         25    2    1    2    0    0  0.31253702165E+02 -0.60785744063E+02 -0.33407702138E+03  0.36321796167E+03  0.12509248935E+03 0.  0.
          5    1    3    3  502    0  0.79189880312E+02 -0.27323241082E+02 -0.20193258334E+03  0.21865918060E+03  0.41800000000E+01 0.  1.
         -5    1    3    3    0  502 -0.47936178147E+02 -0.33462502981E+02 -0.13214443803E+03  0.14455878107E+03  0.41800000000E+01 0.  1.
        -11    1    1    2    0    0 -0.31210204363E+00  0.57077101861E+02 -0.14691402418E+03  0.15761225671E+03  0.00000000000E+00 0. -1.
         11    1    1    2    0    0 -0.30941600122E+02  0.37086422017E+01 -0.13460827212E+02  0.33945994083E+02  0.00000000000E+00 0.  1.
</event>
<event>
 7    1  0.2732144E-009  0.1346393E+03  0.7561462E-02  0.1220730E+00
         -1   -1    0    0    0  501 -0.00000000000E+00  0.00000000000E+00  0.70934012471E+02  0.70934012471E+02  0.00000000000E+00 0.  1.
          1   -1    0    0  501    0  0.00000000000E+00 -0.00000000000E+00 -0.36677935974E+03  0.36677935974E+03  0.00000000000E+00 0. -1.
         25    2    1    2    0    0 -0.46175711707E+02  0.94862075286E+02 -0.23370508682E+03  0.28530216273E+03  0.12509295255E+03 0.  0.
          5    1    3    3  502    0 -0.11935176114E+02  0.11251121307E+03 -0.21335715771E+03  0.24153668592E+03  0.41800000000E+01 0.  1.
         -5    1    3    3    0  502 -0.34240535593E+02 -0.17649137785E+02 -0.20347929105E+02  0.43765476818E+02  0.41800000000E+01 0.  1.
        -11    1    1    2    0    0  0.26844934712E+02 -0.94220272515E+02 -0.12039825997E+02  0.98706978895E+02  0.00000000000E+00 0.  1.
         11    1    1    2    0    0  0.19330776995E+02 -0.64180277064E+00 -0.50100434452E+02  0.53704230581E+02  0.00000000000E+00 0. -1.
</event>
<event>
 7    1  0.2732144E-009  0.1053478E+03  0.7561462E-02  0.1269436E+00
         -1   -1    0    0    0  501 -0.00000000000E+00  0.00000000000E+00  0.22765347402E+03  0.22765347402E+03  0.00000000000E+00 0.  1.
          1   -1    0    0  501    0  0.00000000000E+00 -0.00000000000E+00 -0.10905799279E+03  0.10905799279E+03  0.00000000000E+00 0. -1.
         25    2    1    2    0    0 -0.32964963310E+02 -0.85829978569E+02 -0.59626849056E+01  0.15535981049E+03  0.12509053951E+03 0.  0.
          5    1    3    3  502    0 -0.12725194472E+02 -0.74419448519E+02 -0.59910713789E+02  0.96472539714E+02  0.41800000000E+01 0.  1.
         -5    1    3    3    0  502 -0.20239768838E+02 -0.11410530050E+02  0.53948028883E+02  0.58887270772E+02  0.41800000000E+01 0.  1.
        -11    1    1    2    0    0  0.48052624371E+02  0.37828525953E+02  0.11483463997E+03  0.13010398388E+03  0.00000000000E+00 0.  1.
         11    1    1    2    0    0 -0.15087661061E+02  0.48001452616E+02  0.97235261652E+01  0.51247672441E+02  0.00000000000E+00 0. -1.
</event>
<event>
 7    1  0.3465467E-009  0.7204589E+02  0.7561462E-02  0.1353271E+00
         -2   -1    0    0    0  501 -0.00000000000E+00  0.00000000000E+00  0.85101389595E+02  0.85101389595E+02  0.00000000000E+00 0.  1.
          2   -1    0    0  501    0  0.00000000000E+00 -0.00000000000E+00 -0.16708096038E+03  0.16708096038E+03  0.00000000000E+00 0. -1.
         25    2    1    2    0    0 -0.40501327090E+02  0.13983787577E+02 -0.19621209612E+02  0.13366608963E+03  0.12508288388E+03 0.  0.
          5    1    3    3  502    0 -0.27965881419E+01 -0.26009832372E+02 -0.59832164243E+02  0.65434643448E+02  0.41800000000E+01 0. -1.
         -5    1    3    3    0  502 -0.37704738948E+02  0.39993619949E+02  0.40210954631E+02  0.68231446182E+02  0.41800000000E+01 0. -1.
        -11    1    1    2    0    0  0.42073184613E+02 -0.26590971260E+02 -0.81527312551E+02  0.95519292857E+02  0.00000000000E+00 0. -1.
         11    1    1    2    0    0 -0.15718575229E+01  0.12607183683E+02  0.19168951380E+02  0.22996967485E+02  0.00000000000E+00 0.  1.
</event>
<event>
 7    1  0.2732144E-009  0.1043662E+03  0.7561462E-02  0.1271373E+00
         -2   -1    0    0    0  501 -0.00000000000E+00  0.00000000000E+00  0.17181152311E+03  0.17181152311E+03  0.00000000000E+00 0. -1.
          2   -1    0    0  501    0  0.00000000000E+00 -0.00000000000E+00 -0.10820653017E+03  0.10820653017E+03  0.00000000000E+00 0.  1.
         25    2    1    2    0    0  0.23850975525E+02  0.60904359313E+02  0.87085664737E+02  0.16586151054E+03  0.12509163705E+03 0.  0.
          5    1    3    3  502    0  0.71135683127E+02  0.51318038887E+02  0.76107841579E+02  0.11620543223E+03  0.41800000000E+01 0.  1.
         -5    1    3    3    0  502 -0.47284707602E+02  0.95863204261E+01  0.10977823158E+02  0.49656078315E+02  0.41800000000E+01 0.  1.
        -11    1    1    2    0    0 -0.22952159979E+02 -0.16962258022E+02  0.32325234909E+02  0.43121232088E+02  0.00000000000E+00 0. -1.
         11    1    1    2    0    0 -0.89881554615E+00 -0.43942101290E+02 -0.55805906711E+02  0.71035310649E+02  0.00000000000E+00 0.  1.
</event>
<event>
 7    1  0.2732144E-009  0.1117112E+03  0.7561462E-02  0.1257433E+00
          1   -1    0    0  501    0  0.00000000000E+00  0.00000000000E+00  0.38434940606E+03  0.38434940606E+03  0.00000000000E+00 0. -1.
         -1   -1    0    0    0  501 -0.00000000000E+00 -0.00000000000E+00 -0.94529586324E+02  0.94529586324E+02  0.00000000000E+00 0.  1.
         25    2    1    2    0    0  0.73806318376E+02  0.11823382014E+02  0.31964018322E+03  0.35128946319E+03  0.12508906914E+03 0.  0.
          5    1    3    3  502    0  0.85137175101E+02 -0.90996821512E+00  0.32243975982E+03  0.33351767230E+03  0.41800000000E+01 0. -1.
         -5    1    3    3    0  502 -0.11330856725E+02  0.12733350229E+02 -0.27995765909E+01  0.17771790885E+02  0.41800000000E+01 0. -1.
        -11    1    1    2    0    0 -0.80633622034E+02 -0.41143223954E+02 -0.89641404809E+01  0.90966486654E+02  0.00000000000E+00 0. -1.
         11    1    1    2    0    0  0.68273036580E+01  0.29319841940E+02 -0.20856223012E+02  0.36623042541E+02  0.00000000000E+00 0.  1.
</event>
<event>
 7    1  0.2732144E-009  0.1134483E+03  0.7561462E-02  0.1254314E+00
         -2   -1    0    0    0  501 -0.00000000000E+00  0.00000000000E+00  0.22080050958E+03  0.22080050958E+03  0.00000000000E+00 0.  1.
          2   -1    0    0  501    0  0.00000000000E+00 -0.00000000000E+00 -0.65710713650E+02  0.65710713650E+02  0.00000000000E+00 0. -1.
         25    2    1    2    0    0 -0.32580373417E+02 -0.37421264420E+02  0.10802289977E+03  0.17256625694E+03  0.12509330276E+03 0.  0.
          5    1    3    3  502    0  0.37185799421E+02 -0.42174287237E+02  0.19457427920E+02  0.59644933429E+02  0.41800000000E+01 0. -1.
         -5    1    3    3    0  502 -0.69766172837E+02  0.47530228173E+01  0.88565471855E+02  0.11292132351E+03  0.41800000000E+01 0. -1.
        -11    1    1    2    0    0 -0.14692398239E+02  0.49529761105E+02  0.38427097221E+02  0.64387154014E+02  0.00000000000E+00 0. -1.
         11    1    1    2    0    0  0.47272771656E+02 -0.12108496686E+02  0.86397989337E+01  0.49557812276E+02  0.00000000000E+00 0.  1.
</event>
<event>
 7    1  0.2732144E-009  0.1161638E+03  0.7561462E-02  0.1249563E+00
         -1   -1    0    0    0  501 -0.00000000000E+00  0.00000000000E+00  0.18611010510E+02  0.18611010510E+02  0.00000000000E+00 0.  1.
          1   -1    0    0  501    0  0.00000000000E+00 -0.00000000000E+00 -0.77064581061E+03  0.77064581061E+03  0.00000000000E+00 0. -1.
         25    2    1    2    0    0  0.50296948403E+02 -0.29850866059E+01 -0.49977993921E+03  0.51765584608E+03  0.12509553783E+03 0.  0.
          5    1    3    3  502    0 -0.41151440463E+02  0.76041222888E+01 -0.18108789795E+03  0.18590740413E+03  0.41800000000E+01 0. -1.
         -5    1    3    3    0  502  0.91448388867E+02 -0.10589208895E+02 -0.31869204126E+03  0.33174844195E+03  0.41800000000E+01 0. -1.
        -11    1    1    2    0    0 -0.46248210645E+02 -0.36195150037E+02 -0.11991519528E+03  0.13352393019E+03  0.00000000000E+00 0. -1.
         11    1    1    2    0    0 -0.40487377580E+01  0.39180236643E+02 -0.13233966562E+03  0.13807704486E+03  0.00000000000E+00 0.  1.
</event>
<event>
 7    1  0.2875445E-009  0.1154073E+03  0.7561462E-02  0.1250872E+00
          1   -1    0    0  501    0  0.00000000000E+00  0.00000000000E+00  0.93961997179E+03  0.93961997179E+03  0.00000000000E+00 0. -1.
         -1   -1    0    0    0  501 -0.00000000000E+00 -0.00000000000E+00 -0.26893702270E+02  0.26893702270E+02  0.00000000000E+00 0.  1.
         25    2    1    2    0    0  0.29137531964E+02  0.95549615494E+02  0.66890625758E+03  0.68779537717E+03  0.12509266420E+03 0.  0.
          5    1    3    3  502    0  0.35773780983E+02  0.33181553420E+02  0.69041920855E+02  0.84646548237E+02  0.41800000000E+01 0. -1.
         -5    1    3    3    0  502 -0.66362490195E+01  0.62368062074E+02  0.59986433673E+03  0.60314882893E+03  0.41800000000E+01 0. -1.
        -11    1    1    2    0    0  0.16821247916E+02 -0.55599181213E+02  0.53784209985E+02  0.79164162199E+02  0.00000000000E+00 0.  1.
         11    1    1    2    0    0 -0.45958779880E+02 -0.39950434280E+02  0.19003580195E+03  0.19955413469E+03  0.00000000000E+00 0. -1.
</event>
<event>
 7    1  0.2732144E-009  0.8285031E+02  0.7561462E-02  0.1321152E+00
          2   -1    0    0  501    0  0.00000000000E+00  0.00000000000E+00  0.54554795153E+03  0.54554795153E+03  0.00000000000E+00 0.  1.
         -2   -1    0    0    0  501 -0.00000000000E+00 -0.00000000000E+00 -0.21950514252E+02  0.21950514252E+02  0.00000000000E+00 0. -1.
         25    2    1    2    0    0  0.48124559086E+01 -0.16977041114E+02  0.31102889370E+03  0.33570228557E+03  0.12508266132E+03 0.  0.
          5    1    3    3  502    0  0.22202803866E+02 -0.61255923627E+02  0.10064998834E+03  0.11997143506E+03  0.41800000000E+01 0.  1.
         -5    1    3    3    0  502 -0.17390347958E+02  0.44278882512E+02  0.21037890537E+03  0.21573085051E+03  0.41800000000E+01 0.  1.
        -11    1    1    2    0    0 -0.12903198807E+02  0.32601078660E+02  0.21126353890E+03  0.21415322958E+03  0.00000000000E+00 0.  1.
         11    1    1    2    0    0  0.80907428981E+01 -0.15624037546E+02  0.13050046752E+01  0.17642950634E+02  0.00000000000E+00 0. -1.
</event>
<event>
 7    1  0.2732144E-009  0.8963786E+02  0.7561462E-02  0.1303731E+00
         -1   -1    0    0    0  501 -0.00000000000E+00  0.00000000000E+00  0.85509282874E+02  0.85509282874E+02  0.00000000000E+00 0.  1.
          1   -1    0    0  501    0  0.00000000000E+00 -0.00000000000E+00 -0.17746150414E+03  0.17746150414E+03  0.00000000000E+00 0. -1.
         25    2    1    2    0    0  0.32908828655E+02 -0.28700956045E+02 -0.89772610920E+01  0.13279718128E+03  0.12509102389E+03 0.  0.
          5    1    3    3  502    0 -0.29188483701E+02 -0.29419618023E+01 -0.46915447853E+02  0.55490128557E+02  0.41800000000E+01 0.  1.
         -5    1    3    3    0  502  0.62097312355E+02 -0.25758994243E+02  0.37938186761E+02  0.77307052724E+02  0.41800000000E+01 0.  1.
        -11    1    1    2    0    0 -0.50536601242E+02  0.37164700450E+02 -0.22545837166E+02  0.66659416425E+02  0.00000000000E+00 0.  1.
         11    1    1    2    0    0  0.17627772588E+02 -0.84637444047E+01 -0.60429123007E+02  0.63514189305E+02  0.00000000000E+00 0. -1.
</event>
<event>
 7    1  0.2732144E-009  0.1373888E+03  0.7561462E-02  0.1216886E+00
         -1   -1    0    0    0  501 -0.00000000000E+00  0.00000000000E+00  0.18694761050E+03  0.18694761050E+03  0.00000000000E+00 0.  1.
          1   -1    0    0  501    0  0.00000000000E+00 -0.00000000000E+00 -0.13746666292E+03  0.13746666292E+03  0.00000000000E+00 0. -1.
         25    2    1    2    0    0 -0.59930061156E+02  0.71032789178E+02 -0.47358657178E+02  0.16287191560E+03  0.12508856508E+03 0.  0.
          5    1    3    3  502    0 -0.43155414652E+02  0.10184209624E+03 -0.95063167321E+01  0.11109475612E+03  0.41800000000E+01 0. -1.
         -5    1    3    3    0  502 -0.16774646504E+02 -0.30809307057E+02 -0.37852340445E+02  0.51777159481E+02  0.41800000000E+01 0. -1.
        -11    1    1    2    0    0  0.14563439491E+02 -0.81012368131E+02  0.68851205448E+02  0.10731069868E+03  0.00000000000E+00 0.  1.
         11    1    1    2    0    0  0.45366621665E+02  0.99795789525E+01  0.27988399311E+02  0.54231659142E+02  0.00000000000E+00 0. -1.
</event>
<event>
 7    1  0.2732144E-009  0.1653912E+03  0.7561462E-02  0.1182741E+00
         -2   -1    0    0    0  501 -0.00000000000E+00  0.00000000000E+00  0.34349576066E+02  0.34349576066E+02  0.00000000000E+00 0.  1.
          2   -1    0    0  501    0  0.00000000000E+00 -0.00000000000E+00 -0.94259255658E+03  0.94259255658E+03  0.00000000000E+00 0. -1.
         25    2    1    2    0    0  0.72018831941E+02  0.11835763406E+03 -0.57222275810E+03  0.60190095155E+03  0.12510247357E+03 0.  0.
          5    1    3    3  502    0  0.59263987970E+02 -0.76644788872E+01 -0.18890191999E+03  0.19817258206E+03  0.41800000000E+01 0. -1.
         -5    1    3    3    0  502  0.12754843971E+02  0.12602211295E+03 -0.38332083811E+03  0.40372836948E+03  0.41800000000E+01 0. -1.
        -11    1    1    2    0    0 -0.29315590385E+02 -0.16368966703E+02 -0.17472889215E+02  0.37850347000E+02  0.00000000000E+00 0.  1.
         11    1    1    2    0    0 -0.42703241557E+02 -0.10198866736E+03 -0.31854733320E+03  0.33719083410E+03  0.00000000000E+00 0. -1.
</event>
<event>
 7    1  0.2732144E-009  0.1424691E+03  0.7561462E-02  0.1210045E+00
         -2   -1    0    0    0  501 -0.00000000000E+00  0.00000000000E+00  0.11925204334E+03  0.11925204334E+03  0.00000000000E+00 0.  1.
          2   -1    0    0  501    0  0.00000000000E+00 -0.00000000000E+00 -0.18747925259E+03  0.18747925259E+03  0.00000000000E+00 0. -1.
         25    2    1    2    0    0 -0.92067612238E+02  0.24917362106E+02  0.26880347015E+01  0.15732771978E+03  0.12508983061E+03 0.  0.
          5    1    3    3  502    0  0.18390319498E+02 -0.26164717620E+02 -0.12549346740E+02  0.34608594352E+02  0.41800000000E+01 0. -1.
         -5    1    3    3    0  502 -0.11045793174E+03  0.51082079727E+02  0.15237381441E+02  0.12271912543E+03  0.41800000000E+01 0. -1.
        -11    1    1    2    0    0  0.44344155354E+02  0.33432486359E+02 -0.23171261315E+02  0.60175099577E+02  0.00000000000E+00 0. -1.
         11    1    1    2    0    0  0.47723456884E+02 -0.58349848465E+02 -0.47743982636E+02  0.89228476569E+02  0.00000000000E+00 0.  1.
</event>
<event>
 7    1  0.2732144E-009  0.2048263E+03  0.7561462E-02  0.1145730E+00
          2   -1    0    0  501    0  0.00000000000E+00  0.00000000000E+00  0.80153993176E+03  0.80153993176E+03  0.00000000000E+00 0. -1.
         -2   -1    0    0    0  501 -0.00000000000E+00 -0.00000000000E+00 -0.58544666708E+02  0.58544666708E+02  0.00000000000E+00 0.  1.
         25    2    1    2    0    0 -0.12690712960E+03  0.13069227548E+03  0.29879128347E+03  0.37162833880E+03  0.12508197594E+03 0.  0.
          5    1    3    3  502    0 -0.23304066559E+02  0.10232610726E+03  0.19868439375E+03  0.22473689609E+03  0.41800000000E+01 0. -1.
         -5    1    3    3    0  502 -0.10360306304E+03  0.28366168227E+02  0.10010688973E+03  0.14689144271E+03  0.41800000000E+01 0. -1.
        -11    1    1    2    0    0  0.99374292595E+02 -0.13664281243E+03  0.32887094483E+03  0.36973315590E+03  0.00000000000E+00 0.  1.
         11    1    1    2    0    0  0.27532837004E+02  0.59505369463E+01  0.11533303675E+03  0.11872310377E+03  0.00000000000E+00 0. -1.
</event>
<event>
 7    1  0.2732144E-009  0.9945878E+02  0.7561462E-02  0.1281438E+00
         -1   -1    0    0    0  501 -0.00000000000E+00  0.00000000000E+00  0.13318551627E+03  0.13318551627E+03  0.00000000000E+00 0.  1.
          1   -1    0    0  501    0  0.00000000000E+00 -0.00000000000E+00 -0.10998210537E+03  0.10998210537E+03  0.00000000000E+00 0. -1.
         25    2    1    2    0    0 -0.26845014810E+02 -0.46360993356E+02  0.20527934581E+01  0.13609545955E+03  0.12509102136E+03 0.  0.
          5    1    3    3  502    0 -0.28172614620E+02  0.39072112184E+02 -0.10928668808E+02  0.49570498958E+02  0.41800000000E+01 0. -1.
         -5    1    3    3    0  502  0.13275998091E+01 -0.85433105539E+02  0.12981462266E+02  0.86524960595E+02  0.41800000000E+01 0. -1.
        -11    1    1    2    0    0 -0.58833014635E+01  0.25591119082E+02  0.51522487832E+02  0.57828067272E+02  0.00000000000E+00 0.  1.
         11    1    1    2    0    0  0.32728316274E+02  0.20769874273E+02 -0.30371870388E+02  0.49244094816E+02  0.00000000000E+00 0. -1.
</event>
<event>
 7    1  0.2732144E-009  0.2309965E+03  0.7561462E-02  0.1125940E+00
         -1   -1    0    0    0  501 -0.00000000000E+00  0.00000000000E+00  0.24759365509E+03  0.24759365509E+03  0.00000000000E+00 0.  1.
          1   -1    0    0  501    0  0.00000000000E+00 -0.00000000000E+00 -0.22581625544E+03  0.22581625544E+03  0.00000000000E+00 0. -1.
         25    2    1    2    0    0  0.27349970108E+02 -0.20280392419E+03 -0.36574655236E+02  0.24260965769E+03  0.12507712848E+03 0.  0.
          5    1    3    3  502    0 -0.36740090325E+02 -0.14154523990E+02 -0.14251984444E+02  0.42080592285E+02  0.41800000000E+01 0.  1.
         -5    1    3    3    0  502  0.64090060433E+02 -0.18864940020E+03 -0.22322670792E+02  0.20052906541E+03  0.41800000000E+01 0.  1.
        -11    1    1    2    0    0  0.25143380712E+02  0.13523832692E+03  0.31391945697E+02  0.14109234180E+03  0.00000000000E+00 0.  1.
         11    1    1    2    0    0 -0.52493350820E+02  0.67565597272E+02  0.26960109195E+02  0.89707911038E+02  0.00000000000E+00 0. -1.
</event>
<event>
 7    1  0.2732144E-009  0.1171166E+03  0.7561462E-02  0.1247931E+00
          1   -1    0    0  501    0  0.00000000000E+00  0.00000000000E+00  0.62260971384E+03  0.62260971384E+03  0.00000000000E+00 0. -1.
         -1   -1    0    0    0  501 -0.00000000000E+00 -0.00000000000E+00 -0.28521372602E+02  0.28521372602E+02  0.00000000000E+00 0.  1.
         25    2    1    2    0    0  0.49508847042E+02 -0.38383806886E+02  0.23851529493E+03  0.27651643878E+03  0.12508937778E+03 0.  0.
          5    1    3    3  502    0 -0.12344108817E+02  0.28417509110E+02  0.13511936363E+03  0.13868902868E+03  0.41800000000E+01 0. -1.
         -5    1    3    3    0  502  0.61852955859E+02 -0.66801315996E+02  0.10339593130E+03  0.13782741010E+03  0.41800000000E+01 0. -1.
        -11    1    1    2    0    0 -0.26998393225E+01 -0.29364259356E+02  0.15527327271E+03  0.15804853077E+03  0.00000000000E+00 0. -1.
         11    1    1    2    0    0 -0.46809007720E+02  0.67748066243E+02  0.20029977360E+03  0.21656611689E+03  0.00000000000E+00 0.  1.
</event>
<event>
 7    1  0.2732144E-009  0.1359258E+03  0.7561462E-02  0.1218919E+00
         -2   -1    0    0    0  501 -0.00000000000E+00  0.00000000000E+00  0.13309376681E+03  0.13309376681E+03  0.00000000000E+00 0. -1.
          2   -1    0    0  501    0  0.00000000000E+00 -0.00000000000E+00 -0.20699336740E+03  0.20699336740E+03  0.00000000000E+00 0.  1.
         25    2    1    2    0    0  0.11694251623E+03  0.86085270759E+01 -0.84036225525E+02  0.19094552096E+03  0.12509374858E+03 0.  0.
          5    1    3    3  502    0  0.61349012222E+01  0.33678975757E+02 -0.67852688495E+02  0.76114191561E+02  0.41800000000E+01 0.  1.
         -5    1    3    3    0  502  0.11080761500E+03 -0.25070448681E+02 -0.16183537030E+02  0.11483132940E+03  0.41800000000E+01 0.  1.
        -11    1    1    2    0    0 -0.92778661608E+01 -0.12945664613E+02 -0.30155185057E+02  0.34102847661E+02  0.00000000000E+00 0.  1.
         11    1    1    2    0    0 -0.10766465007E+03  0.43371375366E+01  0.40291809989E+02  0.11503876559E+03  0.00000000000E+00 0. -1.
</event>
<event>
 6    1  0.2732144E-009  0.1420493E+03  0.7561462E-02  0.1210598E+00
         -1   -1    0    0    0  501 -0.00000000000E+00  0.00000000000E+00  0.54919238191E+02  0.54919238191E+02  0.00000000000E+00 0.  1.
          1   -1    0    0  501    0  0.00000000000E+00 -0.00000000000E+00 -0.59895594983E+03  0.59895594983E+03  0.00000000000E+00 0. -1.
          5    1    1    2  502    0 -0.95712697935E+02 -0.10488952979E+02 -0.35939314116E+03  0.37209117296E+03  0.41800000000E+01 0.  1.
         -5    1    1    2    0  502 -0.22261470398E+02 -0.47698643147E+02 -0.38949070116E+02  0.65614297872E+02  0.41800000000E+01 0.  1.
        -11    1    1    2    0    0  0.24842897569E+02  0.27033475931E+02  0.42170304096E+01  0.36956213632E+02  0.00000000000E+00 0. -1.
         11    1    1    2    0    0  0.93131270764E+02  0.31154120195E+02 -0.14991153077E+03  0.17921350356E+03  0.00000000000E+00 0.  1.
</event>
<event>
 7    1  0.2732144E-009  0.1968142E+03  0.7561462E-02  0.1152455E+00
          2   -1    0    0  501    0  0.00000000000E+00  0.00000000000E+00  0.13226723416E+03  0.13226723416E+03  0.00000000000E+00 0. -1.
         -2   -1    0    0    0  501 -0.00000000000E+00 -0.00000000000E+00 -0.31004854094E+03  0.31004854094E+03  0.00000000000E+00 0.  1.
         25    2    1    2    0    0  0.68003663084E+02 -0.14992618841E+03 -0.43955411124E+02  0.21138116319E+03  0.12509019875E+03 0.  0.
          5    1    3    3  502    0  0.89693576312E+02 -0.15814590373E+03 -0.30985535236E+02  0.18447937633E+03  0.41800000000E+01 0.  1.
         -5    1    3    3    0  502 -0.21689913227E+02  0.82197153237E+01 -0.12969875889E+02  0.26901786862E+02  0.41800000000E+01 0.  1.
        -11    1    1    2    0    0 -0.83914080084E+02  0.78104170856E+02 -0.80713649190E+02  0.14020173860E+03  0.00000000000E+00 0.  1.
         11    1    1    2    0    0  0.15910416999E+02  0.71822017550E+02 -0.53112246460E+02  0.90732873304E+02  0.00000000000E+00 0. -1.
</event>
<event>
 7    1  0.2732144E-009  0.1227677E+03  0.7561462E-02  0.1238600E+00
         -1   -1    0    0    0  501 -0.00000000000E+00  0.00000000000E+00  0.16015441435E+03  0.16015441435E+03  0.00000000000E+00 0.  1.
          1   -1    0    0  501    0  0.00000000000E+00 -0.00000000000E+00 -0.38217471423E+03  0.38217471423E+03  0.00000000000E+00 0. -1.
         25    2    1    2    0    0  0.50107600137E+01 -0.94070044143E+02 -0.33485347475E+03  0.36966003557E+03  0.12508961359E+03 0.  0.
          5    1    3    3  502    0  0.52508038867E+02 -0.20555587489E+02 -0.66107682881E+02  0.86990369918E+02  0.41800000000E+01 0.  1.
         -5    1    3    3    0  502 -0.47497278853E+02 -0.73514456655E+02 -0.26874579187E+03  0.28266966566E+03  0.41800000000E+01 0.  1.
        -11    1    1    2    0    0 -0.18260225652E+02  0.24541452050E+02 -0.88970193731E+01  0.31857113230E+02  0.00000000000E+00 0. -1.
         11    1    1    2    0    0  0.13249465638E+02  0.69528592093E+02  0.12173019424E+03  0.14081197978E+03  0.00000000000E+00 0.  1.
</event>
<event>
 7    1  0.2732144E-009  0.1324717E+03  0.7561462E-02  0.1223834E+00
          1   -1    0    0  501    0  0.00000000000E+00  0.00000000000E+00  0.10955369480E+04  0.10955369480E+04  0.00000000000E+00 0. -1.
         -1   -1    0    0    0  501 -0.00000000000E+00 -0.00000000000E+00 -0.22781596010E+02  0.22781596010E+02  0.00000000000E+00 0.  1.
         25    2    1    2    0    0 -0.56884172975E+02 -0.71642489534E+02  0.82037616877E+03  0.83488522783E+03  0.12509128640E+03 0.  0.
          5    1    3    3  502    0  0.10558208976E+02  0.19623469636E+02  0.35990089629E+03  0.36061431459E+03  0.41800000000E+01 0. -1.
         -5    1    3    3    0  502 -0.67442381951E+02 -0.91265959171E+02  0.46047527247E+03  0.47427091324E+03  0.41800000000E+01 0. -1.
        -11    1    1    2    0    0  0.65089339913E+02  0.88562375473E+02  0.22172578751E+03  0.24747169811E+03  0.00000000000E+00 0.  1.
         11    1    1    2    0    0 -0.82051669380E+01 -0.16919885938E+02  0.30653395681E+02  0.35961618031E+02  0.00000000000E+00 0. -1.
</event>
<event>
 7    1  0.2972651E-009  0.7131233E+02  0.7561462E-02  0.1355686E+00
         -2   -1    0    0    0  501 -0.00000000000E+00  0.00000000000E+00  0.20829902359E+02  0.20829902359E+02  0.00000000000E+00 0. -1.
          2   -1    0    0  501    0  0.00000000000E+00 -0.00000000000E+00 -0.78002079622E+03  0.78002079622E+03  0.00000000000E+00 0.  1.
         25    2    1    2    0    0 -0.35498123774E+02  0.16902083943E+02 -0.58949127794E+03  0.60389824711E+03  0.12508928357E+03 0.  0.
          5    1    3    3  502    0  0.73236592626E+01 -0.21000978671E+02 -0.47791673565E+03  0.47845225019E+03  0.41800000000E+01 0.  1.
         -5    1    3    3    0  502 -0.42821783037E+02  0.37903062614E+02 -0.11157454228E+03  0.12544599692E+03  0.41800000000E+01 0.  1.
        -11    1    1    2    0    0  0.12359111893E+02 -0.32485555164E+02 -0.16505045465E+03  0.16867042278E+03  0.00000000000E+00 0.  1.
         11    1    1    2    0    0  0.23139011881E+02  0.15583471222E+02 -0.46491612730E+01  0.28282028688E+02  0.00000000000E+00 0. -1.
</event>
<event>
 7    1  0.2732144E-009  0.8415656E+02  0.7561462E-02  0.1317653E+00
          1   -1    0    0  501    0  0.00000000000E+00  0.00000000000E+00  0.43766656861E+03  0.43766656861E+03  0.00000000000E+00 0. -1.
         -1   -1    0    0    0  501 -0.00000000000E+00 -0.00000000000E+00 -0.40465691289E+02  0.40465691289E+02  0.00000000000E+00 0.  1.
         25    2    1    2    0    0  0.99717064224E+01 -0.42970275948E+02  0.33359895361E+03  0.35900656011E+03  0.12510623009E+03 0.  0.
          5    1    3    3  502    0  0.13688522867E+02 -0.53943850740E+02  0.34039446475E+03  0.34493938413E+03  0.41800000000E+01 0. -1.
         -5    1    3    3    0  502 -0.37168164442E+01  0.10973574792E+02 -0.67955111451E+01  0.14067175975E+02  0.41800000000E+01 0. -1.
        -11    1    1    2    0    0  0.11985648067E+01  0.70482414937E+02  0.50244832274E+02  0.86566451603E+02  0.00000000000E+00 0. -1.
         11    1    1    2    0    0 -0.11170271229E+02 -0.27512138989E+02  0.13357091443E+02  0.32559248193E+02  0.00000000000E+00 0.  1.
</event>
<event>
 7    1  0.2732144E-009  0.9895080E+02  0.7561462E-02  0.1282518E+00
         -2   -1    0    0    0  501 -0.00000000000E+00  0.00000000000E+00  0.17221735544E+02  0.17221735544E+02  0.00000000000E+00 0.  1.
          2   -1    0    0  501    0  0.00000000000E+00 -0.00000000000E+00 -0.94674598688E+03  0.94674598688E+03  0.00000000000E+00 0. -1.
         25    2    1    2    0    0 -0.12697451210E+01  0.22508179912E+02 -0.75526827669E+03  0.76588487017E+03  0.12506491981E+03 0.  0.
          5    1    3    3  502    0 -0.74015251546E+01  0.72113768043E+02 -0.34477102046E+03  0.35233465209E+03  0.41800000000E+01 0. -1.
         -5    1    3    3    0  502  0.61317800336E+01 -0.49605588131E+02 -0.41049725623E+03  0.41355021808E+03  0.41800000000E+01 0. -1.
        -11    1    1    2    0    0  0.28134796226E+02 -0.35493791849E+02 -0.39606691232E+02  0.60166984376E+02  0.00000000000E+00 0.  1.
         11    1    1    2    0    0 -0.26865051105E+02  0.12985611938E+02 -0.13464928342E+03  0.13791586788E+03  0.00000000000E+00 0. -1.
</event>
<event>
 7    1  0.2732144E-009  0.1230616E+03  0.7561462E-02  0.1238130E+00
          1   -1    0    0  501    0  0.00000000000E+00  0.00000000000E+00  0.36510025464E+02  0.36510025464E+02  0.00000000000E+00 0. -1.
         -1   -1    0    0    0  501 -0.00000000000E+00 -0.00000000000E+00 -0.46180962621E+03  0.46180962621E+03  0.00000000000E+00 0.  1.
         25    2    1    2    0    0 -0.56748800507E+02  0.37753257530E+02 -0.22571331697E+03  0.26690770386E+03  0.12508991211E+03 0.  0.
          5    1    3    3  502    0 -0.34527001434E+02 -0.41696480058E+02 -0.12746441381E+03  0.13854731850E+03  0.41800000000E+01 0.  1.
         -5    1    3    3    0  502 -0.22221799073E+02  0.79449737588E+02 -0.98248903157E+02  0.12836038535E+03  0.41800000000E+01 0.  1.
        -11    1    1    2    0    0  0.33796095095E+02 -0.65202186725E+02 -0.16926857665E+03  0.18451382669E+03  0.00000000000E+00 0.  1.
         11    1    1    2    0    0  0.22952705412E+02  0.27448929195E+02 -0.30317707129E+02  0.46898121126E+02  0.00000000000E+00 0. -1.
</event>
<event>
 7    1  0.2732144E-009  0.1079945E+03  0.7561462E-02  0.1264329E+00
          1   -1    0    0  501    0  0.00000000000E+00  0.00000000000E+00  0.98576054554E+03  0.98576054554E+03  0.00000000000E+00 0. -1.
         -1   -1    0    0    0  501 -0.00000000000E+00 -0.00000000000E+00 -0.21135390030E+02  0.21135390030E+02  0.00000000000E+00 0.  1.
         25    2    1    2    0    0  0.70890148266E+02 -0.47375031122E+02  0.69898349216E+03  0.71518835569E+03  0.12508659044E+03 0.  0.
          5    1    3    3  502    0  0.54691364700E+02  0.10132313012E+02  0.11163715379E+03  0.12479637673E+03  0.41800000000E+01 0.  1.
         -5    1    3    3    0  502  0.16198783566E+02 -0.57507344135E+02  0.58734633837E+03  0.59039197896E+03  0.41800000000E+01 0.  1.
        -11    1    1    2    0    0 -0.39581981772E+02 -0.43877103724E+01  0.19351452858E+03  0.19756988145E+03  0.00000000000E+00 0. -1.
         11    1    1    2    0    0 -0.31308166494E+02  0.51762741495E+02  0.72127134772E+02  0.94137698435E+02  0.00000000000E+00 0.  1.
</event>
<event>
 7    1  0.3215778E-009  0.1079783E+03  0.7561462E-02  0.1264360E+00
          1   -1    0    0  501    0  0.00000000000E+00  0.00000000000E+00  0.27115512697E+03  0.27115512697E+03  0.00000000000E+00 0. -1.
         -1   -1    0    0    0  501 -0.00000000000E+00 -0.00000000000E+00 -0.49308308497E+02  0.49308308497E+02  0.00000000000E+00 0.  1.
         25    2    1    2    0    0 -0.20572810280E+02  0.17205095482E+02  0.16735686404E+03  0.21065321852E+03  0.12508877927E+03 0.  0.
          5    1    3    3  502    0 -0.69990739639E+02  0.28405619309E+02  0.84278105172E+02  0.11325128809E+03  0.41800000000E+01 0. -1.
         -5    1    3    3    0  502  0.49417929359E+02 -0.11200523827E+02  0.83078758868E+02  0.97401930429E+02  0.41800000000E+01 0. -1.
        -11    1    1    2    0    0 -0.30939323123E+02  0.82265599502E+01  0.38712254179E+02  0.50235013960E+02  0.00000000000E+00 0.  1.
         11    1    1    2    0    0  0.51512133403E+02 -0.25431655432E+02  0.15777700258E+02  0.59575202989E+02  0.00000000000E+00 0. -1.
</event>
<event>
 7    1  0.2732144E-009  0.1294983E+03  0.7561462E-02  0.1228202E+00
          2   -1    0    0  501    0  0.00000000000E+00  0.00000000000E+00  0.12105026383E+04  0.12105026383E+04  0.00000000000E+00 0. -1.
         -2   -1    0    0    0  501 -0.00000000000E+00 -0.00000000000E+00 -0.19434064925E+02  0.19434064925E+02  0.00000000000E+00 0.  1.
         25    2    1    2    0    0 -0.20936786869E+02 -0.87963545029E+02  0.46437527283E+03  0.48935282389E+03  0.12508340391E+03 0.  0.
          5    1    3    3  502    0 -0.48901118862E+02 -0.60674687408E+02  0.12263076900E+03  0.14535651008E+03  0.41800000000E+01 0. -1.
         -5    1    3    3    0  502  0.27964331992E+02 -0.27288857621E+02  0.34174450383E+03  0.34399631380E+03  0.41800000000E+01 0. -1.
        -11    1    1    2    0    0  0.11080256984E+02 -0.25482704371E+02  0.10930521799E+03  0.11278196219E+03  0.00000000000E+00 0.  1.
         11    1    1    2    0    0  0.98565298851E+01  0.11344624940E+03  0.61738808254E+03  0.62780191713E+03  0.00000000000E+00 0. -1.
</event>
<event>
 7    1  0.2732144E-009  0.9389194E+02  0.7561462E-02  0.1293691E+00
         -1   -1    0    0    0  501 -0.00000000000E+00  0.00000000000E+00  0.13196591003E+03  0.13196591003E+03  0.00000000000E+00 0.  1.
          1   -1    0    0  501    0  0.00000000000E+00 -0.00000000000E+00 -0.12679135117E+03  0.12679135117E+03  0.00000000000E+00 0. -1.
         25    2    1    2    0    0  0.52485459336E+02 -0.28673122999E+02 -0.28913618940E+02  0.14163645525E+03  0.12509203281E+03 0.  0.
          5    1    3    3  502    0 -0.26151044785E+01 -0.28200986565E+02  0.42559024814E+02  0.51292079387E+02  0.41800000000E+01 0.  1.
         -5    1    3    3    0  502  0.55100563815E+02 -0.47213643441E+00 -0.71472643755E+02  0.90344375867E+02  0.41800000000E+01 0.  1.
        -11    1    1    2    0    0  0.10741096079E+02  0.38444718208E+02  0.35072374448E+02  0.53136041935E+02  0.00000000000E+00 0.  1.
         11    1    1    2    0    0 -0.63226555415E+02 -0.97715952089E+01 -0.98419665623E+00  0.63984764012E+02  0.00000000000E+00 0. -1.
</event>
<event>
 7    1  0.4093213E-009  0.1449318E+03  0.7561462E-02  0.1206843E+00
          2   -1    0    0  501    0  0.00000000000E+00  0.00000000000E+00  0.28493301635E+03  0.28493301635E+03  0.00000000000E+00 0. -1.
         -2   -1    0    0    0  501 -0.00000000000E+00 -0.00000000000E+00 -0.93107954693E+02  0.93107954693E+02  0.00000000000E+00 0.  1.
         25    2    1    2    0    0  0.36419172937E+02 -0.10911901195E+03  0.14749295562E+03  0.22502150898E+03  0.12508873898E+03 0.  0.
          5    1    3    3  502    0  0.72016825121E+02 -0.11059112023E+03  0.10067953324E+03  0.16604415011E+03  0.41800000000E+01 0. -1.
         -5    1    3    3    0  502 -0.35597652183E+02  0.14721082789E+01  0.46813422376E+02  0.58977358862E+02  0.41800000000E+01 0. -1.
        -11    1    1    2    0    0 -0.38474088141E+01  0.73824875929E+02  0.67129522672E+02  0.99856335175E+02  0.00000000000E+00 0. -1.
         11    1    1    2    0    0 -0.32571764123E+02  0.35294136021E+02 -0.22797416633E+02  0.53163126889E+02  0.00000000000E+00 0.  1.
</event>
<event>
 7    1  0.2732144E-009  0.1271110E+03  0.7561462E-02  0.1231807E+00
          2   -1    0    0  501    0  0.00000000000E+00  0.00000000000E+00  0.80940618928E+03  0.80940618928E+03  0.00000000000E+00 0. -1.
         -2   -1    0    0    0  501 -0.00000000000E+00 -0.00000000000E+00 -0.24914649660E+02  0.24914649660E+02  0.00000000000E+00 0.  1.
         25    2    1    2    0    0  0.25870220821E+02  0.62484004008E+02  0.60232824410E+03  0.61888589522E+03  0.12508764359E+03 0.  0.
          5    1    3    3  502    0 -0.16361969155E+02  0.89206873121E+02  0.34714788821E+03  0.35882406404E+03  0.41800000000E+01 0.  1.
         -5    1    3    3    0  502  0.42232189976E+02 -0.26722869113E+02  0.25518035589E+03  0.26006183118E+03  0.41800000000E+01 0.  1.
        -11    1    1    2    0    0  0.28551354356E+02  0.23316252953E+01  0.31125167428E+02  0.42301209906E+02  0.00000000000E+00 0. -1.
         11    1    1    2    0    0 -0.54421575178E+02 -0.64815629303E+02  0.15103812809E+03  0.17313373381E+03  0.00000000000E+00 0.  1.
</event>
<event>
 7    1  0.2732144E-009  0.2078929E+03  0.7561462E-02  0.1143246E+00
          2   -1    0    0  501    0  0.00000000000E+00  0.00000000000E+00  0.14703538298E+04  0.14703538298E+04  0.00000000000E+00 0. -1.
         -2   -1    0    0    0  501 -0.00000000000E+00 -0.00000000000E+00 -0.38078493201E+02  0.38078493201E+02  0.00000000000E+00 0.  1.
         25    2    1    2    0    0 -0.13195514052E+03 -0.15272421609E+03  0.55397832360E+03  0.60272440653E+03  0.12509149420E+03 0.  0.
          5    1    3    3  502    0  0.30302197899E+01 -0.26767451387E+02  0.21486823015E+03  0.21659064480E+03  0.41800000000E+01 0. -1.
         -5    1    3    3    0  502 -0.13498536031E+03 -0.12595676470E+03  0.33911009345E+03  0.38613376173E+03  0.41800000000E+01 0. -1.
        -11    1    1    2    0    0  0.85141794612E+02  0.76827357062E+02  0.66017975088E+03  0.67006631870E+03  0.00000000000E+00 0.  1.
         11    1    1    2    0    0  0.46813345911E+02  0.75896859024E+02  0.21811726213E+03  0.23564159778E+03  0.00000000000E+00 0. -1.
</event>
<event>
 7    1  0.2732144E-009  0.1026938E+03  0.7561462E-02  0.1274731E+00
         -1   -1    0    0    0  501 -0.00000000000E+00  0.00000000000E+00  0.96435957879E+02  0.96435957879E+02  0.00000000000E+00 0.  1.
          1   -1    0    0  501    0  0.00000000000E+00 -0.00000000000E+00 -0.21314981256E+03  0.21314981256E+03  0.00000000000E+00 0. -1.
         25    2    1    2    0    0  0.79268210654E+02  0.88869640340E+01 -0.14028291515E+02  0.14901946851E+03  0.12509029412E+03 0.  0.
          5    1    3    3  502    0  0.57522186477E+02  0.13833289469E+02 -0.68143958280E+02  0.90339544413E+02  0.41800000000E+01 0. -1.
         -5    1    3    3    0  502  0.21746024177E+02 -0.49463254352E+01  0.54115666765E+02  0.58679924099E+02  0.41800000000E+01 0. -1.
        -11    1    1    2    0    0 -0.68943413845E+02 -0.47301635055E+02 -0.67407819137E+02  0.10739857109E+03  0.00000000000E+00 0. -1.
         11    1    1    2    0    0 -0.10324796810E+02  0.38414671021E+02 -0.35277744034E+02  0.53167730842E+02  0.00000000000E+00 0.  1.
</event>
<event>
 7    1  0.2732144E-009  0.2131309E+03  0.7561462E-02  0.1139110E+00
         -2   -1    0    0    0  501 -0.00000000000E+00  0.00000000000E+00  0.55025986819E+03  0.55025986819E+03  0.00000000000E+00 0. -1.
          2   -1    0    0  501    0  0.00000000000E+00 -0.00000000000E+00 -0.84713509532E+02  0.84713509532E+02  0.00000000000E+00 0.  1.
         25    2    1    2    0    0  0.55779910544E+02 -0.17763901647E+03  0.26120992388E+03  0.34430238649E+03  0.12508593212E+03 0.  0.
          5    1    3    3  502    0  0.87798588081E+02 -0.16141388121E+03  0.18943493063E+03  0.26394336222E+03  0.41800000000E+01 0. -1.
         -5    1    3    3    0  502 -0.32018677537E+02 -0.16225135264E+02  0.71774993251E+02  0.80359024271E+02  0.41800000000E+01 0. -1.
        -11    1    1    2    0    0  0.14589442247E+02  0.10192457311E+03  0.11098440190E+03  0.15139025033E+03  0.00000000000E+00 0. -1.
         11    1    1    2    0    0 -0.70369352791E+02  0.75714443365E+02  0.93352032866E+02  0.13928074090E+03  0.00000000000E+00 0.  1.
</event>
<event>
 7    1  0.2732144E-009  0.7850502E+02  0.7561462E-02  0.1333348E+00
         -2   -1    0    0    0  501 -0.00000000000E+00  0.00000000000E+00  0.47688192687E+03  0.47688192687E+03  0.00000000000E+00 0.  1.
          2   -1    0    0  501    0  0.00000000000E+00 -0.00000000000E+00 -0.64598915716E+02  0.64598915716E+02  0.00000000000E+00 0. -1.
         25    2    1    2    0    0  0.10009310679E+02 -0.25342596959E+02  0.42460146746E+03  0.44348187005E+03  0.12508928559E+03 0.  0.
          5    1    3    3  502    0 -0.41475975832E+02 -0.26164593972E+02  0.34561012666E+03  0.34909694154E+03  0.41800000000E+01 0.  1.
         -5    1    3    3    0  502  0.51485286511E+02  0.82199701320E+00  0.78991340805E+02  0.94384928502E+02  0.41800000000E+01 0.  1.
        -11    1    1    2    0    0 -0.29771733856E+02  0.19243902568E+02  0.32843993899E+02  0.48326099140E+02  0.00000000000E+00 0.  1.
         11    1    1    2    0    0  0.19762423176E+02  0.60986943909E+01 -0.45162450206E+02  0.49672873399E+02  0.00000000000E+00 0. -1.
</event>
<event>
 7    1  0.2732144E-009  0.1871889E+03  0.7561462E-02  0.1161021E+00
         -2   -1    0    0    0  501 -0.00000000000E+00  0.00000000000E+00  0.42267452516E+02  0.42267452516E+02  0.00000000000E+00 0.  1.
          2   -1    0    0  501    0  0.00000000000E+00 -0.00000000000E+00 -0.93195035947E+03  0.93195035947E+03  0.00000000000E+00 0. -1.
         25    2    1    2    0    0  0.14570995086E+03 -0.77195771150E+02 -0.50470528735E+03  0.54549563729E+03  0.12508991308E+03 0.  0.
          5    1    3    3  502    0  0.80708875573E+02 -0.10586227827E+03 -0.28570679355E+03  0.31522466407E+03  0.41800000000E+01 0.  1.
         -5    1    3    3    0  502  0.65001075292E+02  0.28666507118E+02 -0.21899849380E+03  0.23027097322E+03  0.41800000000E+01 0.  1.
        -11    1    1    2    0    0 -0.90696297439E+01  0.19885553484E+02 -0.73399735957E+01  0.23055772237E+02  0.00000000000E+00 0.  1.
         11    1    1    2    0    0 -0.13664032112E+03  0.57310217666E+02 -0.37763764601E+03  0.40566640247E+03  0.00000000000E+00 0. -1.
</event>
<event>
 7    1  0.2732144E-009  0.9876541E+02  0.7561462E-02  0.1282914E+00
         -1   -1    0    0    0  501 -0.00000000000E+00  0.00000000000E+00  0.37781908943E+02  0.37781908943E+02  0.00000000000E+00 0.  1.
          1   -1    0    0  501    0  0.00000000000E+00 -0.00000000000E+00 -0.38730067518E+03  0.38730067518E+03  0.00000000000E+00 0. -1.
         25    2    1    2    0    0  0.30515902117E+02  0.18269633258E+02 -0.12144615562E+03  0.17793566576E+03  0.12508769984E+03 0.  0.
          5    1    3    3  502    0 -0.15464196289E+02  0.46327362596E+02 -0.46372942763E+01  0.49237615602E+02  0.41800000000E+01 0.  1.
         -5    1    3    3    0  502  0.45980098407E+02 -0.28057729337E+02 -0.11680886135E+03  0.12869805016E+03  0.41800000000E+01 0.  1.
        -11    1    1    2    0    0 -0.96708403835E+00  0.34228780608E+02 -0.97743936504E+02  0.10356844016E+03  0.00000000000E+00 0.  1.
         11    1    1    2    0    0 -0.29548818079E+02 -0.52498413867E+02 -0.13032867411E+03  0.14357847820E+03  0.00000000000E+00 0. -1.
</event>
<event>
 7    1  0.2732144E-009  0.9897192E+02  0.7561462E-02  0.1282473E+00
          2   -1    0    0  501    0  0.00000000000E+00  0.00000000000E+00  0.44249087935E+03  0.44249087935E+03  0.00000000000E+00 0. -1.
         -2   -1    0    0    0  501 -0.00000000000E+00 -0.00000000000E+00 -0.39716125343E+02  0.39716125343E+02  0.00000000000E+00 0.  1.
         25    2    1    2    0    0 -0.47034477493E+02 -0.54365532985E+02  0.17796193195E+03  0.22909667833E+03  0.12508791129E+03 0.  0.
          5    1    3    3  502    0 -0.10555498044E+02  0.19309391051E+02 -0.95202963960E+01  0.24338848888E+02  0.41800000000E+01 0.  1.
         -5    1    3    3    0  502 -0.36478979449E+02 -0.73674924036E+02  0.18748222835E+03  0.20475782945E+03  0.41800000000E+01 0.  1.
        -11    1    1    2    0    0  0.12740627099E+02  0.57401722347E+02  0.20526367179E+03  0.21351921755E+03  0.00000000000E+00 0. -1.
         11    1    1    2    0    0  0.34293850394E+02 -0.30361893623E+01  0.19549150275E+02  0.39591108815E+02  0.00000000000E+00 0.  1.
</event>
<event>
 7    1  0.2732144E-009  0.1270726E+03  0.7561462E-02  0.1231865E+00
         -1   -1    0    0    0  501 -0.00000000000E+00  0.00000000000E+00  0.76662130457E+03  0.76662130457E+03  0.00000000000E+00 0.  1.
          1   -1    0    0  501    0  0.00000000000E+00 -0.00000000000E+00 -0.33362233720E+02  0.33362233720E+02  0.00000000000E+00 0. -1.
         25    2    1    2    0    0 -0.95951770877E+02 -0.32239868845E+02  0.54169882218E+03  0.56509419026E+03  0.12509068085E+03 0.  0.
          5    1    3    3  502    0 -0.26210232549E+02 -0.60002318471E+02  0.39333360072E+03  0.39876816368E+03  0.41800000000E+01 0.  1.
         -5    1    3    3    0  502 -0.69741538328E+02  0.27762449626E+02  0.14836522146E+03  0.16632602658E+03  0.41800000000E+01 0.  1.
        -11    1    1    2    0    0  0.68869100982E+01 -0.12054451329E+02 -0.48671907253E+01  0.14711521780E+02  0.00000000000E+00 0. -1.
         11    1    1    2    0    0  0.89064860779E+02  0.44294320173E+02  0.19642743940E+03  0.22017782625E+03  0.00000000000E+00 0.  1.
</event>
<event>
 7    1  0.2732144E-009  0.8732214E+02  0.7561462E-02  0.1309469E+00
         -1   -1    0    0    0  501 -0.00000000000E+00  0.00000000000E+00  0.48539108968E+02  0.48539108968E+02  0.00000000000E+00 0.  1.
          1   -1    0    0  501    0  0.00000000000E+00 -0.00000000000E+00 -0.29465070297E+03  0.29465070297E+03  0.00000000000E+00 0. -1.
         25    2    1    2    0    0 -0.21479854409E+02  0.44157270352E+02 -0.13335570944E+03  0.18932020119E+03  0.12508854730E+03 0.  0.
          5    1    3    3  502    0  0.42832663925E+02  0.29327864529E+02 -0.15771945300E+02  0.54414955621E+02  0.41800000000E+01 0. -1.
         -5    1    3    3    0  502 -0.64312518333E+02  0.14829405824E+02 -0.11758376414E+03  0.13490524557E+03  0.41800000000E+01 0. -1.
        -11    1    1    2    0    0 -0.68166501324E+01 -0.77239626759E+01  0.14911151909E+02  0.18123707394E+02  0.00000000000E+00 0.  1.
         11    1    1    2    0    0  0.28296504541E+02 -0.36433307676E+02 -0.12766703647E+03  0.13574590335E+03  0.00000000000E+00 0. -1.
</event>
<event>
 7    1  0.2732144E-009  0.1672475E+03  0.7561462E-02  0.1180749E+00
         -1   -1    0    0    0  501 -0.00000000000E+00  0.00000000000E+00  0.59779215900E+02  0.59779215900E+02  0.00000000000E+00 0.  1.
          1   -1    0    0  501    0  0.00000000000E+00 -0.00000000000E+00 -0.49189925175E+03  0.49189925175E+03  0.00000000000E+00 0. -1.
         25    2    1    2    0    0 -0.11225239539E+03  0.64877835586E+02 -0.20349192037E+03  0.27178328776E+03  0.12508980786E+03 0.  0.
          5    1    3    3  502    0 -0.45513340297E+00  0.67982979792E+02 -0.72066616777E+02  0.99161294574E+02  0.41800000000E+01 0. -1.
         -5    1    3    3    0  502 -0.11179726199E+03 -0.31051442063E+01 -0.13142530359E+03  0.17262199319E+03  0.41800000000E+01 0. -1.
        -11    1    1    2    0    0  0.30376240281E+02  0.20127778258E+02 -0.94231640974E+02  0.10103190383E+03  0.00000000000E+00 0.  1.
         11    1    1    2    0    0  0.81876155110E+02 -0.85005613844E+02 -0.13439647451E+03  0.17886327605E+03  0.00000000000E+00 0. -1.
</event>
<event>
 7    1  0.2732144E-009  0.1627499E+03  0.7561462E-02  0.1185627E+00
          1   -1    0    0  501    0  0.00000000000E+00  0.00000000000E+00  0.10850658389E+03  0.10850658389E+03  0.00000000000E+00 0. -1.
         -1   -1    0    0    0  501 -0.00000000000E+00 -0.00000000000E+00 -0.28089288190E+03  0.28089288190E+03  0.00000000000E+00 0.  1.
         25    2    1    2    0    0  0.10955750010E+03  0.55597396052E+02 -0.33888693488E+02  0.17857524552E+03  0.12508700368E+03 0.  0.
          5    1    3    3  502    0  0.10435598468E+03 -0.98546451420E+01 -0.40505547769E+02  0.11245202252E+03  0.41800000000E+01 0. -1.
         -5    1    3    3    0  502  0.52015154203E+01  0.65452041194E+02  0.66168542814E+01  0.66123222998E+02  0.41800000000E+01 0. -1.
        -11    1    1    2    0    0 -0.33377006236E+02 -0.69746684138E+02 -0.93097742213E+02  0.12101989133E+03  0.00000000000E+00 0.  1.
         11    1    1    2    0    0 -0.76180493860E+02  0.14149288086E+02 -0.45399862306E+02  0.89804328935E+02  0.00000000000E+00 0. -1.
</event>
<event>
 7    1  0.2732144E-009  0.1131545E+03  0.7561462E-02  0.1254837E+00
         -1   -1    0    0    0  501 -0.00000000000E+00  0.00000000000E+00  0.68171997512E+02  0.68171997512E+02  0.00000000000E+00 0.  1.
          1   -1    0    0  501    0  0.00000000000E+00 -0.00000000000E+00 -0.29094806443E+03  0.29094806443E+03  0.00000000000E+00 0. -1.
         25    2    1    2    0    0  0.50152661722E+02 -0.65779909311E+02 -0.16453537309E+03  0.22262763527E+03  0.12509551967E+03 0.  0.
          5    1    3    3  502    0  0.50992328035E+02 -0.12160508853E+02 -0.16026175197E+03  0.16866949054E+03  0.41800000000E+01 0.  1.
         -5    1    3    3    0  502 -0.83966631306E+00 -0.53619400457E+02 -0.42736211168E+01  0.53958144727E+02  0.41800000000E+01 0.  1.
        -11    1    1    2    0    0  0.36102818533E+01  0.66069320213E+02 -0.48043510721E+02  0.81770215426E+02  0.00000000000E+00 0. -1.
         11    1    1    2    0    0 -0.53762943576E+02 -0.28941090196E+00 -0.10197183108E+02  0.54722211248E+02  0.00000000000E+00 0.  1.
</event>
<event>
 7    1  0.2732144E-009  0.9477703E+02  0.7561462E-02  0.1291679E+00
          2   -1    0    0  501    0  0.00000000000E+00  0.00000000000E+00  0.65359655806E+03  0.65359655806E+03  0.00000000000E+00 0. -1.
         -2   -1    0    0    0  501 -0.00000000000E+00 -0.00000000000E+00 -0.19311595384E+02  0.19311595384E+02  0.00000000000E+00 0.  1.
         25    2    1    2    0    0  0.26698202971E+02  0.13867028178E+02  0.41239336840E+03  0.43199088701E+03  0.12507097044E+03 0.  0.
          5    1    3    3  502    0  0.50217455465E+02 -0.21579291644E+02  0.36103161006E+03  0.36516948740E+03  0.41800000000E+01 0. -1.
         -5    1    3    3    0  502 -0.23519252494E+02  0.35446319822E+02  0.51361758333E+02  0.66821399610E+02  0.41800000000E+01 0. -1.
        -11    1    1    2    0    0 -0.26604217747E+02  0.34532935902E+02  0.12910347832E+03  0.13626450814E+03  0.00000000000E+00 0.  1.
         11    1    1    2    0    0 -0.93985223681E-01 -0.48399964079E+02  0.92788115953E+02  0.10465275829E+03  0.00000000000E+00 0. -1.
</event>
<event>
 7    1  0.2732144E-009  0.8060927E+02  0.7561462E-02  0.1327331E+00
          1   -1    0    0  501    0  0.00000000000E+00  0.00000000000E+00  0.20845085003E+03  0.20845085003E+03  0.00000000000E+00 0. -1.
         -1   -1    0    0    0  501 -0.00000000000E+00 -0.00000000000E+00 -0.62339567623E+02  0.62339567623E+02  0.00000000000E+00 0.  1.
         25    2    1    2    0    0 -0.31318403074E+02 -0.10065996515E+02  0.10523119722E+03  0.16674331491E+03  0.12509021361E+03 0.  0.
          5    1    3    3  502    0 -0.17967893348E+01  0.28531471204E+02  0.11363642827E+03  0.11725179543E+03  0.41800000000E+01 0.  1.
         -5    1    3    3    0  502 -0.29521613739E+02 -0.38597467719E+02 -0.84052310431E+01  0.49491519485E+02  0.41800000000E+01 0.  1.
        -11    1    1    2    0    0  0.51174752113E+02 -0.13315589510E+02  0.49238288899E+02  0.72253506984E+02  0.00000000000E+00 0.  1.
         11    1    1    2    0    0 -0.19856349039E+02  0.23381586025E+02 -0.83582037119E+01  0.31793595762E+02  0.00000000000E+00 0. -1.
</event>
<event>
 7    1  0.2732144E-009  0.1282350E+03  0.7561462E-02  0.1230098E+00
         -1   -1    0    0    0  501 -0.00000000000E+00  0.00000000000E+00  0.61574052903E+02  0.61574052903E+02  0.00000000000E+00 0.  1.
          1   -1    0    0  501    0  0.00000000000E+00 -0.00000000000E+00 -0.36830224216E+03  0.36830224216E+03  0.00000000000E+00 0. -1.
         25    2    1    2    0    0  0.92227197296E+02 -0.18773647094E+02 -0.10374545540E+03  0.18779857181E+03  0.12508748263E+03 0.  0.
          5    1    3    3  502    0 -0.21662511419E+02 -0.27556655034E+02 -0.50717191027E+02  0.61792713999E+02  0.41800000000E+01 0.  1.
         -5    1    3    3    0  502  0.11388970872E+03  0.87830079395E+01 -0.53028264368E+02  0.12600585781E+03  0.41800000000E+01 0.  1.
        -11    1    1    2    0    0 -0.64718754649E+02  0.36343178065E+02 -0.60075758903E+02  0.95490526248E+02  0.00000000000E+00 0.  1.
         11    1    1    2    0    0 -0.27508442646E+02 -0.17569530971E+02 -0.14290697496E+03  0.14658719701E+03  0.00000000000E+00 0. -1.
</event>
<event>
 7    1  0.2732144E-009  0.6382778E+02  0.7561462E-02  0.1382436E+00
         -3   -1    0    0    0  501 -0.00000000000E+00  0.00000000000E+00  0.36910457959E+03  0.36910457959E+03  0.00000000000E+00 0.  1.
          3   -1    0    0  501    0  0.00000000000E+00 -0.00000000000E+00 -0.40535267296E+02  0.40535267296E+02  0.00000000000E+00 0. -1.
         25    2    1    2    0    0  0.22102427310E+02  0.56458133788E+01  0.25386906697E+03  0.28393219573E+03  0.12509035176E+03 0.  0.
          5    1    3    3  502    0  0.21645943449E+02 -0.76816194304E+01 -0.56640692390E+01  0.24023076930E+02  0.41800000000E+01 0.  1.
         -5    1    3    3    0  502  0.45648386101E+00  0.13327432809E+02  0.25953313621E+03  0.25990911880E+03  0.41800000000E+01 0.  1.
        -11    1    1    2    0    0  0.22935897609E+02  0.26465573157E+02  0.58306790162E+02  0.68015907997E+02  0.00000000000E+00 0.  1.
         11    1    1    2    0    0 -0.45038324919E+02 -0.32111386536E+02  0.16393455159E+02  0.57691743160E+02  0.00000000000E+00 0. -1.
</event>
<event>
 7    1  0.2732144E-009  0.1737952E+03  0.7561462E-02  0.1173947E+00
         -1   -1    0    0    0  501 -0.00000000000E+00  0.00000000000E+00  0.80640656419E+03  0.80640656419E+03  0.00000000000E+00 0.  1.
          1   -1    0    0  501    0  0.00000000000E+00 -0.00000000000E+00 -0.47740953548E+02  0.47740953548E+02  0.00000000000E+00 0. -1.
         25    2    1    2    0    0 -0.14147065267E+03 -0.66643897472E+02  0.48535823329E+03  0.52504893748E+03  0.12509363486E+03 0.  0.
          5    1    3    3  502    0 -0.60634129515E+02  0.16188146342E+02  0.71201235945E+02  0.95003379646E+02  0.41800000000E+01 0. -1.
         -5    1    3    3    0  502 -0.80836523153E+02 -0.82832043814E+02  0.41415699735E+03  0.43004555783E+03  0.41800000000E+01 0. -1.
        -11    1    1    2    0    0  0.35364724736E+02 -0.11405229630E+02  0.16866854516E+02  0.40807276310E+02  0.00000000000E+00 0. -1.
         11    1    1    2    0    0  0.10610592793E+03  0.78049127102E+02  0.25644052284E+03  0.28829130396E+03  0.00000000000E+00 0.  1.
</event>
<event>
 7    1  0.2732144E-009  0.1375105E+03  0.7561462E-02  0.1216719E+00
         -2   -1    0    0    0  501 -0.00000000000E+00  0.00000000000E+00  0.32708605983E+02  0.32708605983E+02  0.00000000000E+00 0.  1.
          2   -1    0    0  501    0  0.00000000000E+00 -0.00000000000E+00 -0.66216719400E+03  0.66216719400E+03  0.00000000000E+00 0. -1.
         25    2    1    2    0    0  0.34235896269E+02  0.91883771901E+02 -0.38746610254E+03  0.41879955718E+03  0.12509342244E+03 0.  0.
          5    1    3    3  502    0  0.71406783258E+02  0.55803897588E+02 -0.32559405965E+03  0.33799699372E+03  0.41800000000E+01 0.  1.
         -5    1    3    3    0  502 -0.37170886989E+02  0.36079874313E+02 -0.61872042892E+02  0.80802563459E+02  0.41800000000E+01 0.  1.
        -11    1    1    2    0    0  0.75290796531E+01  0.15432969691E+02 -0.23645242618E+02  0.29222612689E+02  0.00000000000E+00 0.  1.
         11    1    1    2    0    0 -0.41764975922E+02 -0.10731674159E+03 -0.21834724285E+03  0.24685363012E+03  0.00000000000E+00 0. -1.
</event>
<event>
 7    1  0.2732144E-009  0.1091344E+03  0.7561462E-02  0.1262181E+00
         -1   -1    0    0    0  501 -0.00000000000E+00  0.00000000000E+00  0.92103637603E+03  0.92103637603E+03  0.00000000000E+00 0.  1.
          1   -1    0    0  501    0  0.00000000000E+00 -0.00000000000E+00 -0.30794304250E+02  0.30794304250E+02  0.00000000000E+00 0. -1.
         25    2    1    2    0    0 -0.43144447937E+02 -0.17916480957E+02  0.81187210952E+03  0.82277946799E+03  0.12508911646E+03 0.  0.
          5    1    3    3  502    0  0.39240007761E+02  0.17487517299E+01  0.13638519898E+03  0.14199025052E+03  0.41800000000E+01 0.  1.
         -5    1    3    3    0  502 -0.82384455698E+02 -0.19665232687E+02  0.67548691054E+03  0.68078921747E+03  0.41800000000E+01 0.  1.
        -11    1    1    2    0    0 -0.24214105972E+02  0.97923490309E+01  0.48151128919E+02  0.54779049314E+02  0.00000000000E+00 0.  1.
         11    1    1    2    0    0  0.67358553910E+02  0.81241319263E+01  0.30218833343E+02  0.74272162975E+02  0.00000000000E+00 0. -1.
</event>
<event>
 7    1  0.2732144E-009  0.1088567E+03  0.7561462E-02  0.1262702E+00
         -1   -1    0    0    0  501 -0.00000000000E+00  0.00000000000E+00  0.77540048892E+02  0.77540048892E+02  0.00000000000E+00 0.  1.
          1   -1    0    0  501    0  0.00000000000E+00 -0.00000000000E+00 -0.16033369575E+03  0.16033369575E+03  0.00000000000E+00 0. -1.
         25    2    1    2    0    0  0.46181064079E+01  0.25172615586E+02 -0.36068381253E+02  0.13267516198E+03  0.12508710164E+03 0.  0.
          5    1    3    3  502    0  0.19181570535E+02 -0.47224893777E+02 -0.18469059849E+01  0.51176231809E+02  0.41800000000E+01 0. -1.
         -5    1    3    3    0  502 -0.14563464127E+02  0.72397509363E+02 -0.34221475269E+02  0.81498930170E+02  0.41800000000E+01 0. -1.
        -11    1    1    2    0    0  0.30887459640E+02 -0.42945277783E+02 -0.16880109896E+02  0.55527201955E+02  0.00000000000E+00 0.  1.
         11    1    1    2    0    0 -0.35505566048E+02  0.17772662197E+02 -0.29845155707E+02  0.49671380705E+02  0.00000000000E+00 0. -1.
</event>
<event>
 7    1  0.2732144E-009  0.1101062E+03  0.7561462E-02  0.1260373E+00
          3   -1    0    0  501    0  0.00000000000E+00  0.00000000000E+00  0.12094574099E+03  0.12094574099E+03  0.00000000000E+00 0. -1.
         -3   -1    0    0    0  501 -0.00000000000E+00 -0.00000000000E+00 -0.32000245331E+03  0.32000245331E+03  0.00000000000E+00 0.  1.
         25    2    1    2    0    0  0.49754956027E+02  0.89701484187E+02  0.38383094522E+02  0.16625949048E+03  0.12508814618E+03 0.  0.
          5    1    3    3  502    0  0.14239090400E+02  0.34781669959E+02 -0.45915321934E+02  0.59482816417E+02  0.41800000000E+01 0. -1.
         -5    1    3    3    0  502  0.35515865627E+02  0.54919814228E+02  0.84298416456E+02  0.10677667406E+03  0.41800000000E+01 0. -1.
        -11    1    1    2    0    0 -0.60861720360E+02 -0.61378159045E+02 -0.92540737567E+02  0.12663023147E+03  0.00000000000E+00 0. -1.
         11    1    1    2    0    0  0.11106764333E+02 -0.28323325143E+02 -0.14489906928E+03  0.14805847236E+03  0.00000000000E+00 0.  1.
</event>
<event>
 7    1  0.2732144E-009  0.2775075E+03  0.7561462E-02  0.1097058E+00
         -1   -1    0    0    0  501 -0.00000000000E+00  0.00000000000E+00  0.28843383388E+03  0.28843383388E+03  0.00000000000E+00 0.  1.
          1   -1    0    0  501    0  0.00000000000E+00 -0.00000000000E+00 -0.31093828728E+03  0.31093828728E+03  0.00000000000E+00 0. -1.
         25    2    1    2    0    0 -0.89472833041E+02 -0.24907476983E+03 -0.99417675901E+02  0.30916594208E+03  0.12512424483E+03 0.  0.
          5    1    3    3  502    0  0.24015527332E+02 -0.16961051250E+02  0.56261569368E+01  0.30224970710E+02  0.41800000000E+01 0.  1.
         -5    1    3    3    0  502 -0.11348836037E+03 -0.23211371858E+03 -0.10504383284E+03  0.27894097137E+03  0.41800000000E+01 0.  1.
        -11    1    1    2    0    0  0.58093702376E+02  0.11062940175E+03 -0.72677931247E+01  0.12516614401E+03  0.00000000000E+00 0.  1.
         11    1    1    2    0    0  0.31379130665E+02  0.13844536807E+03  0.84181015628E+02  0.16504003507E+03  0.00000000000E+00 0. -1.
</event>
<event>
 7    1  0.2732144E-009  0.1858183E+03  0.7561462E-02  0.1162288E+00
         -1   -1    0    0    0  501 -0.00000000000E+00  0.00000000000E+00  0.60002966834E+03  0.60002966834E+03  0.00000000000E+00 0.  1.
          1   -1    0    0  501    0  0.00000000000E+00 -0.00000000000E+00 -0.80939669796E+02  0.80939669796E+02  0.00000000000E+00 0. -1.
         25    2    1    2    0    0  0.14854838184E+03  0.44601560533E+02  0.43936916848E+03  0.48244037831E+03  0.12509009340E+03 0.  0.
          5    1    3    3  502    0  0.29515936991E+01  0.48958540287E+02  0.15925500988E+03  0.16668917525E+03  0.41800000000E+01 0. -1.
         -5    1    3    3    0  502  0.14559678815E+03 -0.43569797544E+01  0.28011415860E+03  0.31575120307E+03  0.41800000000E+01 0. -1.
        -11    1    1    2    0    0 -0.98526246770E+02 -0.69735235870E+02  0.75529775544E+02  0.14239091059E+03  0.00000000000E+00 0. -1.
         11    1    1    2    0    0 -0.50022135075E+02  0.25133675337E+02  0.41910545162E+01  0.56138049230E+02  0.00000000000E+00 0.  1.
</event>
<event>
 7    1  0.2732144E-009  0.8154722E+02  0.7561462E-02  0.1324717E+00
         -1   -1    0    0    0  501 -0.00000000000E+00  0.00000000000E+00  0.53336952220E+02  0.53336952220E+02  0.00000000000E+00 0.  1.
          1   -1    0    0  501    0  0.00000000000E+00 -0.00000000000E+00 -0.25946305915E+03  0.25946305915E+03  0.00000000000E+00 0. -1.
         25    2    1    2    0    0  0.34375615788E+02  0.34663404069E+02 -0.10681544897E+03  0.17158623890E+03  0.12509621376E+03 0.  0.
          5    1    3    3  502    0  0.42351565828E+02  0.41580838737E+02 -0.13154453751E+03  0.14437471741E+03  0.41800000000E+01 0.  1.
         -5    1    3    3    0  502 -0.79759500402E+01 -0.69174346687E+01  0.24729088540E+02  0.27211521484E+02  0.41800000000E+01 0.  1.
        -11    1    1    2    0    0  0.24809056242E+02 -0.26436109116E+01 -0.55683964554E+02  0.61017881467E+02  0.00000000000E+00 0. -1.
         11    1    1    2    0    0 -0.59184672029E+02 -0.32019793157E+02 -0.43626693402E+02  0.80195891006E+02  0.00000000000E+00 0.  1.
</event>
<event>
 7    1  0.2732144E-009  0.1182835E+03  0.7561462E-02  0.1245956E+00
         -1   -1    0    0    0  501 -0.00000000000E+00  0.00000000000E+00  0.92125377109E+03  0.92125377109E+03  0.00000000000E+00 0.  1.
          1   -1    0    0  501    0  0.00000000000E+00 -0.00000000000E+00 -0.19834361598E+02  0.19834361598E+02  0.00000000000E+00 0. -1.
         25    2    1    2    0    0  0.65225787283E+02  0.36540370674E+02  0.49356710890E+03  0.51463154876E+03  0.12509011943E+03 0.  0.
          5    1    3    3  502    0  0.34542905449E+02 -0.28879735395E+02  0.35897910098E+03  0.36181586308E+03  0.41800000000E+01 0.  1.
         -5    1    3    3    0  502  0.30682881834E+02  0.65420106069E+02  0.13458800791E+03  0.15281568568E+03  0.41800000000E+01 0.  1.
        -11    1    1    2    0    0 -0.16484421328E+02 -0.61877699384E+02  0.28128602272E+03  0.28848294993E+03  0.00000000000E+00 0.  1.
         11    1    1    2    0    0 -0.48741365954E+02  0.25337328710E+02  0.12656627788E+03  0.13797363399E+03  0.00000000000E+00 0. -1.
</event>
<event>
 7    1  0.2732144E-009  0.1949340E+03  0.7561462E-02  0.1154085E+00
          1   -1    0    0  501    0  0.00000000000E+00  0.00000000000E+00  0.80566675450E+03  0.80566675450E+03  0.00000000000E+00 0. -1.
         -1   -1    0    0    0  501 -0.00000000000E+00 -0.00000000000E+00 -0.76127967684E+02  0.76127967684E+02  0.00000000000E+00 0.  1.
         25    2    1    2    0    0 -0.17021592705E+03  0.24037879743E+02  0.12303192170E+03  0.24563335713E+03  0.12509041088E+03 0.  0.
          5    1    3    3  502    0 -0.18757930345E+03  0.79397916954E+01  0.10209835928E+03  0.21375355609E+03  0.41800000000E+01 0. -1.
         -5    1    3    3    0  502  0.17363376396E+02  0.16098088048E+02  0.20933562419E+02  0.31879801038E+02  0.41800000000E+01 0. -1.
        -11    1    1    2    0    0  0.57236476325E+02 -0.30519806251E+02  0.11734035957E+03  0.13407547419E+03  0.00000000000E+00 0.  1.
         11    1    1    2    0    0  0.11297945072E+03  0.64819265078E+01  0.48916650555E+03  0.50208589087E+03  0.00000000000E+00 0. -1.
</event>
<event>
 7    1  0.2732144E-009  0.8286735E+02  0.7561462E-02  0.1321106E+00
          2   -1    0    0  501    0  0.00000000000E+00  0.00000000000E+00  0.16697015641E+04  0.16697015641E+04  0.00000000000E+00 0. -1.
         -2   -1    0    0    0  501 -0.00000000000E+00 -0.00000000000E+00 -0.80158977663E+01  0.80158977663E+01  0.00000000000E+00 0.  1.
         25    2    1    2    0    0 -0.30573882410E+02  0.91591188781E+01  0.11265507175E+04  0.11339238158E+04  0.12509216298E+03 0.  0.
          5    1    3    3  502    0  0.56892833225E+01 -0.20731758338E+02  0.34564377288E+02  0.40918728301E+02  0.41800000000E+01 0.  1.
         -5    1    3    3    0  502 -0.36263165732E+02  0.29890877216E+02  0.10919863402E+04  0.10930050875E+04  0.41800000000E+01 0.  1.
        -11    1    1    2    0    0 -0.66217049927E+00  0.39133878114E+02  0.21564459650E+03  0.21916772319E+03  0.00000000000E+00 0.  1.
         11    1    1    2    0    0  0.31236052909E+02 -0.48292996992E+02  0.31949035226E+03  0.32462592279E+03  0.00000000000E+00 0. -1.
</event>
<event>
 7    1  0.2732144E-009  0.1261095E+03  0.7561462E-02  0.1233345E+00
          2   -1    0    0  501    0  0.00000000000E+00  0.00000000000E+00  0.28435415914E+03  0.28435415914E+03  0.00000000000E+00 0.  1.
         -2   -1    0    0    0  501 -0.00000000000E+00 -0.00000000000E+00 -0.80626732862E+02  0.80626732862E+02  0.00000000000E+00 0. -1.
         25    2    1    2    0    0  0.60898446140E+02 -0.27208304695E+02  0.11999875406E+02  0.14226941786E+03  0.12509067775E+03 0.  0.
          5    1    3    3  502    0  0.86313993091E+02 -0.56113506358E+02  0.79345111576E+01  0.10334050448E+03  0.41800000000E+01 0. -1.
         -5    1    3    3    0  502 -0.25415546952E+02  0.28905201663E+02  0.40653642482E+01  0.38928913374E+02  0.41800000000E+01 0. -1.
        -11    1    1    2    0    0 -0.17703460787E+02 -0.32360141803E+02  0.89083280634E+02  0.96417955744E+02  0.00000000000E+00 0.  1.
         11    1    1    2    0    0 -0.43194985352E+02  0.59568446498E+02  0.10264427024E+03  0.12629351840E+03  0.00000000000E+00 0. -1.
</event>
<event>
 7    1  0.2732144E-009  0.1263774E+03  0.7561462E-02  0.1232932E+00
          2   -1    0    0  501    0  0.00000000000E+00  0.00000000000E+00  0.76284265944E+03  0.76284265944E+03  0.00000000000E+00 0. -1.
         -2   -1    0    0    0  501 -0.00000000000E+00 -0.00000000000E+00 -0.45972511180E+02  0.45972511180E+02  0.00000000000E+00 0.  1.
         25    2    1    2    0    0 -0.97854641939E+02 -0.69243174524E+02  0.57977455172E+03  0.60510799326E+03  0.12508798710E+03 0.  0.
          5    1    3    3  502    0 -0.82918471440E+01 -0.27387629173E+02  0.39014190497E+03  0.39121223827E+03  0.41800000000E+01 0. -1.
         -5    1    3    3    0  502 -0.89562794795E+02 -0.41855545351E+02  0.18963264675E+03  0.21389575499E+03  0.41800000000E+01 0. -1.
        -11    1    1    2    0    0  0.54760279814E+02  0.17371167609E+02  0.12163567566E+03  0.13452019663E+03  0.00000000000E+00 0. -1.
         11    1    1    2    0    0  0.43094362126E+02  0.51872006915E+02  0.15459920881E+02  0.69186980727E+02  0.00000000000E+00 0.  1.
</event>
<event>
 7    1  0.2732144E-009  0.8095507E+02  0.7561462E-02  0.1326363E+00
         -2   -1    0    0    0  501 -0.00000000000E+00  0.00000000000E+00  0.55350235703E+02  0.55350235703E+02  0.00000000000E+00 0.  1.
          2   -1    0    0  501    0  0.00000000000E+00 -0.00000000000E+00 -0.41544828613E+03  0.41544828613E+03  0.00000000000E+00 0. -1.
         25    2    1    2    0    0  0.55352915259E+02  0.23002022370E+02 -0.32927526286E+03  0.35730042898E+03  0.12509340333E+03 0.  0.
          5    1    3    3  502    0  0.48718999007E+01  0.21871693314E+02  0.13321594539E+01  0.22833165043E+02  0.41800000000E+01 0.  1.
         -5    1    3    3    0  502  0.50481015358E+02  0.11303290558E+01 -0.33060742231E+03  0.33446726394E+03  0.41800000000E+01 0.  1.
        -11    1    1    2    0    0 -0.57020253347E+02 -0.41091167882E+02 -0.50630810047E+02  0.86621430926E+02  0.00000000000E+00 0. -1.
         11    1    1    2    0    0  0.16673380880E+01  0.18089145512E+02  0.19808022482E+02  0.26876661927E+02  0.00000000000E+00 0.  1.
</event>
<event>
 7    1  0.2732144E-009  0.1494884E+03  0.7561462E-02  0.1201103E+00
         -2   -1    0    0    0  501 -0.00000000000E+00  0.00000000000E+00  0.59640860213E+02  0.59640860213E+02  0.00000000000E+00 0.  1.
          2   -1    0    0  501    0  0.00000000000E+00 -0.00000000000E+00 -0.67559854423E+03  0.67559854423E+03  0.00000000000E+00 0. -1.
         25    2    1    2    0    0  0.43657811782E+02 -0.11965857503E+03 -0.12000537769E+03  0.21510436598E+03  0.12507764980E+03 0.  0.
          5    1    3    3  502    0  0.39541085050E+02  0.59208140342E+01 -0.68129698680E+02  0.79105509846E+02  0.41800000000E+01 0. -1.
         -5    1    3    3    0  502  0.41167267326E+01 -0.12557938906E+03 -0.51875679006E+02  0.13599885613E+03  0.41800000000E+01 0. -1.
        -11    1    1    2    0    0 -0.32985779730E+02  0.11766868357E+03 -0.49426567282E+03  0.50914883491E+03  0.00000000000E+00 0. -1.
         11    1    1    2    0    0 -0.10672032052E+02  0.19898914587E+01 -0.16866335123E+01  0.10986203564E+02  0.00000000000E+00 0.  1.
</event>
<event>
 7    1  0.2732144E-009  0.9233139E+02  0.7561462E-02  0.1297302E+00
          1   -1    0    0  501    0  0.00000000000E+00  0.00000000000E+00  0.68200522822E+02  0.68200522822E+02  0.00000000000E+00 0.  1.
         -1   -1    0    0    0  501 -0.00000000000E+00 -0.00000000000E+00 -0.38862102383E+03  0.38862102383E+03  0.00000000000E+00 0. -1.
         25    2    1    2    0    0  0.26468527514E+02 -0.77716733761E+02 -0.39597071484E+02  0.15477555258E+03  0.12508824866E+03 0.  0.
          5    1    3    3  502    0 -0.43864415680E+01 -0.48614291739E+02 -0.81445874382E+02  0.95044689934E+02  0.41800000000E+01 0. -1.
         -5    1    3    3    0  502  0.30854969082E+02 -0.29102442021E+02  0.41848802898E+02  0.59730862647E+02  0.41800000000E+01 0. -1.
        -11    1    1    2    0    0 -0.20964427287E+02  0.69711336010E+01 -0.14487998230E+02  0.26419803327E+02  0.00000000000E+00 0.  1.
         11    1    1    2    0    0 -0.55041002270E+01  0.70745600160E+02 -0.26633543129E+03  0.27562619074E+03  0.00000000000E+00 0. -1.
</event>
<event>
 7    1  0.2732144E-009  0.3924110E+03  0.7561462E-02  0.1046440E+00
         -2   -1    0    0    0  501 -0.00000000000E+00  0.00000000000E+00  0.66215004465E+02  0.66215004465E+02  0.00000000000E+00 0.  1.
          2   -1    0    0  501    0  0.00000000000E+00 -0.00000000000E+00 -0.40797369527E+04  0.40797369527E+04  0.00000000000E+00 0. -1.
         25    2    1    2    0    0 -0.38223256009E+03  0.82461404197E+02 -0.33171350049E+04  0.33424442953E+04  0.12509042156E+03 0.  0.
          5    1    3    3  502    0 -0.21560239147E+03  0.69227996868E+02 -0.14191846414E+04  0.14371427993E+04  0.41800000000E+01 0. -1.
         -5    1    3    3    0  502 -0.16663016862E+03  0.13233407330E+02 -0.18979503635E+04  0.19053014960E+04  0.41800000000E+01 0. -1.
        -11    1    1    2    0    0  0.15307976411E+03 -0.37590881524E+02 -0.19759916362E+03  0.25276850677E+03  0.00000000000E+00 0.  1.
         11    1    1    2    0    0  0.22915279598E+03 -0.44870522674E+02 -0.49878777977E+03  0.55073915510E+03  0.00000000000E+00 0. -1.
</event>
<event>
 7    1  0.2732144E-009  0.1915574E+03  0.7561462E-02  0.1157064E+00
          1   -1    0    0  501    0  0.00000000000E+00  0.00000000000E+00  0.39966403014E+03  0.39966403014E+03  0.00000000000E+00 0. -1.
         -1   -1    0    0    0  501 -0.00000000000E+00 -0.00000000000E+00 -0.11810805290E+03  0.11810805290E+03  0.00000000000E+00 0.  1.
         25    2    1    2    0    0  0.32538214610E+02 -0.18394892895E+03  0.12499329213E+03  0.25722831046E+03  0.12508851566E+03 0.  0.
          5    1    3    3  502    0  0.26035727762E+02 -0.47115264610E+02 -0.20126161312E+02  0.57621541532E+02  0.41800000000E+01 0. -1.
         -5    1    3    3    0  502  0.65024868482E+01 -0.13683366434E+03  0.14511945345E+03  0.19960676892E+03  0.41800000000E+01 0. -1.
        -11    1    1    2    0    0 -0.94422338829E+01  0.15381124370E+03  0.76741761486E+02  0.17215212002E+03  0.00000000000E+00 0.  1.
         11    1    1    2    0    0 -0.23095980727E+02  0.30137685247E+02  0.79820923620E+02  0.88391652577E+02  0.00000000000E+00 0. -1.
</event>
<event>
 7    1  0.2732144E-009  0.7780561E+02  0.7561462E-02  0.1335397E+00
         -3   -1    0    0    0  501 -0.00000000000E+00  0.00000000000E+00  0.25245363609E+03  0.25245363609E+03  0.00000000000E+00 0.  1.
          3   -1    0    0  501    0  0.00000000000E+00 -0.00000000000E+00 -0.71115248174E+02  0.71115248174E+02  0.00000000000E+00 0. -1.
         25    2    1    2    0    0  0.50666245490E+02  0.26555426227E+02  0.16387529507E+03  0.21395984853E+03  0.12510573670E+03 0.  0.
          5    1    3    3  502    0  0.46273859663E+02  0.30114033178E+02  0.18425888180E+03  0.19239785083E+03  0.41800000000E+01 0. -1.
         -5    1    3    3    0  502  0.43923858278E+01 -0.35586069509E+01 -0.20383586732E+02  0.21561997698E+02  0.41800000000E+01 0. -1.
        -11    1    1    2    0    0  0.19334804673E+02 -0.64342784216E+01 -0.19260470053E+02  0.28039263849E+02  0.00000000000E+00 0. -1.
         11    1    1    2    0    0 -0.70001050163E+02 -0.20121147805E+02  0.36723562896E+02  0.81569771881E+02  0.00000000000E+00 0.  1.
</event>
<event>
 7    1  0.3423790E-009  0.9135676E+02  0.7561462E-02  0.1299599E+00
         -1   -1    0    0    0  501 -0.00000000000E+00  0.00000000000E+00  0.87665709641E+01  0.87665709641E+01  0.00000000000E+00 0.  1.
          1   -1    0    0  501    0  0.00000000000E+00 -0.00000000000E+00 -0.15561234978E+04  0.15561234978E+04  0.00000000000E+00 0. -1.
         25    2    1    2    0    0 -0.14801564622E+02 -0.24677996583E+02 -0.10877967893E+04  0.10953438522E+04  0.12509280509E+03 0.  0.
          5    1    3    3  502    0  0.22005271083E+02  0.19023602690E+02 -0.69769983611E+02  0.75706356588E+02  0.41800000000E+01 0.  1.
         -5    1    3    3    0  502 -0.36806835705E+02 -0.43701599273E+02 -0.10180268057E+04  0.10196374956E+04  0.41800000000E+01 0.  1.
        -11    1    1    2    0    0 -0.37973018293E+02  0.47136167028E+00 -0.16433420656E+03  0.16866506380E+03  0.00000000000E+00 0.  1.
         11    1    1    2    0    0  0.52774582915E+02  0.24206634913E+02 -0.29522593091E+03  0.30088115271E+03  0.00000000000E+00 0. -1.
</event>
<event>
 7    1  0.2732144E-009  0.1148260E+03  0.7561462E-02  0.1251885E+00
         -2   -1    0    0    0  501 -0.00000000000E+00  0.00000000000E+00  0.18703564634E+03  0.18703564634E+03  0.00000000000E+00 0.  1.
          2   -1    0    0  501    0  0.00000000000E+00 -0.00000000000E+00 -0.91988175126E+02  0.91988175126E+02  0.00000000000E+00 0. -1.
         25    2    1    2    0    0  0.42329270467E+02 -0.39990453496E+02  0.10559041208E+03  0.17375330749E+03  0.12509945336E+03 0.  0.
          5    1    3    3  502    0  0.68873583334E+02 -0.67947010730E+02  0.89180173509E+02  0.13164703755E+03  0.41800000000E+01 0.  1.
         -5    1    3    3    0  502 -0.26544312867E+02  0.27956557234E+02  0.16410238570E+02  0.42106269935E+02  0.41800000000E+01 0.  1.
        -11    1    1    2    0    0 -0.48403630154E+02 -0.49780565500E+01  0.17750443481E+02  0.51795469907E+02  0.00000000000E+00 0. -1.
         11    1    1    2    0    0  0.60743596877E+01  0.44968510046E+02 -0.28293384343E+02  0.53475044077E+02  0.00000000000E+00 0.  1.
</event>
<event>
 7    1  0.2732144E-009  0.9583142E+02  0.7561462E-02  0.1289314E+00
          2   -1    0    0  501    0  0.00000000000E+00  0.00000000000E+00  0.13803721180E+03  0.13803721180E+03  0.00000000000E+00 0.  1.
         -2   -1    0    0    0  501 -0.00000000000E+00 -0.00000000000E+00 -0.14690509521E+03  0.14690509521E+03  0.00000000000E+00 0. -1.
         25    2    1    2    0    0 -0.21301400735E+02  0.35847834881E+02 -0.86725987724E+02  0.15782302821E+03  0.12509154387E+03 0.  0.
          5    1    3    3  502    0 -0.61233770416E+02  0.73186141826E+01 -0.89181224179E+02  0.10850760295E+03  0.41800000000E+01 0. -1.
         -5    1    3    3    0  502  0.39932369680E+02  0.28529220698E+02  0.24552364549E+01  0.49315425254E+02  0.41800000000E+01 0. -1.
        -11    1    1    2    0    0 -0.16777361510E+02  0.11123705650E+02  0.61161396760E+02  0.64388920943E+02  0.00000000000E+00 0.  1.
         11    1    1    2    0    0  0.38078762245E+02 -0.46971540531E+02  0.16696707546E+02  0.62730357857E+02  0.00000000000E+00 0. -1.
</event>
<event>
 7    1  0.2732144E-009  0.9592762E+02  0.7561462E-02  0.1289100E+00
         -2   -1    0    0    0  501 -0.00000000000E+00  0.00000000000E+00  0.36082329564E+02  0.36082329564E+02  0.00000000000E+00 0.  1.
          2   -1    0    0  501    0  0.00000000000E+00 -0.00000000000E+00 -0.38144939036E+03  0.38144939036E+03  0.00000000000E+00 0. -1.
         25    2    1    2    0    0  0.21550087192E+02  0.40307411111E+02 -0.19083920282E+03  0.23271515825E+03  0.12509056679E+03 0.  0.
          5    1    3    3  502    0  0.56495375893E+02  0.33858908244E+02 -0.38875288487E+02  0.76595780691E+02  0.41800000000E+01 0. -1.
         -5    1    3    3    0  502 -0.34945288700E+02  0.64485028670E+01 -0.15196391433E+03  0.15611937756E+03  0.41800000000E+01 0. -1.
        -11    1    1    2    0    0 -0.41342457565E+02  0.40149821501E+01 -0.11482422060E+03  0.12210618541E+03  0.00000000000E+00 0. -1.
         11    1    1    2    0    0  0.19792370373E+02 -0.44322393261E+02 -0.39703637373E+02  0.62710376255E+02  0.00000000000E+00 0.  1.
</event>
<event>
 7    1  0.2732144E-009  0.1183992E+03  0.7561462E-02  0.1245761E+00
          3   -1    0    0  501    0  0.00000000000E+00  0.00000000000E+00  0.70060500317E+02  0.70060500317E+02  0.00000000000E+00 0. -1.
         -3   -1    0    0    0  501 -0.00000000000E+00 -0.00000000000E+00 -0.21437975189E+03  0.21437975189E+03  0.00000000000E+00 0.  1.
         25    2    1    2    0    0 -0.40072587118E+02 -0.30644283413E+02 -0.61619915555E+02  0.14829315676E+03  0.12509581130E+03 0.  0.
          5    1    3    3  502    0 -0.52964427023E+02  0.36174204563E+02 -0.43940695796E+02  0.77859236785E+02  0.41800000000E+01 0. -1.
         -5    1    3    3    0  502  0.12891839906E+02 -0.66818487976E+02 -0.17679219759E+02  0.70433919973E+02  0.41800000000E+01 0. -1.
        -11    1    1    2    0    0  0.50302141616E+02 -0.18914617283E+02 -0.60403103879E+02  0.80849261941E+02  0.00000000000E+00 0.  1.
         11    1    1    2    0    0 -0.10229554499E+02  0.49558900696E+02 -0.22296232144E+02  0.55297833513E+02  0.00000000000E+00 0. -1.
</event>
<event>
 7    1  0.2732144E-009  0.2022629E+03  0.7561462E-02  0.1147844E+00
         -1   -1    0    0    0  501 -0.00000000000E+00  0.00000000000E+00  0.11691528277E+03  0.11691528277E+03  0.00000000000E+00 0.  1.
          1   -1    0    0  501    0  0.00000000000E+00 -0.00000000000E+00 -0.42773374041E+03  0.42773374041E+03  0.00000000000E+00 0. -1.
         25    2    1    2    0    0 -0.15875790605E+03  0.73943987147E+02 -0.56011377871E+02  0.22238765338E+03  0.12508880028E+03 0.  0.
          5    1    3    3  502    0  0.40462215028E+01  0.40629157122E+02  0.12031058712E+02  0.42770539986E+02  0.41800000000E+01 0.  1.
         -5    1    3    3    0  502 -0.16280412755E+03  0.33314830025E+02 -0.68042436584E+02  0.17961711339E+03  0.41800000000E+01 0.  1.
        -11    1    1    2    0    0  0.65433350909E+02 -0.80450768069E+02 -0.13055033280E+03  0.16672503977E+03  0.00000000000E+00 0.  1.
         11    1    1    2    0    0  0.93324555140E+02  0.65067809223E+01 -0.12425674697E+03  0.15553633003E+03  0.00000000000E+00 0. -1.
</event>
<event>
 7    1  0.2732144E-009  0.6660863E+02  0.7561462E-02  0.1372021E+00
          1   -1    0    0  501    0  0.00000000000E+00  0.00000000000E+00  0.49669994049E+03  0.49669994049E+03  0.00000000000E+00 0. -1.
         -1   -1    0    0    0  501 -0.00000000000E+00 -0.00000000000E+00 -0.26428711810E+02  0.26428711810E+02  0.00000000000E+00 0.  1.
         25    2    1    2    0    0  0.28970510491E+02 -0.64515045882E+01  0.21381566638E+03  0.24949150835E+03  0.12509181092E+03 0.  0.
          5    1    3    3  502    0  0.20607100598E+02  0.11716061167E+02 -0.90318588156E+01  0.25709250436E+02  0.41800000000E+01 0.  1.
         -5    1    3    3    0  502  0.83634098932E+01 -0.18167565755E+02  0.22284752520E+03  0.22378225791E+03  0.41800000000E+01 0.  1.
        -11    1    1    2    0    0  0.58639604970E+01 -0.34475131955E+02  0.15422806710E+03  0.15814302842E+03  0.00000000000E+00 0. -1.
         11    1    1    2    0    0 -0.34834470988E+02  0.40926636543E+02  0.10222749520E+03  0.11549411553E+03  0.00000000000E+00 0.  1.
</event>
<event>
 7    1  0.2732144E-009  0.2426563E+03  0.7561462E-02  0.1118036E+00
          1   -1    0    0  501    0  0.00000000000E+00  0.00000000000E+00  0.10330772786E+04  0.10330772786E+04  0.00000000000E+00 0.  1.
         -1   -1    0    0    0  501 -0.00000000000E+00 -0.00000000000E+00 -0.66632742248E+02  0.66632742248E+02  0.00000000000E+00 0. -1.
         25    2    1    2    0    0 -0.19483253554E+03 -0.11864532448E+03  0.35017638382E+03  0.43624087750E+03  0.12508466529E+03 0.  0.
          5    1    3    3  502    0 -0.13450959640E+03 -0.14370555725E+02  0.14554454078E+03  0.19874614499E+03  0.41800000000E+01 0.  1.
         -5    1    3    3    0  502 -0.60322939132E+02 -0.10427476876E+03  0.20463184304E+03  0.23749473252E+03  0.41800000000E+01 0.  1.
        -11    1    1    2    0    0  0.16989641412E+03  0.11245188074E+03  0.59850516140E+03  0.63223306244E+03  0.00000000000E+00 0.  1.
         11    1    1    2    0    0  0.24936121412E+02  0.61934437447E+01  0.17762991113E+02  0.31236080897E+02  0.00000000000E+00 0. -1.
</event>
<event>
 7    1  0.2732144E-009  0.2274400E+03  0.7561462E-02  0.1128455E+00
         -2   -1    0    0    0  501 -0.00000000000E+00  0.00000000000E+00  0.22945449699E+02  0.22945449699E+02  0.00000000000E+00 0.  1.
          2   -1    0    0  501    0  0.00000000000E+00 -0.00000000000E+00 -0.28362285706E+04  0.28362285706E+04  0.00000000000E+00 0. -1.
         25    2    1    2    0    0  0.20981450204E+03 -0.47211217075E+02 -0.19164520066E+04  0.19325342028E+04  0.12509647039E+03 0.  0.
          5    1    3    3  502    0  0.61200411934E+02  0.26990855385E+02 -0.29130631049E+03  0.29891610132E+03  0.41800000000E+01 0. -1.
         -5    1    3    3    0  502  0.14861409011E+03 -0.74202072460E+02 -0.16251456961E+04  0.16336181015E+04  0.41800000000E+01 0. -1.
        -11    1    1    2    0    0 -0.12248790478E+03  0.54509539083E+02 -0.67384054438E+03  0.68704851060E+03  0.00000000000E+00 0. -1.
         11    1    1    2    0    0 -0.87326597257E+02 -0.72983220080E+01 -0.22299056993E+03  0.23959130696E+03  0.00000000000E+00 0.  1.
</event>
<event>
 7    1  0.2732144E-009  0.9913952E+02  0.7561462E-02  0.1282116E+00
          1   -1    0    0  501    0  0.00000000000E+00  0.00000000000E+00  0.45073048038E+03  0.45073048038E+03  0.00000000000E+00 0. -1.
         -1   -1    0    0    0  501 -0.00000000000E+00 -0.00000000000E+00 -0.45468801215E+02  0.45468801215E+02  0.00000000000E+00 0.  1.
         25    2    1    2    0    0  0.12466303712E+02 -0.60885742702E+02  0.33649703020E+03  0.36433312164E+03  0.12508353128E+03 0.  0.
          5    1    3    3  502    0  0.20656480242E+02  0.32406302223E+02  0.52035724590E+02  0.64823202893E+02  0.41800000000E+01 0.  1.
         -5    1    3    3    0  502 -0.81901765297E+01 -0.93292044924E+02  0.28446130561E+03  0.29950991875E+03  0.41800000000E+01 0.  1.
        -11    1    1    2    0    0  0.61952786552E+01  0.19945000433E+02  0.82278029935E+02  0.84887329620E+02  0.00000000000E+00 0. -1.
         11    1    1    2    0    0 -0.18661582367E+02  0.40940742268E+02 -0.13513380976E+02  0.46978830332E+02  0.00000000000E+00 0.  1.
</event>
<event>
 7    1  0.2732144E-009  0.1777423E+03  0.7561462E-02  0.1170006E+00
         -1   -1    0    0    0  501 -0.00000000000E+00  0.00000000000E+00  0.26119065422E+02  0.26119065422E+02  0.00000000000E+00 0.  1.
          1   -1    0    0  501    0  0.00000000000E+00 -0.00000000000E+00 -0.15958371530E+04  0.15958371530E+04  0.00000000000E+00 0. -1.
         25    2    1    2    0    0 -0.16025681300E+03 -0.18925933592E+02 -0.57704903909E+03  0.61210543551E+03  0.12508810331E+03 0.  0.
          5    1    3    3  502    0 -0.61153638233E+02 -0.33781755518E+02 -0.41979149827E+03  0.42558588897E+03  0.41800000000E+01 0. -1.
         -5    1    3    3    0  502 -0.99103174769E+02  0.14855821927E+02 -0.15725754082E+03  0.18651954653E+03  0.41800000000E+01 0. -1.
        -11    1    1    2    0    0  0.25038889383E+02  0.41146911102E+02 -0.23404556834E+03  0.23895050185E+03  0.00000000000E+00 0. -1.
         11    1    1    2    0    0  0.13521792362E+03 -0.22220977511E+02 -0.75862348015E+03  0.77090028106E+03  0.00000000000E+00 0.  1.
</event>
<event>
 7    1  0.3988086E-009  0.1115602E+03  0.7561462E-02  0.1257708E+00
          1   -1    0    0  501    0  0.00000000000E+00  0.00000000000E+00  0.88737128265E+03  0.88737128265E+03  0.00000000000E+00 0. -1.
         -1   -1    0    0    0  501 -0.00000000000E+00 -0.00000000000E+00 -0.20768802055E+02  0.20768802055E+02  0.00000000000E+00 0.  1.
         25    2    1    2    0    0 -0.38315368713E+02 -0.66268939095E+02  0.56346823773E+03  0.58223963103E+03  0.12508754234E+03 0.  0.
          5    1    3    3  502    0 -0.47582515473E+01  0.36794699758E+02  0.17316457418E+03  0.17714382021E+03  0.41800000000E+01 0.  1.
         -5    1    3    3    0  502 -0.33557117166E+02 -0.10306363885E+03  0.39030366354E+03  0.40509581082E+03  0.41800000000E+01 0.  1.
        -11    1    1    2    0    0  0.97089860723E+01  0.27287483860E+02  0.12969071877E+02  0.31734334896E+02  0.00000000000E+00 0.  1.
         11    1    1    2    0    0  0.28606382641E+02  0.38981455235E+02  0.29016517099E+03  0.29416611878E+03  0.00000000000E+00 0. -1.
</event>
<event>
 7    1  0.2732144E-009  0.1520663E+03  0.7561462E-02  0.1197957E+00
          4   -1    0    0  501    0  0.00000000000E+00  0.00000000000E+00  0.89030633103E+03  0.89030633103E+03  0.00000000000E+00 0. -1.
         -4   -1    0    0    0  501 -0.00000000000E+00 -0.00000000000E+00 -0.27981395248E+02  0.27981395248E+02  0.00000000000E+00 0.  1.
         25    2    1    2    0    0 -0.44204249920E+02  0.99655072987E+02  0.37601237707E+03  0.41099584265E+03  0.12508847143E+03 0.  0.
          5    1    3    3  502    0 -0.84663283412E+02  0.54468645192E+02  0.18659825342E+03  0.21206387115E+03  0.41800000000E+01 0. -1.
         -5    1    3    3    0  502  0.40459033492E+02  0.45186427795E+02  0.18941412366E+03  0.19893197151E+03  0.41800000000E+01 0. -1.
        -11    1    1    2    0    0  0.67535540941E+02 -0.39928047409E+02  0.22725936258E+03  0.24042070656E+03  0.00000000000E+00 0.  1.
         11    1    1    2    0    0 -0.23331291022E+02 -0.59727025578E+02  0.25905319612E+03  0.26687117706E+03  0.00000000000E+00 0. -1.
</event>
<event>
 7    1  0.2732144E-009  0.9671757E+02  0.7561462E-02  0.1287354E+00
         -2   -1    0    0    0  501 -0.00000000000E+00  0.00000000000E+00  0.20784519212E+02  0.20784519212E+02  0.00000000000E+00 0.  1.
          2   -1    0    0  501    0  0.00000000000E+00 -0.00000000000E+00 -0.13877438712E+04  0.13877438712E+04  0.00000000000E+00 0. -1.
         25    2    1    2    0    0  0.32176072706E+02  0.63896659673E+02 -0.12497041217E+04  0.12579848496E+04  0.12508959650E+03 0.  0.
          5    1    3    3  502    0  0.39118930107E+01 -0.24536421306E+02 -0.70201316763E+03  0.70246515843E+03  0.41800000000E+01 0. -1.
         -5    1    3    3    0  502  0.28264179695E+02  0.88433080979E+02 -0.54769095408E+03  0.55551969115E+03  0.41800000000E+01 0. -1.
        -11    1    1    2    0    0 -0.28227400564E+02 -0.30046717025E+02 -0.10744119250E+03  0.11507910841E+03  0.00000000000E+00 0. -1.
         11    1    1    2    0    0 -0.39486721419E+01 -0.33849942647E+02 -0.98140377509E+01  0.35464432406E+02  0.00000000000E+00 0.  1.
</event>
<event>
 7    1  0.2732144E-009  0.1112577E+03  0.7561462E-02  0.1258258E+00
          2   -1    0    0  501    0  0.00000000000E+00  0.00000000000E+00  0.11298362383E+04  0.11298362383E+04  0.00000000000E+00 0. -1.
         -2   -1    0    0    0  501 -0.00000000000E+00 -0.00000000000E+00 -0.11859037424E+02  0.11859037424E+02  0.00000000000E+00 0.  1.
         25    2    1    2    0    0  0.84654399288E+01 -0.43672696786E+02  0.61818666490E+03  0.63227892371E+03  0.12507164586E+03 0.  0.
          5    1    3    3  502    0  0.27058712582E+02 -0.79309410511E+02  0.29916401074E+03  0.31070683006E+03  0.41800000000E+01 0. -1.
         -5    1    3    3    0  502 -0.18593272654E+02  0.35636713725E+02  0.31902265415E+03  0.32157209365E+03  0.41800000000E+01 0. -1.
        -11    1    1    2    0    0 -0.42040099249E+02 -0.13207752297E+01  0.23589523646E+03  0.23961568600E+03  0.00000000000E+00 0.  1.
         11    1    1    2    0    0  0.33574659321E+02  0.44993472015E+02  0.26389529950E+03  0.26980066599E+03  0.00000000000E+00 0. -1.
</event>
<event>
 7    1  0.2732144E-009  0.9675131E+02  0.7561462E-02  0.1287280E+00
         -1   -1    0    0    0  501 -0.00000000000E+00  0.00000000000E+00  0.80845953498E+02  0.80845953498E+02  0.00000000000E+00 0.  1.
          1   -1    0    0  501    0  0.00000000000E+00 -0.00000000000E+00 -0.15814696379E+03  0.15814696379E+03  0.00000000000E+00 0. -1.
         25    2    1    2    0    0  0.50991374514E+01 -0.30405169048E+02 -0.30212797453E+02  0.13233393289E+03  0.12509588785E+03 0.  0.
          5    1    3    3  502    0  0.44640511015E+02  0.20269851374E+02  0.17447057856E+02  0.52206458664E+02  0.41800000000E+01 0. -1.
         -5    1    3    3    0  502 -0.39541373563E+02 -0.50675020422E+02 -0.47659855309E+02  0.80127474228E+02  0.41800000000E+01 0. -1.
        -11    1    1    2    0    0  0.25009881410E+02 -0.12110781224E+02  0.98510242053E+01  0.29482331453E+02  0.00000000000E+00 0.  1.
         11    1    1    2    0    0 -0.30109018862E+02  0.42515950272E+02 -0.56939237041E+02  0.77176652940E+02  0.00000000000E+00 0. -1.
</event>
<event>
 7    1  0.2732144E-009  0.7731109E+02  0.7561462E-02  0.1336860E+00
          4   -1    0    0  501    0  0.00000000000E+00  0.00000000000E+00  0.58701551159E+02  0.58701551159E+02  0.00000000000E+00 0. -1.
         -4   -1    0    0    0  501 -0.00000000000E+00 -0.00000000000E+00 -0.19088411145E+03  0.19088411145E+03  0.00000000000E+00 0.  1.
         25    2    1    2    0    0 -0.82406249785E+01  0.35179554632E+02 -0.74944687301E+02  0.15023341264E+03  0.12509141919E+03 0.  0.
          5    1    3    3  502    0  0.23699415679E+02  0.33381884404E+02 -0.10080790715E+03  0.10888397060E+03  0.41800000000E+01 0. -1.
         -5    1    3    3    0  502 -0.31940040658E+02  0.17976702280E+01  0.25863219852E+02  0.41349442035E+02  0.41800000000E+01 0. -1.
        -11    1    1    2    0    0 -0.21612125913E+02 -0.44884789640E+02 -0.35164077903E+02  0.60977378611E+02  0.00000000000E+00 0.  1.
         11    1    1    2    0    0  0.29852750891E+02  0.97052350080E+01 -0.22073795090E+02  0.38374871361E+02  0.00000000000E+00 0. -1.
</event>
<event>
 7    1  0.2732144E-009  0.1048661E+03  0.7561462E-02  0.1270384E+00
         -2   -1    0    0    0  501 -0.00000000000E+00  0.00000000000E+00  0.68103866723E+02  0.68103866723E+02  0.00000000000E+00 0.  1.
          2   -1    0    0  501    0  0.00000000000E+00 -0.00000000000E+00 -0.27435043915E+03  0.27435043915E+03  0.00000000000E+00 0. -1.
         25    2    1    2    0    0  0.70023807309E+02 -0.14472164802E+02 -0.16601379938E+03  0.21981418552E+03  0.12507964433E+03 0.  0.
          5    1    3    3  502    0  0.46882214999E+02 -0.38107620229E+02 -0.17508332728E+03  0.18526137399E+03  0.41800000000E+01 0. -1.
         -5    1    3    3    0  502  0.23141592310E+02  0.23635455428E+02  0.90695278990E+01  0.34552811524E+02  0.41800000000E+01 0. -1.
        -11    1    1    2    0    0  0.89871641339E+00  0.40330658955E+02 -0.12854203879E+02  0.42339110764E+02  0.00000000000E+00 0. -1.
         11    1    1    2    0    0 -0.70922523723E+02 -0.25858494154E+02 -0.27378569162E+02  0.80301009585E+02  0.00000000000E+00 0.  1.
</event>
<event>
 7    1  0.2732144E-009  0.1288686E+03  0.7561462E-02  0.1229144E+00
         -2   -1    0    0    0  501 -0.00000000000E+00  0.00000000000E+00  0.94742278521E+02  0.94742278521E+02  0.00000000000E+00 0.  1.
          2   -1    0    0  501    0  0.00000000000E+00 -0.00000000000E+00 -0.18924568471E+03  0.18924568471E+03  0.00000000000E+00 0. -1.
         25    2    1    2    0    0  0.76274548665E+01 -0.75952366264E+02 -0.32192022916E+02  0.15004060597E+03  0.12509563178E+03 0.  0.
          5    1    3    3  502    0  0.16747822359E+02 -0.10959163340E+03 -0.19097951061E+02  0.11257450777E+03  0.41800000000E+01 0.  1.
         -5    1    3    3    0  502 -0.91203674926E+01  0.33639267135E+02 -0.13094071855E+02  0.37466098200E+02  0.41800000000E+01 0.  1.
        -11    1    1    2    0    0 -0.44104382379E+02  0.51360496725E+02 -0.59051903903E+02  0.89834428386E+02  0.00000000000E+00 0. -1.
         11    1    1    2    0    0  0.36476927513E+02  0.24591869539E+02 -0.32594793703E+01  0.44112928875E+02  0.00000000000E+00 0.  1.
</event>
<event>
 7    1  0.2732144E-009  0.1769660E+03  0.7561462E-02  0.1170772E+00
          3   -1    0    0  501    0  0.00000000000E+00  0.00000000000E+00  0.16772616634E+03  0.16772616634E+03  0.00000000000E+00 0. -1.
         -3   -1    0    0    0  501 -0.00000000000E+00 -0.00000000000E+00 -0.22025444198E+03  0.22025444198E+03  0.00000000000E+00 0.  1.
         25    2    1    2    0    0 -0.60646799096E+02 -0.14448340659E+03 -0.39395516285E+02  0.20433510502E+03  0.12508932577E+03 0.  0.
          5    1    3    3  502    0 -0.73133346277E+02 -0.72543471406E+02 -0.70463773777E+02  0.12487456665E+03  0.41800000000E+01 0. -1.
         -5    1    3    3    0  502  0.12486547181E+02 -0.71939935181E+02  0.31068257492E+02  0.79460538369E+02  0.41800000000E+01 0. -1.
        -11    1    1    2    0    0 -0.94662774767E+01  0.85660309263E+02  0.15887930123E+02  0.87634041992E+02  0.00000000000E+00 0.  1.
         11    1    1    2    0    0  0.70113076573E+02  0.58823097324E+02 -0.29020689479E+02  0.96011461311E+02  0.00000000000E+00 0. -1.
</event>
<event>
 7    1  0.2732144E-009  0.2747010E+03  0.7561462E-02  0.1098619E+00
          2   -1    0    0  501    0  0.00000000000E+00  0.00000000000E+00  0.21032055733E+04  0.21032055733E+04  0.00000000000E+00 0.  1.
         -2   -1    0    0    0  501 -0.00000000000E+00 -0.00000000000E+00 -0.52105896999E+02  0.52105896999E+02  0.00000000000E+00 0. -1.
         25    2    1    2    0    0 -0.75753789037E+02  0.21327161321E+03  0.42653905004E+03  0.49880524011E+03  0.12509072228E+03 0.  0.
          5    1    3    3  502    0 -0.40352938335E+02  0.52479819201E+02  0.24441968130E+03  0.25326062478E+03  0.41800000000E+01 0. -1.
         -5    1    3    3    0  502 -0.35400850703E+02  0.16079179400E+03  0.18211936874E+03  0.24554461534E+03  0.41800000000E+01 0. -1.
        -11    1    1    2    0    0  0.11539113524E+03 -0.15214789285E+02  0.45610122996E+03  0.47071746927E+03  0.00000000000E+00 0. -1.
         11    1    1    2    0    0 -0.39637346205E+02 -0.19805682392E+03  0.11684593963E+04  0.11857887610E+04  0.00000000000E+00 0.  1.
</event>
<event>
 7    1  0.2732144E-009  0.6971717E+02  0.7561462E-02  0.1361057E+00
          2   -1    0    0  501    0  0.00000000000E+00  0.00000000000E+00  0.17206992831E+03  0.17206992831E+03  0.00000000000E+00 0. -1.
         -2   -1    0    0    0  501 -0.00000000000E+00 -0.00000000000E+00 -0.84641511499E+02  0.84641511499E+02  0.00000000000E+00 0.  1.
         25    2    1    2    0    0  0.51328156204E+02 -0.81971940771E+01  0.47438605333E+02  0.14352891373E+03  0.12509338188E+03 0.  0.
          5    1    3    3  502    0  0.20363104501E+02 -0.16318026918E+02 -0.41338461562E+02  0.49063987116E+02  0.41800000000E+01 0. -1.
         -5    1    3    3    0  502  0.30965051703E+02  0.81208328407E+01  0.88777066895E+02  0.94464926610E+02  0.41800000000E+01 0. -1.
        -11    1    1    2    0    0 -0.90209896092E+01 -0.25236152847E+02  0.51489831915E+02  0.58046915980E+02  0.00000000000E+00 0.  1.
         11    1    1    2    0    0 -0.42307166595E+02  0.33433346925E+02 -0.11500020433E+02  0.55135610106E+02  0.00000000000E+00 0. -1.
</event>
<event>
 7    1  0.2732144E-009  0.2353045E+03  0.7561462E-02  0.1122961E+00
          1   -1    0    0  501    0  0.00000000000E+00  0.00000000000E+00  0.68653595249E+03  0.68653595249E+03  0.00000000000E+00 0. -1.
         -1   -1    0    0    0  501 -0.00000000000E+00 -0.00000000000E+00 -0.96686409038E+02  0.96686409038E+02  0.00000000000E+00 0.  1.
         25    2    1    2    0    0 -0.21514621782E+03  0.48441464188E+02  0.18777436384E+03  0.31550284176E+03  0.12509340890E+03 0.  0.
          5    1    3    3  502    0 -0.22344445732E+03  0.63544214280E+02  0.15842890917E+03  0.28121608122E+03  0.41800000000E+01 0.  1.
         -5    1    3    3    0  502  0.82982394966E+01 -0.15102750093E+02  0.29345454663E+02  0.34286760542E+02  0.41800000000E+01 0.  1.
        -11    1    1    2    0    0  0.89762003483E+02 -0.19645800543E+02  0.83537811710E+02  0.12418430148E+03  0.00000000000E+00 0.  1.
         11    1    1    2    0    0  0.12538421434E+03 -0.28795663645E+02  0.31853736791E+03  0.34353521829E+03  0.00000000000E+00 0. -1.
</event>
<event>
 7    1  0.2732144E-009  0.1303913E+03  0.7561462E-02  0.1226876E+00
         -2   -1    0    0    0  501 -0.00000000000E+00  0.00000000000E+00  0.17081274014E+02  0.17081274014E+02  0.00000000000E+00 0.  1.
          2   -1    0    0  501    0  0.00000000000E+00 -0.00000000000E+00 -0.11553417587E+04  0.11553417587E+04  0.00000000000E+00 0. -1.
         25    2    1    2    0    0  0.43096765942E+02 -0.74789148853E+02 -0.51843986720E+03  0.54025654786E+03  0.12508594477E+03 0.  0.
          5    1    3    3  502    0 -0.31464963427E+02 -0.11101956340E+01 -0.25059738255E+03  0.25260205265E+03  0.41800000000E+01 0. -1.
         -5    1    3    3    0  502  0.74561729369E+02 -0.73678953219E+02 -0.26784248465E+03  0.28765449521E+03  0.41800000000E+01 0. -1.
        -11    1    1    2    0    0  0.24913116729E+02  0.41478435607E+02 -0.22390543381E+03  0.22907371586E+03  0.00000000000E+00 0.  1.
         11    1    1    2    0    0 -0.68009882671E+02  0.33310713246E+02 -0.39591518370E+03  0.40309276903E+03  0.00000000000E+00 0. -1.
</event>
<event>
 7    1  0.2732144E-009  0.1218794E+03  0.7561462E-02  0.1240028E+00
         -2   -1    0    0    0  501 -0.00000000000E+00  0.00000000000E+00  0.44588966850E+02  0.44588966850E+02  0.00000000000E+00 0.  1.
          2   -1    0    0  501    0  0.00000000000E+00 -0.00000000000E+00 -0.39662109510E+03  0.39662109510E+03  0.00000000000E+00 0. -1.
         25    2    1    2    0    0 -0.32095856942E+02 -0.60198610504E+02 -0.25808564506E+03  0.29480108196E+03  0.12508181724E+03 0.  0.
          5    1    3    3  502    0 -0.37276025576E+02  0.32095645567E+02 -0.10271367655E+03  0.11396141583E+03  0.41800000000E+01 0. -1.
         -5    1    3    3    0  502  0.51801686346E+01 -0.92294256071E+02 -0.15537196850E+03  0.18083966613E+03  0.41800000000E+01 0. -1.
        -11    1    1    2    0    0 -0.70596924398E+01 -0.15277337791E+02 -0.45578778347E+02  0.48586637493E+02  0.00000000000E+00 0. -1.
         11    1    1    2    0    0  0.39155549382E+02  0.75475948295E+02 -0.48367704848E+02  0.97822342492E+02  0.00000000000E+00 0.  1.
</event>
<event>
 7    1  0.2732144E-009  0.9077559E+02  0.7561462E-02  0.1300984E+00
          2   -1    0    0  501    0  0.00000000000E+00  0.00000000000E+00  0.59353446483E+02  0.59353446483E+02  0.00000000000E+00 0. -1.
         -2   -1    0    0    0  501 -0.00000000000E+00 -0.00000000000E+00 -0.24249920431E+03  0.24249920431E+03  0.00000000000E+00 0.  1.
         25    2    1    2    0    0 -0.38030829795E+02 -0.31265056488E+02 -0.10756229733E+03  0.17215820522E+03  0.12507978273E+03 0.  0.
          5    1    3    3  502    0 -0.59474015225E+02 -0.67197003249E+02 -0.56987687589E+02  0.10638451330E+03  0.41800000000E+01 0. -1.
         -5    1    3    3    0  502  0.21443185430E+02  0.35931946760E+02 -0.50574609739E+02  0.65773691927E+02  0.41800000000E+01 0. -1.
        -11    1    1    2    0    0  0.11724520064E+02  0.13709135671E+02  0.21222552772E+02  0.27853213778E+02  0.00000000000E+00 0. -1.
         11    1    1    2    0    0  0.26306309730E+02  0.17555920817E+02 -0.96806013267E+02  0.10184123179E+03  0.00000000000E+00 0.  1.
</event>
<event>
 7    1  0.2799871E-009  0.1394018E+03  0.7561462E-02  0.1214136E+00
         -1   -1    0    0    0  501 -0.00000000000E+00  0.00000000000E+00  0.10303450517E+03  0.10303450517E+03  0.00000000000E+00 0.  1.
          1   -1    0    0  501    0  0.00000000000E+00 -0.00000000000E+00 -0.26322377676E+03  0.26322377676E+03  0.00000000000E+00 0. -1.
         25    2    1    2    0    0 -0.70591708467E+02 -0.81954320111E+02 -0.18836087867E+02  0.16644065568E+03  0.12509194126E+03 0.  0.
          5    1    3    3  502    0 -0.95867837369E+02 -0.23710108204E+02 -0.26541264591E+02  0.10234609225E+03  0.41800000000E+01 0.  1.
         -5    1    3    3    0  502  0.25276128902E+02 -0.58244211907E+02  0.77051767237E+01  0.64094563430E+02  0.41800000000E+01 0.  1.
        -11    1    1    2    0    0  0.47438029983E+02  0.22456480817E+02 -0.95235474446E+01  0.53341898872E+02  0.00000000000E+00 0.  1.
         11    1    1    2    0    0  0.23153678484E+02  0.59497839294E+02 -0.13182963628E+03  0.14647572737E+03  0.00000000000E+00 0. -1.
</event>
<event>
 7    1  0.2732144E-009  0.1375138E+03  0.7561462E-02  0.1216714E+00
         -2   -1    0    0    0  501 -0.00000000000E+00  0.00000000000E+00  0.31989691150E+02  0.31989691150E+02  0.00000000000E+00 0.  1.
          2   -1    0    0  501    0  0.00000000000E+00 -0.00000000000E+00 -0.92830110433E+03  0.92830110433E+03  0.00000000000E+00 0. -1.
         25    2    1    2    0    0 -0.80626262489E+02  0.90517865625E+02 -0.62811552396E+03  0.65182032961E+03  0.12508618009E+03 0.  0.
          5    1    3    3  502    0 -0.41984602420E+02  0.22116047249E+02 -0.49430849079E+03  0.49659861342E+03  0.41800000000E+01 0. -1.
         -5    1    3    3    0  502 -0.38641660069E+02  0.68401818375E+02 -0.13380703318E+03  0.15522171619E+03  0.41800000000E+01 0. -1.
        -11    1    1    2    0    0  0.22402678904E+01 -0.66777569292E+02 -0.87618213550E+02  0.11018717669E+03  0.00000000000E+00 0.  1.
         11    1    1    2    0    0  0.78385994599E+02 -0.23740296332E+02 -0.18057767567E+03  0.19828328918E+03  0.00000000000E+00 0. -1.
</event>
<event>
 7    1  0.2732144E-009  0.1204312E+03  0.7561462E-02  0.1242387E+00
         -2   -1    0    0    0  501 -0.00000000000E+00  0.00000000000E+00  0.32530654623E+02  0.32530654623E+02  0.00000000000E+00 0.  1.
          2   -1    0    0  501    0  0.00000000000E+00 -0.00000000000E+00 -0.71697587867E+03  0.71697587867E+03  0.00000000000E+00 0. -1.
         25    2    1    2    0    0 -0.21291349693E+02 -0.74574830152E+02 -0.54607911661E+03  0.56556584589E+03  0.12509035763E+03 0.  0.
          5    1    3    3  502    0 -0.58144080376E+02 -0.51818637436E+02 -0.17072137911E+03  0.18769434449E+03  0.41800000000E+01 0.  1.
         -5    1    3    3    0  502  0.36852730683E+02 -0.22756192716E+02 -0.37535773751E+03  0.37787150140E+03  0.41800000000E+01 0.  1.
        -11    1    1    2    0    0  0.14736802849E+02  0.95908855845E+02 -0.98594492398E+02  0.13833494106E+03  0.00000000000E+00 0.  1.
         11    1    1    2    0    0  0.65545468439E+01 -0.21334025694E+02 -0.39771615035E+02  0.45605746339E+02  0.00000000000E+00 0. -1.
</event>
<event>
 7    1  0.2732144E-009  0.2637063E+03  0.7561462E-02  0.1104937E+00
          1   -1    0    0  501    0  0.00000000000E+00  0.00000000000E+00  0.37733550864E+03  0.37733550864E+03  0.00000000000E+00 0. -1.
         -1   -1    0    0    0  501 -0.00000000000E+00 -0.00000000000E+00 -0.20728868891E+03  0.20728868891E+03  0.00000000000E+00 0.  1.
         25    2    1    2    0    0  0.24350220530E+03 -0.42627017132E+02  0.93005893522E+01  0.27721051913E+03  0.12509510133E+03 0.  0.
          5    1    3    3  502    0  0.17738505688E+03  0.28662644016E+02  0.59352586788E+01  0.17983243662E+03  0.41800000000E+01 0.  1.
         -5    1    3    3    0  502  0.66117148421E+02 -0.71289661149E+02  0.33653306734E+01  0.97378082506E+02  0.41800000000E+01 0.  1.
        -11    1    1    2    0    0 -0.16742227868E+03  0.10432757586E+02  0.14823842225E+03  0.22386087568E+03  0.00000000000E+00 0.  1.
         11    1    1    2    0    0 -0.76079926615E+02  0.32194259546E+02  0.12507808132E+02  0.83552802740E+02  0.00000000000E+00 0. -1.
</event>
<event>
 7    1  0.2732144E-009  0.1008012E+03  0.7561462E-02  0.1278620E+00
          2   -1    0    0  501    0  0.00000000000E+00  0.00000000000E+00  0.85586401410E+03  0.85586401410E+03  0.00000000000E+00 0. -1.
         -2   -1    0    0    0  501 -0.00000000000E+00 -0.00000000000E+00 -0.10957932924E+03  0.10957932924E+03  0.00000000000E+00 0.  1.
         25    2    1    2    0    0  0.58955551426E+02 -0.16794287482E+02  0.82490073696E+03  0.83658010856E+03  0.12508895661E+03 0.  0.
          5    1    3    3  502    0  0.74329856864E+02 -0.28855372765E+02  0.80289517209E+03  0.80685543310E+03  0.41800000000E+01 0.  1.
         -5    1    3    3    0  502 -0.15374305438E+02  0.12061085283E+02  0.22005564868E+02  0.29724675458E+02  0.41800000000E+01 0.  1.
        -11    1    1    2    0    0 -0.75947119934E+02 -0.25992917782E+01 -0.63070393984E+02  0.98755232476E+02  0.00000000000E+00 0.  1.
         11    1    1    2    0    0  0.16991568508E+02  0.19393579260E+02 -0.15545658113E+02  0.30108002309E+02  0.00000000000E+00 0. -1.
</event>
<event>
 7    1  0.2732144E-009  0.1090948E+03  0.7561462E-02  0.1262255E+00
         -2   -1    0    0    0  501 -0.00000000000E+00  0.00000000000E+00  0.43471061221E+03  0.43471061221E+03  0.00000000000E+00 0.  1.
          2   -1    0    0  501    0  0.00000000000E+00 -0.00000000000E+00 -0.28987148115E+02  0.28987148115E+02  0.00000000000E+00 0. -1.
         25    2    1    2    0    0  0.93059313498E+01  0.29447480094E+02  0.25837264901E+03  0.28871746472E+03  0.12509034429E+03 0.  0.
          5    1    3    3  502    0  0.23427624343E+02  0.73918060762E+02  0.12293564958E+03  0.14540763263E+03  0.41800000000E+01 0. -1.
         -5    1    3    3    0  502 -0.14121692994E+02 -0.44470580668E+02  0.13543699944E+03  0.14330983209E+03  0.41800000000E+01 0. -1.
        -11    1    1    2    0    0 -0.38331584096E+01  0.31884303594E+02  0.60810981865E+02  0.68769742143E+02  0.00000000000E+00 0.  1.
         11    1    1    2    0    0 -0.54727729401E+01 -0.61331783688E+02  0.86539833218E+02  0.10621055347E+03  0.00000000000E+00 0. -1.
</event>
<event>
 7    1  0.2732144E-009  0.1067254E+03  0.7561462E-02  0.1266757E+00
         -2   -1    0    0    0  501 -0.00000000000E+00  0.00000000000E+00  0.16573251427E+02  0.16573251427E+02  0.00000000000E+00 0.  1.
          2   -1    0    0  501    0  0.00000000000E+00 -0.00000000000E+00 -0.90807999947E+03  0.90807999947E+03  0.00000000000E+00 0. -1.
         25    2    1    2    0    0 -0.45811717727E+02  0.17651403968E-01 -0.61514088043E+03  0.62940022778E+03  0.12509048787E+03 0.  0.
          5    1    3    3  502    0 -0.86152388791E+02 -0.73937243591E+01 -0.32447378166E+03  0.33582377617E+03  0.41800000000E+01 0.  1.
         -5    1    3    3    0  502  0.40340671064E+02  0.74113757631E+01 -0.29066709877E+03  0.29357645161E+03  0.41800000000E+01 0.  1.
        -11    1    1    2    0    0 -0.39795930246E+01  0.28160823005E+02 -0.26337552010E+02  0.38762556144E+02  0.00000000000E+00 0.  1.
         11    1    1    2    0    0  0.49791310752E+02 -0.28178474409E+02 -0.25002831560E+03  0.25649046697E+03  0.00000000000E+00 0. -1.
</event>
<event>
 6    1  0.2732144E-009  0.1744039E+03  0.7561462E-02  0.1173332E+00
          1   -1    0    0  501    0  0.00000000000E+00  0.00000000000E+00  0.13771412871E+03  0.13771412871E+03  0.00000000000E+00 0. -1.
         -1   -1    0    0    0  501 -0.00000000000E+00 -0.00000000000E+00 -0.23240055855E+03  0.23240055855E+03  0.00000000000E+00 0.  1.
          5    1    1    2  502    0 -0.76010267443E+02 -0.13870835897E+03 -0.38819274606E+02  0.16291708960E+03  0.41800000000E+01 0.  1.
         -5    1    1    2    0  502 -0.53980500414E+01  0.23862586702E+02 -0.27005804241E+02  0.36678983779E+02  0.41800000000E+01 0.  1.
        -11    1    1    2    0    0  0.98965487319E+02  0.10907856618E+03 -0.34359738162E+02  0.15123786856E+03  0.00000000000E+00 0.  1.
         11    1    1    2    0    0 -0.17557169835E+02  0.57672060895E+01  0.54983871709E+01  0.19280745322E+02  0.00000000000E+00 0. -1.
</event>
<event>
 7    1  0.2732144E-009  0.1153935E+03  0.7561462E-02  0.1250896E+00
          4   -1    0    0  501    0  0.00000000000E+00  0.00000000000E+00  0.19723010663E+03  0.19723010663E+03  0.00000000000E+00 0. -1.
         -4   -1    0    0    0  501 -0.00000000000E+00 -0.00000000000E+00 -0.83940492865E+02  0.83940492865E+02  0.00000000000E+00 0.  1.
         25    2    1    2    0    0 -0.65583867413E+02  0.10923912188E+02  0.73350000094E+02  0.15952326415E+03  0.12508746448E+03 0.  0.
          5    1    3    3  502    0  0.34492465255E+02 -0.13632829138E+02  0.28980324172E+02  0.47253738253E+02  0.41800000000E+01 0.  1.
         -5    1    3    3    0  502 -0.10007633267E+03  0.24556741327E+02  0.44369675922E+02  0.11226952590E+03  0.41800000000E+01 0.  1.
        -11    1    1    2    0    0  0.16139863721E+02 -0.32577052322E+02 -0.19583175122E+02  0.41294797333E+02  0.00000000000E+00 0.  1.
         11    1    1    2    0    0  0.49444003691E+02  0.21653140134E+02  0.59522788796E+02  0.80352538010E+02  0.00000000000E+00 0. -1.
</event>
<event>
 7    1  0.2732144E-009  0.1418150E+03  0.7561462E-02  0.1210907E+00
         -3   -1    0    0    0  501 -0.00000000000E+00  0.00000000000E+00  0.57118167765E+02  0.57118167765E+02  0.00000000000E+00 0.  1.
          3   -1    0    0  501    0  0.00000000000E+00 -0.00000000000E+00 -0.38853148744E+03  0.38853148744E+03  0.00000000000E+00 0. -1.
         25    2    1    2    0    0 -0.58601687124E+02 -0.80711454237E+02 -0.18073763662E+03  0.24137639469E+03  0.12509186242E+03 0.  0.
          5    1    3    3  502    0 -0.21284843345E+02  0.33371760402E+02 -0.48395055731E+02  0.62659977400E+02  0.41800000000E+01 0. -1.
         -5    1    3    3    0  502 -0.37316843778E+02 -0.11408321464E+03 -0.13234258089E+03  0.17871641729E+03  0.41800000000E+01 0. -1.
        -11    1    1    2    0    0  0.50148832627E+02  0.83122743295E+01 -0.10909435770E+03  0.12035604763E+03  0.00000000000E+00 0.  1.
         11    1    1    2    0    0  0.84528544962E+01  0.72399179908E+02 -0.41581325348E+02  0.83917212883E+02  0.00000000000E+00 0. -1.
</event>
<event>
 7    1  0.2732144E-009  0.1123516E+03  0.7561462E-02  0.1256276E+00
          1   -1    0    0  501    0  0.00000000000E+00  0.00000000000E+00  0.91940849183E+03  0.91940849183E+03  0.00000000000E+00 0. -1.
         -1   -1    0    0    0  501 -0.00000000000E+00 -0.00000000000E+00 -0.16910800540E+02  0.16910800540E+02  0.00000000000E+00 0.  1.
         25    2    1    2    0    0 -0.21523197558E+02  0.30687443719E+02  0.69835383815E+03  0.71045816739E+03  0.12509099533E+03 0.  0.
          5    1    3    3  502    0 -0.27002884169E+02  0.76893244055E+02  0.37736080067E+03  0.38608337573E+03  0.41800000000E+01 0. -1.
         -5    1    3    3    0  502  0.54796866113E+01 -0.46205800336E+02  0.32099303748E+03  0.32437479165E+03  0.41800000000E+01 0. -1.
        -11    1    1    2    0    0  0.51905080879E+02 -0.38953303878E+02  0.14494340855E+03  0.15880834041E+03  0.00000000000E+00 0. -1.
         11    1    1    2    0    0 -0.30381883321E+02  0.82658601587E+01  0.59200444597E+02  0.67052784572E+02  0.00000000000E+00 0.  1.
</event>
<event>
 7    1  0.2732144E-009  0.1006535E+03  0.7561462E-02  0.1278928E+00
          2   -1    0    0  501    0  0.00000000000E+00  0.00000000000E+00  0.30745448190E+03  0.30745448190E+03  0.00000000000E+00 0. -1.
         -2   -1    0    0    0  501 -0.00000000000E+00 -0.00000000000E+00 -0.63154246721E+02  0.63154246721E+02  0.00000000000E+00 0.  1.
         25    2    1    2    0    0  0.45679042496E+02 -0.43336619721E+02  0.51730102908E+02  0.14929218535E+03  0.12509002969E+03 0.  0.
          5    1    3    3  502    0  0.12584221404E+02 -0.56872017058E+02  0.83083446755E+02  0.10155353503E+03  0.41800000000E+01 0.  1.
         -5    1    3    3    0  502  0.33094821092E+02  0.13535397337E+02 -0.31353343847E+02  0.47738650322E+02  0.41800000000E+01 0.  1.
        -11    1    1    2    0    0 -0.56098063670E+02  0.63184332192E+02  0.13194971012E+03  0.15668432781E+03  0.00000000000E+00 0.  1.
         11    1    1    2    0    0  0.10419021174E+02 -0.19847712471E+02  0.60620422154E+02  0.64632215455E+02  0.00000000000E+00 0. -1.
</event>
<event>
 6    1  0.2732144E-009  0.8761415E+02  0.7561462E-02  0.1308734E+00
          3   -1    0    0  501    0  0.00000000000E+00  0.00000000000E+00  0.19910230823E+02  0.19910230823E+02  0.00000000000E+00 0. -1.
         -3   -1    0    0    0  501 -0.00000000000E+00 -0.00000000000E+00 -0.62901986149E+03  0.62901986149E+03  0.00000000000E+00 0.  1.
          5    1    1    2  502    0 -0.25226825696E+02 -0.27325665896E+02 -0.27051529016E+02  0.46177292834E+02  0.41800000000E+01 0. -1.
         -5    1    1    2    0  502  0.45270277521E+02  0.69321399212E+01 -0.33036379280E+03  0.33354933756E+03  0.41800000000E+01 0. -1.
        -11    1    1    2    0    0 -0.20244836567E+02  0.54278152595E+02 -0.12047275583E+03  0.13367743323E+03  0.00000000000E+00 0. -1.
         11    1    1    2    0    0  0.20138474284E+00 -0.33884626621E+02 -0.13122155301E+03  0.13552602869E+03  0.00000000000E+00 0.  1.
</event>
<event>
 7    1  0.2732144E-009  0.1104194E+03  0.7561462E-02  0.1259795E+00
          2   -1    0    0  501    0  0.00000000000E+00  0.00000000000E+00  0.15494408754E+03  0.15494408754E+03  0.00000000000E+00 0. -1.
         -2   -1    0    0    0  501 -0.00000000000E+00 -0.00000000000E+00 -0.20566870151E+03  0.20566870151E+03  0.00000000000E+00 0.  1.
         25    2    1    2    0    0  0.32917407051E+02 -0.49557163579E+02 -0.15648514848E+03  0.20898553689E+03  0.12509150565E+03 0.  0.
          5    1    3    3  502    0 -0.31159561285E+02 -0.16055133576E+00 -0.11248001063E+03  0.11679113506E+03  0.41800000000E+01 0.  1.
         -5    1    3    3    0  502  0.64076968336E+02 -0.49396612243E+02 -0.44005137848E+02  0.92194401833E+02  0.41800000000E+01 0.  1.
        -11    1    1    2    0    0 -0.16926212014E+02 -0.26071633328E+02  0.35260186131E+02  0.47005398025E+02  0.00000000000E+00 0. -1.
         11    1    1    2    0    0 -0.15991195037E+02  0.75628796907E+02  0.70500348379E+02  0.10462185413E+03  0.00000000000E+00 0.  1.
</event>
<event>
 7    1  0.2732144E-009  0.1249999E+03  0.7561462E-02  0.1235069E+00
          1   -1    0    0  501    0  0.00000000000E+00  0.00000000000E+00  0.68089859592E+03  0.68089859592E+03  0.00000000000E+00 0. -1.
         -1   -1    0    0    0  501 -0.00000000000E+00 -0.00000000000E+00 -0.31125129993E+02  0.31125129993E+02  0.00000000000E+00 0.  1.
         25    2    1    2    0    0  0.37372786327E+02  0.78359002482E+02  0.25326676208E+03  0.29552297901E+03  0.12511162983E+03 0.  0.
          5    1    3    3  502    0  0.44106051795E+02 -0.94482032384E+01  0.27118171568E+02  0.52796590596E+02  0.41800000000E+01 0.  1.
         -5    1    3    3    0  502 -0.67332654680E+01  0.87807205720E+02  0.22614859051E+03  0.24272638841E+03  0.41800000000E+01 0.  1.
        -11    1    1    2    0    0  0.18092185617E+02 -0.52132722317E+02  0.10510803324E+03  0.11871329567E+03  0.00000000000E+00 0.  1.
         11    1    1    2    0    0 -0.55464971945E+02 -0.26226280165E+02  0.29139867060E+03  0.29778745123E+03  0.00000000000E+00 0. -1.
</event>
<event>
 7    1  0.2732144E-009  0.1976899E+03  0.7561462E-02  0.1151703E+00
         -1   -1    0    0    0  501 -0.00000000000E+00  0.00000000000E+00  0.40476383228E+02  0.40476383228E+02  0.00000000000E+00 0.  1.
          1   -1    0    0  501    0  0.00000000000E+00 -0.00000000000E+00 -0.12159990784E+04  0.12159990784E+04  0.00000000000E+00 0. -1.
         25    2    1    2    0    0  0.22993575877E+02  0.18903934991E+03 -0.52117313972E+03  0.56879980305E+03  0.12508874465E+03 0.  0.
          5    1    3    3  502    0 -0.61495433418E+01  0.16186674699E+01  0.52422027660E+01  0.92406740842E+01  0.41800000000E+01 0. -1.
         -5    1    3    3    0  502  0.29143119219E+02  0.18742068244E+03 -0.52641534249E+03  0.55955912897E+03  0.41800000000E+01 0. -1.
        -11    1    1    2    0    0 -0.30514414850E+02 -0.48435735270E+02 -0.95346388159E+02  0.11121188650E+03  0.00000000000E+00 0.  1.
         11    1    1    2    0    0  0.75208389733E+01 -0.14060361464E+03 -0.55900316731E+03  0.57646377209E+03  0.00000000000E+00 0. -1.
</event>
<event>
 7    1  0.2732144E-009  0.1044350E+03  0.7561462E-02  0.1271237E+00
         -2   -1    0    0    0  501 -0.00000000000E+00  0.00000000000E+00  0.11805071749E+02  0.11805071749E+02  0.00000000000E+00 0.  1.
          2   -1    0    0  501    0  0.00000000000E+00 -0.00000000000E+00 -0.13450499510E+04  0.13450499510E+04  0.00000000000E+00 0. -1.
         25    2    1    2    0    0  0.30771420934E+02  0.16454420697E+02 -0.10210364410E+04  0.10292619441E+04  0.12508839865E+03 0.  0.
          5    1    3    3  502    0  0.76272220726E+02 -0.80457142565E+01 -0.67648060151E+03  0.68082718938E+03  0.41800000000E+01 0.  1.
         -5    1    3    3    0  502 -0.45500799792E+02  0.24500134953E+02 -0.34455583945E+03  0.34843475472E+03  0.41800000000E+01 0.  1.
        -11    1    1    2    0    0  0.23100669640E+02  0.21972007899E+01 -0.22476954042E+02  0.32306068967E+02  0.00000000000E+00 0.  1.
         11    1    1    2    0    0 -0.53872090574E+02 -0.18651621487E+02 -0.28973148420E+03  0.29528700964E+03  0.00000000000E+00 0. -1.
</event>
<event>
 6    1  0.2732144E-009  0.1168663E+03  0.7561462E-02  0.1248358E+00
         -1   -1    0    0    0  501 -0.00000000000E+00  0.00000000000E+00  0.73188406283E+03  0.73188406283E+03  0.00000000000E+00 0.  1.
          1   -1    0    0  501    0  0.00000000000E+00 -0.00000000000E+00 -0.24036650066E+02  0.24036650066E+02  0.00000000000E+00 0. -1.
          5    1    1    2  502    0 -0.31509429443E+02 -0.28231805325E+02  0.13679507859E+03  0.14324889145E+03  0.41800000000E+01 0.  1.
         -5    1    1    2    0  502  0.72428109202E+02  0.51937509563E+02  0.42563787585E+03  0.43488896245E+03  0.41800000000E+01 0.  1.
        -11    1    1    2    0    0 -0.47394513646E+02 -0.53518964358E+02  0.10782741015E+03  0.12937260085E+03  0.00000000000E+00 0. -1.
         11    1    1    2    0    0  0.64758338877E+01  0.29813260121E+02  0.37587048165E+02  0.48410258142E+02  0.00000000000E+00 0.  1.
</event>
<event>
 7    1  0.2732144E-009  0.1007423E+03  0.7561462E-02  0.1278743E+00
          2   -1    0    0  501    0  0.00000000000E+00  0.00000000000E+00  0.86646086335E+03  0.86646086335E+03  0.00000000000E+00 0. -1.
         -2   -1    0    0    0  501 -0.00000000000E+00 -0.00000000000E+00 -0.19416712415E+02  0.19416712415E+02  0.00000000000E+00 0.  1.
         25    2    1    2    0    0  0.68138330469E+02  0.17812310347E+02  0.50908549674E+03  0.52893699839E+03  0.12508475046E+03 0.  0.
          5    1    3    3  502    0  0.64643922177E+02 -0.90415658092E+01  0.49267501222E+03  0.49699771292E+03  0.41800000000E+01 0. -1.
         -5    1    3    3    0  502  0.34944082920E+01  0.26853876157E+02  0.16410484518E+02  0.31939285466E+02  0.41800000000E+01 0. -1.
        -11    1    1    2    0    0 -0.83264997015E+01 -0.42984714611E+02  0.82849975397E+02  0.93707708919E+02  0.00000000000E+00 0.  1.
         11    1    1    2    0    0 -0.59811830767E+02  0.25172404263E+02  0.25510867880E+03  0.26323286845E+03  0.00000000000E+00 0. -1.
</event>
<event>
 7    1  0.2732144E-009  0.1191745E+03  0.7561462E-02  0.1244465E+00
         -2   -1    0    0    0  501 -0.00000000000E+00  0.00000000000E+00  0.42790900133E+03  0.42790900133E+03  0.00000000000E+00 0.  1.
          2   -1    0    0  501    0  0.00000000000E+00 -0.00000000000E+00 -0.43486455337E+02  0.43486455337E+02  0.00000000000E+00 0. -1.
         25    2    1    2    0    0 -0.12817090828E+02 -0.83360090480E+02  0.20502377275E+03  0.25454980565E+03  0.12509066178E+03 0.  0.
          5    1    3    3  502    0  0.15001527900E+02 -0.97404392139E+02  0.19959958841E+03  0.22264350326E+03  0.41800000000E+01 0.  1.
         -5    1    3    3    0  502 -0.27818618729E+02  0.14044301659E+02  0.54241843340E+01  0.31906302399E+02  0.41800000000E+01 0.  1.
        -11    1    1    2    0    0 -0.25081695077E+02  0.56490221633E+02  0.14904078551E+03  0.16134866691E+03  0.00000000000E+00 0.  1.
         11    1    1    2    0    0  0.37898785906E+02  0.26869868847E+02  0.30357987736E+02  0.55496984102E+02  0.00000000000E+00 0. -1.
</event>
<event>
 7    1  0.2732144E-009  0.1053423E+03  0.7561462E-02  0.1269447E+00
         -1   -1    0    0    0  501 -0.00000000000E+00  0.00000000000E+00  0.14515079647E+03  0.14515079647E+03  0.00000000000E+00 0.  1.
          1   -1    0    0  501    0  0.00000000000E+00 -0.00000000000E+00 -0.15011022907E+03  0.15011022907E+03  0.00000000000E+00 0. -1.
         25    2    1    2    0    0 -0.18956920090E+02 -0.64837943601E+02  0.70511101563E+02  0.15869004794E+03  0.12508953642E+03 0.  0.
          5    1    3    3  502    0  0.34157456999E+02 -0.79387808392E+02  0.37123886161E+02  0.94153126945E+02  0.41800000000E+01 0. -1.
         -5    1    3    3    0  502 -0.53114377089E+02  0.14549864791E+02  0.33387215403E+02  0.64536920994E+02  0.41800000000E+01 0. -1.
        -11    1    1    2    0    0  0.20435705779E+02  0.49951951161E+02  0.54816998537E+01  0.54248175350E+02  0.00000000000E+00 0.  1.
         11    1    1    2    0    0 -0.14787856883E+01  0.14885992440E+02 -0.80952234020E+02  0.82322802253E+02  0.00000000000E+00 0. -1.
</event>
<event>
 7    1  0.2990546E-009  0.1453875E+03  0.7561462E-02  0.1206258E+00
          4   -1    0    0  501    0  0.00000000000E+00  0.00000000000E+00  0.98413637102E+03  0.98413637102E+03  0.00000000000E+00 0.  1.
         -4   -1    0    0    0  501 -0.00000000000E+00 -0.00000000000E+00 -0.25277945909E+02  0.25277945909E+02  0.00000000000E+00 0. -1.
         25    2    1    2    0    0 -0.10064110516E+03 -0.53831359819E+02  0.54713391481E+03  0.57273869818E+03  0.12509056041E+03 0.  0.
          5    1    3    3  502    0  0.21380157560E+02  0.12206740093E+02  0.14954537739E+03  0.15161598841E+03  0.41800000000E+01 0.  1.
         -5    1    3    3    0  502 -0.12202126272E+03 -0.66038099911E+02  0.39758853742E+03  0.42112270977E+03  0.41800000000E+01 0.  1.
        -11    1    1    2    0    0  0.57474763824E+02 -0.65926238641E+00  0.84815765925E+02  0.10245729478E+03  0.00000000000E+00 0.  1.
         11    1    1    2    0    0  0.43166341340E+02  0.54490622205E+02  0.32690874438E+03  0.33421832398E+03  0.00000000000E+00 0. -1.
</event>
<event>
 7    1  0.2732144E-009  0.8849152E+02  0.7561462E-02  0.1306546E+00
          1   -1    0    0  501    0  0.00000000000E+00  0.00000000000E+00  0.12958496374E+03  0.12958496374E+03  0.00000000000E+00 0. -1.
         -1   -1    0    0    0  501 -0.00000000000E+00 -0.00000000000E+00 -0.11021557530E+03  0.11021557530E+03  0.00000000000E+00 0.  1.
         25    2    1    2    0    0 -0.46786771849E+02 -0.21423430834E+02  0.84308501838E+01  0.13552499681E+03  0.12509188670E+03 0.  0.
          5    1    3    3  502    0 -0.12498442795E+02 -0.62164784587E+02 -0.29453449114E+02  0.70040342516E+02  0.41800000000E+01 0. -1.
         -5    1    3    3    0  502 -0.34288329054E+02  0.40741353753E+02  0.37884299298E+02  0.65484654295E+02  0.41800000000E+01 0. -1.
        -11    1    1    2    0    0  0.10551264978E+02  0.21319187781E+02  0.47298117853E+02  0.52942883494E+02  0.00000000000E+00 0. -1.
         11    1    1    2    0    0  0.36235506871E+02  0.10424305316E+00 -0.36359579595E+02  0.51332658739E+02  0.00000000000E+00 0.  1.
</event>
<event>
 7    1  0.2732144E-009  0.1133104E+03  0.7561462E-02  0.1254559E+00
          2   -1    0    0  501    0  0.00000000000E+00  0.00000000000E+00  0.38485233969E+03  0.38485233969E+03  0.00000000000E+00 0. -1.
         -2   -1    0    0    0  501 -0.00000000000E+00 -0.00000000000E+00 -0.60365428842E+02  0.60365428842E+02  0.00000000000E+00 0.  1.
         25    2    1    2    0    0  0.40789436048E+02  0.94111480051E+02  0.12754996581E+03  0.20600219702E+03  0.12508861910E+03 0.  0.
          5    1    3    3  502    0  0.46234343932E+02  0.50686018531E+02  0.14359837787E+03  0.15920004259E+03  0.41800000000E+01 0.  1.
         -5    1    3    3    0  502 -0.54449078844E+01  0.43425461520E+02 -0.16048412059E+02  0.46802154435E+02  0.41800000000E+01 0.  1.
        -11    1    1    2    0    0 -0.38981683130E+02 -0.28503990843E+02  0.23359815603E+02  0.53644478734E+02  0.00000000000E+00 0. -1.
         11    1    1    2    0    0 -0.18077529175E+01 -0.65607489208E+02  0.17357712943E+03  0.18557109277E+03  0.00000000000E+00 0.  1.
</event>
<event>
 7    1  0.2732144E-009  0.1179050E+03  0.7561462E-02  0.1246594E+00
         -3   -1    0    0    0  501 -0.00000000000E+00  0.00000000000E+00  0.25940332378E+03  0.25940332378E+03  0.00000000000E+00 0.  1.
          3   -1    0    0  501    0  0.00000000000E+00 -0.00000000000E+00 -0.65358665249E+02  0.65358665249E+02  0.00000000000E+00 0. -1.
         25    2    1    2    0    0 -0.17652407720E+02  0.69953213633E+02  0.10581628817E+03  0.17904711592E+03  0.12512283278E+03 0.  0.
          5    1    3    3  502    0  0.40670437479E+02  0.33523890885E+02  0.10864649534E+00  0.52871731094E+02  0.41800000000E+01 0.  1.
         -5    1    3    3    0  502 -0.58322845199E+02  0.36429322748E+02  0.10570764168E+03  0.12617538483E+03  0.41800000000E+01 0.  1.
        -11    1    1    2    0    0  0.27357325460E+02  0.13167323190E+02  0.35895107980E+02  0.47013406952E+02  0.00000000000E+00 0. -1.
         11    1    1    2    0    0 -0.97049177407E+01 -0.83120536823E+02  0.52333262383E+02  0.98701466158E+02  0.00000000000E+00 0.  1.
</event>
<event>
 7    1  0.2732144E-009  0.2077434E+03  0.7561462E-02  0.1143366E+00
         -1   -1    0    0    0  501 -0.00000000000E+00  0.00000000000E+00  0.77969278807E+02  0.77969278807E+02  0.00000000000E+00 0.  1.
          1   -1    0    0  501    0  0.00000000000E+00 -0.00000000000E+00 -0.66680558894E+03  0.66680558894E+03  0.00000000000E+00 0. -1.
         25    2    1    2    0    0 -0.11782846142E+03 -0.14760590511E+03 -0.20287263295E+03  0.30409809103E+03  0.12508914511E+03 0.  0.
          5    1    3    3  502    0  0.11046663871E+02 -0.87100031209E+01 -0.72727962335E+02  0.74193812696E+02  0.41800000000E+01 0.  1.
         -5    1    3    3    0  502 -0.12887512529E+03 -0.13889590199E+03 -0.13014467062E+03  0.22990427834E+03  0.41800000000E+01 0.  1.
        -11    1    1    2    0    0  0.13053581101E+03  0.10713571848E+03 -0.28684453108E+03  0.33286250185E+03  0.00000000000E+00 0.  1.
         11    1    1    2    0    0 -0.12707349594E+02  0.40470186630E+02 -0.99119146100E+02  0.10781427486E+03  0.00000000000E+00 0. -1.
</event>
<event>
 7    1  0.2732144E-009  0.1064121E+03  0.7561462E-02  0.1267362E+00
         -2   -1    0    0    0  501 -0.00000000000E+00  0.00000000000E+00  0.61019871969E+02  0.61019871969E+02  0.00000000000E+00 0.  1.
          2   -1    0    0  501    0  0.00000000000E+00 -0.00000000000E+00 -0.26927695577E+03  0.26927695577E+03  0.00000000000E+00 0. -1.
         25    2    1    2    0    0 -0.26972564593E+02 -0.44778702826E+02 -0.17638135196E+03  0.22246334040E+03  0.12508758946E+03 0.  0.
          5    1    3    3  502    0 -0.47345565834E+02 -0.79183219517E+02 -0.14289811159E+03  0.17014384371E+03  0.41800000000E+01 0.  1.
         -5    1    3    3    0  502  0.20373001241E+02  0.34404516691E+02 -0.33483240377E+02  0.52319496695E+02  0.41800000000E+01 0.  1.
        -11    1    1    2    0    0 -0.33095478104E+01 -0.13872576054E+02  0.19521000819E+02  0.24175833927E+02  0.00000000000E+00 0.  1.
         11    1    1    2    0    0  0.30282112403E+02  0.58651278880E+02 -0.51396732659E+02  0.83657653409E+02  0.00000000000E+00 0. -1.
</event>
<event>
 7    1  0.2732144E-009  0.9529780E+02  0.7561462E-02  0.1290507E+00
          2   -1    0    0  501    0  0.00000000000E+00  0.00000000000E+00  0.50823637998E+03  0.50823637998E+03  0.00000000000E+00 0. -1.
         -2   -1    0    0    0  501 -0.00000000000E+00 -0.00000000000E+00 -0.29246786991E+02  0.29246786991E+02  0.00000000000E+00 0.  1.
         25    2    1    2    0    0  0.45392469922E+02 -0.32974044358E+02  0.30429573136E+03  0.33375297657E+03  0.12508954121E+03 0.  0.
          5    1    3    3  502    0  0.40447687120E+01 -0.47032389827E+02  0.27923495237E+03  0.28322788858E+03  0.41800000000E+01 0.  1.
         -5    1    3    3    0  502  0.41347701210E+02  0.14058345469E+02  0.25060778992E+02  0.50525087990E+02  0.41800000000E+01 0.  1.
        -11    1    1    2    0    0  0.75398744668E+00  0.50104051873E+02  0.55511805365E+02  0.74783320640E+02  0.00000000000E+00 0. -1.
         11    1    1    2    0    0 -0.46146457369E+02 -0.17130007515E+02  0.11918205626E+03  0.12894686976E+03  0.00000000000E+00 0.  1.
</event>
<event>
 7    1  0.2732144E-009  0.8781620E+02  0.7561462E-02  0.1308228E+00
          1   -1    0    0  501    0  0.00000000000E+00  0.00000000000E+00  0.12214500902E+03  0.12214500902E+03  0.00000000000E+00 0. -1.
         -1   -1    0    0    0  501 -0.00000000000E+00 -0.00000000000E+00 -0.12504191075E+03  0.12504191075E+03  0.00000000000E+00 0.  1.
         25    2    1    2    0    0  0.45980848129E+02 -0.20670433045E+02 -0.24688433523E+02  0.13710314860E+03  0.12508496876E+03 0.  0.
          5    1    3    3  502    0  0.70752413064E+02  0.11677152052E+02  0.21876725889E+02  0.75088769933E+02  0.41800000000E+01 0. -1.
         -5    1    3    3    0  502 -0.24771564935E+02 -0.32347585097E+02 -0.46565159412E+02  0.62014378672E+02  0.41800000000E+01 0. -1.
        -11    1    1    2    0    0 -0.43398379209E+02  0.14202982548E+01 -0.31315867240E+02  0.53536156998E+02  0.00000000000E+00 0.  1.
         11    1    1    2    0    0 -0.25824689196E+01  0.19250134791E+02  0.53107399037E+02  0.56547614164E+02  0.00000000000E+00 0. -1.
</event>
<event>
 7    1  0.2732144E-009  0.1337961E+03  0.7561462E-02  0.1221929E+00
          3   -1    0    0  501    0  0.00000000000E+00  0.00000000000E+00  0.20107387842E+03  0.20107387842E+03  0.00000000000E+00 0. -1.
         -3   -1    0    0    0  501 -0.00000000000E+00 -0.00000000000E+00 -0.10900521857E+03  0.10900521857E+03  0.00000000000E+00 0.  1.
         25    2    1    2    0    0 -0.10030359966E+03  0.49134864855E+00  0.44387779521E+02  0.16636985193E+03  0.12509036387E+03 0.  0.
          5    1    3    3  502    0  0.10598730795E+02  0.38672173480E+02  0.24934945003E+02  0.47403522849E+02  0.41800000000E+01 0. -1.
         -5    1    3    3    0  502 -0.11090233045E+03 -0.38180824832E+02  0.19452834518E+02  0.11896632908E+03  0.41800000000E+01 0. -1.
        -11    1    1    2    0    0  0.72044231195E+02 -0.20944701100E+02 -0.10613736360E+02  0.75774026897E+02  0.00000000000E+00 0. -1.
         11    1    1    2    0    0  0.28259368461E+02  0.20453352451E+02  0.58294616686E+02  0.67935218163E+02  0.00000000000E+00 0.  1.
</event>
<event>
 7    1  0.2732144E-009  0.1179946E+03  0.7561462E-02  0.1246442E+00
          2   -1    0    0  501    0  0.00000000000E+00  0.00000000000E+00  0.98038004717E+02  0.98038004717E+02  0.00000000000E+00 0. -1.
         -2   -1    0    0    0  501 -0.00000000000E+00 -0.00000000000E+00 -0.15567537844E+03  0.15567537844E+03  0.00000000000E+00 0.  1.
         25    2    1    2    0    0  0.51524556089E+01 -0.58955819622E+02 -0.40512668052E+02  0.14419828957E+03  0.12509809741E+03 0.  0.
          5    1    3    3  502    0 -0.11155290186E+02  0.36743799378E+02  0.74295238081E+00  0.38633815112E+02  0.41800000000E+01 0.  1.
         -5    1    3    3    0  502  0.16307745795E+02 -0.95699619000E+02 -0.41255620432E+02  0.10556447445E+03  0.41800000000E+01 0.  1.
        -11    1    1    2    0    0 -0.22767002222E+02  0.73753900986E+02  0.53244685881E+01  0.77371340085E+02  0.00000000000E+00 0. -1.
         11    1    1    2    0    0  0.17614546613E+02 -0.14798081364E+02 -0.22449174257E+02  0.32143753503E+02  0.00000000000E+00 0.  1.
</event>
<event>
 7    1  0.2732144E-009  0.1383830E+03  0.7561462E-02  0.1215521E+00
          2   -1    0    0  501    0  0.00000000000E+00  0.00000000000E+00  0.12353789957E+03  0.12353789957E+03  0.00000000000E+00 0. -1.
         -2   -1    0    0    0  501 -0.00000000000E+00 -0.00000000000E+00 -0.18724017871E+03  0.18724017871E+03  0.00000000000E+00 0.  1.
         25    2    1    2    0    0  0.47254322054E+02 -0.10069079899E+03  0.42576513563E+00  0.16738847862E+03  0.12508842291E+03 0.  0.
          5    1    3    3  502    0  0.31109610036E+02  0.15669603906E+02 -0.29782363816E+02  0.46019625353E+02  0.41800000000E+01 0.  1.
         -5    1    3    3    0  502  0.16144712018E+02 -0.11636040290E+03  0.30208128952E+02  0.12136885327E+03  0.41800000000E+01 0.  1.
        -11    1    1    2    0    0  0.12509958499E+02  0.13274225007E+02  0.23008175676E+01  0.18384718455E+02  0.00000000000E+00 0. -1.
         11    1    1    2    0    0 -0.59764280552E+02  0.87416573988E+02 -0.66428861848E+02  0.12500488120E+03  0.00000000000E+00 0.  1.
</event>
<event>
 7    1  0.2732144E-009  0.1136204E+03  0.7561462E-02  0.1254009E+00
         -2   -1    0    0    0  501 -0.00000000000E+00  0.00000000000E+00  0.10870721977E+03  0.10870721977E+03  0.00000000000E+00 0.  1.
          2   -1    0    0  501    0  0.00000000000E+00 -0.00000000000E+00 -0.14328670420E+03  0.14328670420E+03  0.00000000000E+00 0. -1.
         25    2    1    2    0    0 -0.50572668731E+02  0.26623100915E+02 -0.41538860497E+02  0.14366256527E+03  0.12508825447E+03 0.  0.
          5    1    3    3  502    0 -0.68684173737E+02 -0.31277826058E+02 -0.13852130963E+02  0.76845117327E+02  0.41800000000E+01 0.  1.
         -5    1    3    3    0  502  0.18111505006E+02  0.57900926973E+02 -0.27686729534E+02  0.66817447948E+02  0.41800000000E+01 0.  1.
        -11    1    1    2    0    0  0.14308404110E+02  0.24375960162E+02 -0.25294214102E+02  0.37930398482E+02  0.00000000000E+00 0. -1.
         11    1    1    2    0    0  0.36264264621E+02 -0.50999061077E+02  0.32253590171E+02  0.70400960208E+02  0.00000000000E+00 0.  1.
</event>
<event>
 7    1  0.2732144E-009  0.1345657E+03  0.7561462E-02  0.1220834E+00
          1   -1    0    0  501    0  0.00000000000E+00  0.00000000000E+00  0.50195549845E+02  0.50195549845E+02  0.00000000000E+00 0. -1.
         -1   -1    0    0    0  501 -0.00000000000E+00 -0.00000000000E+00 -0.50722795534E+03  0.50722795534E+03  0.00000000000E+00 0.  1.
         25    2    1    2    0    0  0.70838991391E+02 -0.89704803723E+02 -0.20708488784E+03  0.26757590956E+03  0.12509037570E+03 0.  0.
          5    1    3    3  502    0  0.39840025007E+02 -0.16097277226E+02 -0.17689929226E+03  0.18209113633E+03  0.41800000000E+01 0.  1.
         -5    1    3    3    0  502  0.30998966384E+02 -0.73607526497E+02 -0.30185595574E+02  0.85484773229E+02  0.41800000000E+01 0.  1.
        -11    1    1    2    0    0 -0.13752834342E+02 -0.18848745688E+02 -0.51808130683E+02  0.56819873911E+02  0.00000000000E+00 0.  1.
         11    1    1    2    0    0 -0.57086157049E+02  0.10855354941E+03 -0.19813938698E+03  0.23302772171E+03  0.00000000000E+00 0. -1.
</event>
<event>
 7    1  0.2732144E-009  0.2033592E+03  0.7561462E-02  0.1146935E+00
         -1   -1    0    0    0  501 -0.00000000000E+00  0.00000000000E+00  0.28396931388E+03  0.28396931388E+03  0.00000000000E+00 0.  1.
          1   -1    0    0  501    0  0.00000000000E+00 -0.00000000000E+00 -0.19235090257E+03  0.19235090257E+03  0.00000000000E+00 0. -1.
         25    2    1    2    0    0 -0.17849045723E+03  0.76845200289E+02  0.11930945160E+03  0.26008943877E+03  0.12509093808E+03 0.  0.
          5    1    3    3  502    0 -0.78291683796E+02 -0.14608953127E+01 -0.95529781560E+01  0.78996542699E+02  0.41800000000E+01 0. -1.
         -5    1    3    3    0  502 -0.10019877344E+03  0.78306095602E+02  0.12886242975E+03  0.18109289607E+03  0.41800000000E+01 0. -1.
        -11    1    1    2    0    0  0.68714144672E+02 -0.30327686809E+01  0.25910314341E+02  0.73499494917E+02  0.00000000000E+00 0.  1.
         11    1    1    2    0    0  0.10977631256E+03 -0.73812431608E+02 -0.53601354632E+02  0.14273128276E+03  0.00000000000E+00 0. -1.
</event>
<event>
 7    1  0.2732144E-009  0.9742954E+02  0.7561462E-02  0.1285796E+00
         -1   -1    0    0    0  501 -0.00000000000E+00  0.00000000000E+00  0.82525081278E+02  0.82525081278E+02  0.00000000000E+00 0.  1.
          1   -1    0    0  501    0  0.00000000000E+00 -0.00000000000E+00 -0.16584647682E+03  0.16584647682E+03  0.00000000000E+00 0. -1.
         25    2    1    2    0    0 -0.12626153006E+02  0.28687929809E+02 -0.78149185206E+02  0.15078936319E+03  0.12509084637E+03 0.  0.
          5    1    3    3  502    0  0.38039366984E+02  0.58505404168E+02 -0.45519588744E+02  0.83422905229E+02  0.41800000000E+01 0.  1.
         -5    1    3    3    0  502 -0.50665519989E+02 -0.29817474359E+02 -0.32629596462E+02  0.67366457961E+02  0.41800000000E+01 0.  1.
        -11    1    1    2    0    0  0.12445291050E+01 -0.45605706408E+02  0.31626014861E+02  0.55512468200E+02  0.00000000000E+00 0.  1.
         11    1    1    2    0    0  0.11381623901E+02  0.16917776599E+02 -0.36798225193E+02  0.42069726705E+02  0.00000000000E+00 0. -1.
</event>
<event>
 7    1  0.2732144E-009  0.9162659E+02  0.7561462E-02  0.1298960E+00
          2   -1    0    0  501    0  0.00000000000E+00  0.00000000000E+00  0.47518025217E+03  0.47518025217E+03  0.00000000000E+00 0.  1.
         -2   -1    0    0    0  501 -0.00000000000E+00 -0.00000000000E+00 -0.44420852234E+02  0.44420852234E+02  0.00000000000E+00 0. -1.
         25    2    1    2    0    0  0.92244225667E+01 -0.19058176533E+02  0.40287010764E+03  0.42236938382E+03  0.12507305342E+03 0.  0.
          5    1    3    3  502    0 -0.55877600306E+02 -0.21828365984E+02  0.16182333459E+03  0.17263559249E+03  0.41800000000E+01 0.  1.
         -5    1    3    3    0  502  0.65102022873E+02  0.27701894508E+01  0.24104677305E+03  0.24973379133E+03  0.41800000000E+01 0.  1.
        -11    1    1    2    0    0  0.20943189455E+02 -0.19912387921E+01  0.50046670556E+02  0.54288594108E+02  0.00000000000E+00 0.  1.
         11    1    1    2    0    0 -0.30167612021E+02  0.21049415326E+02 -0.22157378258E+02  0.42943126480E+02  0.00000000000E+00 0. -1.
</event>
<event>
 7    1  0.2732144E-009  0.8546565E+02  0.7561462E-02  0.1314219E+00
         -2   -1    0    0    0  501 -0.00000000000E+00  0.00000000000E+00  0.17128395639E+02  0.17128395639E+02  0.00000000000E+00 0.  1.
          2   -1    0    0  501    0  0.00000000000E+00 -0.00000000000E+00 -0.77670135028E+03  0.77670135028E+03  0.00000000000E+00 0. -1.
         25    2    1    2    0    0  0.29965441825E+02 -0.24374043787E+02 -0.37352266589E+03  0.39580186641E+03  0.12509162167E+03 0.  0.
          5    1    3    3  502    0 -0.86484665768E+01 -0.35471626961E+02 -0.34353143529E+03  0.34549146404E+03  0.41800000000E+01 0. -1.
         -5    1    3    3    0  502  0.38613908401E+02  0.11097583173E+02 -0.29991230595E+02  0.50310402373E+02  0.41800000000E+01 0. -1.
        -11    1    1    2    0    0 -0.60240138333E+02  0.14734726532E+02 -0.29892183117E+03  0.30528715594E+03  0.00000000000E+00 0. -1.
         11    1    1    2    0    0  0.30274696508E+02  0.96393172549E+01 -0.87128457587E+02  0.92740723565E+02  0.00000000000E+00 0.  1.
</event>
<event>
 7    1  0.2732144E-009  0.8976607E+02  0.7561462E-02  0.1303419E+00
          2   -1    0    0  501    0  0.00000000000E+00  0.00000000000E+00  0.11956332469E+03  0.11956332469E+03  0.00000000000E+00 0. -1.
         -2   -1    0    0    0  501 -0.00000000000E+00 -0.00000000000E+00 -0.10511966953E+03  0.10511966953E+03  0.00000000000E+00 0.  1.
         25    2    1    2    0    0 -0.26824444443E+02 -0.72276829775E+01  0.15469439151E+02  0.12906828344E+03  0.12509007963E+03 0.  0.
          5    1    3    3  502    0  0.40141289927E+02  0.10305441577E+02 -0.25190840009E+02  0.48678291912E+02  0.41800000000E+01 0. -1.
         -5    1    3    3    0  502 -0.66965734370E+02 -0.17533124555E+02  0.40660279160E+02  0.80389991527E+02  0.41800000000E+01 0. -1.
        -11    1    1    2    0    0  0.25796768951E+02 -0.25213646897E+02 -0.33839510575E+02  0.49460223959E+02  0.00000000000E+00 0.  1.
         11    1    1    2    0    0  0.10276754920E+01  0.32441329874E+02  0.32813726591E+02  0.46154486821E+02  0.00000000000E+00 0. -1.
</event>
<event>
 6    1  0.2732144E-009  0.8817414E+02  0.7561462E-02  0.1307334E+00
         -1   -1    0    0    0  501 -0.00000000000E+00  0.00000000000E+00  0.58904163479E+03  0.58904163479E+03  0.00000000000E+00 0.  1.
          1   -1    0    0  501    0  0.00000000000E+00 -0.00000000000E+00 -0.79364787425E+02  0.79364787425E+02  0.00000000000E+00 0. -1.
          5    1    1    2  502    0  0.76343195367E+01 -0.61754210678E+02  0.10987464807E+03  0.12633992267E+03  0.41800000000E+01 0.  1.
         -5    1    1    2    0  502  0.19260687558E+01  0.11667357182E+02  0.43290415985E+03  0.43308581249E+03  0.41800000000E+01 0.  1.
        -11    1    1    2    0    0 -0.45075242940E+02  0.48027856208E+02 -0.10149242411E+02  0.66644276720E+02  0.00000000000E+00 0. -1.
         11    1    1    2    0    0  0.35514854647E+02  0.20589972877E+01 -0.22952718141E+02  0.42336410340E+02  0.00000000000E+00 0.  1.
</event>
<event>
 7    1  0.2732144E-009  0.8691853E+02  0.7561462E-02  0.1310490E+00
         -2   -1    0    0    0  501 -0.00000000000E+00  0.00000000000E+00  0.35513357619E+02  0.35513357619E+02  0.00000000000E+00 0.  1.
          2   -1    0    0  501    0  0.00000000000E+00 -0.00000000000E+00 -0.40744434258E+03  0.40744434258E+03  0.00000000000E+00 0. -1.
         25    2    1    2    0    0 -0.14142345264E+02  0.24339295111E+01 -0.30437991696E+03  0.32939199531E+03  0.12508406286E+03 0.  0.
          5    1    3    3  502    0 -0.48781615471E+02 -0.44964177722E+02 -0.17704607231E+03  0.18911427076E+03  0.41800000000E+01 0.  1.
         -5    1    3    3    0  502  0.34639270207E+02  0.47398107234E+02 -0.12733384466E+03  0.14027772455E+03  0.41800000000E+01 0.  1.
        -11    1    1    2    0    0 -0.16175418655E+02  0.56437294466E+01 -0.78490141950E+02  0.80338024833E+02  0.00000000000E+00 0. -1.
         11    1    1    2    0    0  0.30317763919E+02 -0.80776589577E+01  0.10939073948E+02  0.33227680059E+02  0.00000000000E+00 0.  1.
</event>
<event>
 7    1  0.2732144E-009  0.1017557E+03  0.7561462E-02  0.1276647E+00
          1   -1    0    0  501    0  0.00000000000E+00  0.00000000000E+00  0.94935958441E+02  0.94935958441E+02  0.00000000000E+00 0. -1.
         -1   -1    0    0    0  501 -0.00000000000E+00 -0.00000000000E+00 -0.15215501924E+03  0.15215501924E+03  0.00000000000E+00 0.  1.
         25    2    1    2    0    0  0.42094298186E+02  0.65417681626E+01 -0.56031410914E+02  0.14351667271E+03  0.12507114642E+03 0.  0.
          5    1    3    3  502    0  0.15492130579E+02  0.52613748330E+02  0.12746671202E+02  0.56463817175E+02  0.41800000000E+01 0. -1.
         -5    1    3    3    0  502  0.26602167606E+02 -0.46071980168E+02 -0.68778082116E+02  0.87052855539E+02  0.41800000000E+01 0. -1.
        -11    1    1    2    0    0 -0.35047614150E+02  0.37039865267E+02  0.19786940562E+02  0.54697439550E+02  0.00000000000E+00 0. -1.
         11    1    1    2    0    0 -0.70466840355E+01 -0.43581633429E+02 -0.20974590444E+02  0.48876865413E+02  0.00000000000E+00 0.  1.
</event>
<event>
 7    1  0.2732144E-009  0.7848805E+02  0.7561462E-02  0.1333398E+00
         -2   -1    0    0    0  501 -0.00000000000E+00  0.00000000000E+00  0.11065643947E+03  0.11065643947E+03  0.00000000000E+00 0.  1.
          2   -1    0    0  501    0  0.00000000000E+00 -0.00000000000E+00 -0.11782663664E+03  0.11782663664E+03  0.00000000000E+00 0. -1.
         25    2    1    2    0    0 -0.23111426819E+02 -0.20329796514E+02  0.22001318702E+02  0.13064932482E+03  0.12505098711E+03 0.  0.
          5    1    3    3  502    0 -0.63254921831E+02 -0.12522243578E+02  0.49321621027E+02  0.81290137291E+02  0.41800000000E+01 0.  1.
         -5    1    3    3    0  502  0.40143495012E+02 -0.78075529356E+01 -0.27320302324E+02  0.49359187531E+02  0.41800000000E+01 0.  1.
        -11    1    1    2    0    0  0.16296943064E+02 -0.10689908024E+02  0.27003484119E+02  0.33302441972E+02  0.00000000000E+00 0.  1.
         11    1    1    2    0    0  0.68144837552E+01  0.31019704537E+02 -0.56174999989E+02  0.64531309317E+02  0.00000000000E+00 0. -1.
</event>
<event>
 7    1  0.2732144E-009  0.2096080E+03  0.7561462E-02  0.1141877E+00
         -2   -1    0    0    0  501 -0.00000000000E+00  0.00000000000E+00  0.20035085873E+03  0.20035085873E+03  0.00000000000E+00 0.  1.
          2   -1    0    0  501    0  0.00000000000E+00 -0.00000000000E+00 -0.24543896641E+03  0.24543896641E+03  0.00000000000E+00 0. -1.
         25    2    1    2    0    0  0.13759624853E+03 -0.13657401833E+03 -0.35538456837E+02  0.23344289848E+03  0.12508962724E+03 0.  0.
          5    1    3    3  502    0  0.20549496585E+01 -0.57540310161E+02 -0.49258828553E+02  0.75888172346E+02  0.41800000000E+01 0. -1.
         -5    1    3    3    0  502  0.13554129887E+03 -0.79033708173E+02  0.13720371716E+02  0.15755472614E+03  0.41800000000E+01 0. -1.
        -11    1    1    2    0    0 -0.70780408347E+02  0.26131006667E+02  0.23640320030E+02  0.79066810017E+02  0.00000000000E+00 0.  1.
         11    1    1    2    0    0 -0.66815840186E+02  0.11044301167E+03 -0.33189970874E+02  0.13328011664E+03  0.00000000000E+00 0. -1.
</event>
<event>
 7    1  0.2732144E-009  0.1652450E+03  0.7561462E-02  0.1182899E+00
          4   -1    0    0  501    0  0.00000000000E+00  0.00000000000E+00  0.46448812677E+03  0.46448812677E+03  0.00000000000E+00 0.  1.
         -4   -1    0    0    0  501 -0.00000000000E+00 -0.00000000000E+00 -0.66020848393E+02  0.66020848393E+02  0.00000000000E+00 0. -1.
         25    2    1    2    0    0  0.95934790199E+02 -0.87143919004E+02  0.28225585268E+03  0.33483155972E+03  0.12508501278E+03 0.  0.
          5    1    3    3  502    0  0.25230402575E+02 -0.99864296716E+02  0.12596661325E+03  0.16277134584E+03  0.41800000000E+01 0. -1.
         -5    1    3    3    0  502  0.70704387623E+02  0.12720377712E+02  0.15628923943E+03  0.17206021388E+03  0.41800000000E+01 0. -1.
        -11    1    1    2    0    0 -0.55447501554E+02 -0.41202225883E+01  0.27104514941E+02  0.61855124226E+02  0.00000000000E+00 0. -1.
         11    1    1    2    0    0 -0.40487288644E+02  0.91264141592E+02  0.89106910749E+02  0.13382229121E+03  0.00000000000E+00 0.  1.
</event>
<event>
 6    1  0.2732144E-009  0.2044934E+03  0.7561462E-02  0.1146002E+00
          3   -1    0    0  501    0  0.00000000000E+00  0.00000000000E+00  0.23322873627E+03  0.23322873627E+03  0.00000000000E+00 0. -1.
         -3   -1    0    0    0  501 -0.00000000000E+00 -0.00000000000E+00 -0.26691175920E+03  0.26691175920E+03  0.00000000000E+00 0.  1.
          5    1    1    2  502    0 -0.39200644255E+02  0.89655061899E+01 -0.87019514349E+02  0.95952796149E+02  0.41800000000E+01 0. -1.
         -5    1    1    2    0  502 -0.15806755263E+03 -0.48396698236E+02 -0.29081784503E+02  0.16790120364E+03  0.41800000000E+01 0. -1.
        -11    1    1    2    0    0  0.55007392845E+02 -0.19337313365E+01  0.67925539156E+02  0.87426720481E+02  0.00000000000E+00 0. -1.
         11    1    1    2    0    0  0.14226080404E+03  0.41364923382E+02  0.14492736768E+02  0.14885977519E+03  0.00000000000E+00 0.  1.
</event>
<event>
 7    1  0.2732144E-009  0.1173212E+03  0.7561462E-02  0.1247583E+00
          2   -1    0    0  501    0  0.00000000000E+00  0.00000000000E+00  0.96853814785E+02  0.96853814785E+02  0.00000000000E+00 0.  1.
         -2   -1    0    0    0  501 -0.00000000000E+00 -0.00000000000E+00 -0.15931408965E+03  0.15931408965E+03  0.00000000000E+00 0. -1.
         25    2    1    2    0    0 -0.30882577454E+02 -0.52072923527E+02 -0.27699467121E+02  0.14170578242E+03  0.12509174768E+03 0.  0.
          5    1    3    3  502    0 -0.19803445544E+02 -0.91642646115E+02 -0.34211192741E+02  0.99892087530E+02  0.41800000000E+01 0. -1.
         -5    1    3    3    0  502 -0.11079131910E+02  0.39569722587E+02  0.65117256201E+01  0.41813694887E+02  0.41800000000E+01 0. -1.
        -11    1    1    2    0    0 -0.26937358113E+02  0.15703021616E+02 -0.34024648815E+02  0.46150654134E+02  0.00000000000E+00 0.  1.
         11    1    1    2    0    0  0.57819935567E+02  0.36369901912E+02 -0.73615892530E+00  0.68311467881E+02  0.00000000000E+00 0. -1.
</event>
<event>
 7    1  0.2732144E-009  0.8934812E+02  0.7561462E-02  0.1304438E+00
         -2   -1    0    0    0  501 -0.00000000000E+00  0.00000000000E+00  0.11306847442E+03  0.11306847442E+03  0.00000000000E+00 0.  1.
          2   -1    0    0  501    0  0.00000000000E+00 -0.00000000000E+00 -0.15384725188E+03  0.15384725188E+03  0.00000000000E+00 0. -1.
         25    2    1    2    0    0 -0.47296261034E+02 -0.48257419546E+02  0.97587666427E+01  0.14253348852E+03  0.12511933094E+03 0.  0.
          5    1    3    3  502    0 -0.17072588305E+02 -0.38425684914E+02  0.65666858095E+02  0.78087228051E+02  0.41800000000E+01 0. -1.
         -5    1    3    3    0  502 -0.30223672729E+02 -0.98317346318E+01 -0.55908091453E+02  0.64446260473E+02  0.41800000000E+01 0. -1.
        -11    1    1    2    0    0 -0.22446429897E+02  0.78338403701E+01 -0.34963528142E+02  0.42280723388E+02  0.00000000000E+00 0.  1.
         11    1    1    2    0    0  0.69742690931E+02  0.40423579176E+02 -0.15574015965E+02  0.82101514389E+02  0.00000000000E+00 0. -1.
</event>
<event>
 7    1  0.2732144E-009  0.8536306E+02  0.7561462E-02  0.1314486E+00
          2   -1    0    0  501    0  0.00000000000E+00  0.00000000000E+00  0.36246365014E+03  0.36246365014E+03  0.00000000000E+00 0. -1.
         -2   -1    0    0    0  501 -0.00000000000E+00 -0.00000000000E+00 -0.36773114995E+02  0.36773114995E+02  0.00000000000E+00 0.  1.
         25    2    1    2    0    0 -0.36615371384E+02 -0.43677870456E+02  0.14745086356E+03  0.20159095030E+03  0.12509481320E+03 0.  0.
          5    1    3    3  502    0 -0.62917815083E+02 -0.37338411223E+02  0.27047326871E+02  0.78114266932E+02  0.41800000000E+01 0. -1.
         -5    1    3    3    0  502  0.26302443699E+02 -0.63394592323E+01  0.12040353669E+03  0.12347668337E+03  0.41800000000E+01 0. -1.
        -11    1    1    2    0    0  0.91676669016E+01 -0.75981907423E+01  0.20209531856E+01  0.12077370192E+02  0.00000000000E+00 0.  1.
         11    1    1    2    0    0  0.27447704482E+02  0.51276061198E+02  0.17621871840E+03  0.18556844465E+03  0.00000000000E+00 0. -1.
</event>
<event>
 7    1  0.2732144E-009  0.1199175E+03  0.7561462E-02  0.1243233E+00
         -1   -1    0    0    0  501 -0.00000000000E+00  0.00000000000E+00  0.75584768971E+03  0.75584768971E+03  0.00000000000E+00 0.  1.
          1   -1    0    0  501    0  0.00000000000E+00 -0.00000000000E+00 -0.25926640290E+02  0.25926640290E+02  0.00000000000E+00 0. -1.
         25    2    1    2    0    0 -0.71034102445E+02 -0.13733033526E+02  0.54040442405E+03  0.55939153974E+03  0.12509002067E+03 0.  0.
          5    1    3    3  502    0 -0.52980282586E+02 -0.66143004525E+02  0.38790110113E+03  0.39707246700E+03  0.41800000000E+01 0. -1.
         -5    1    3    3    0  502 -0.18053819859E+02  0.52409971000E+02  0.15250332292E+03  0.16231907273E+03  0.41800000000E+01 0. -1.
        -11    1    1    2    0    0  0.34901630922E+02 -0.27600880594E+02  0.14508636365E+03  0.15175633551E+03  0.00000000000E+00 0.  1.
         11    1    1    2    0    0  0.36132471524E+02  0.41333914119E+02  0.44430261717E+02  0.70626454754E+02  0.00000000000E+00 0. -1.
</event>
<event>
 7    1  0.2732144E-009  0.1134881E+03  0.7561462E-02  0.1254243E+00
          1   -1    0    0  501    0  0.00000000000E+00  0.00000000000E+00  0.27149138230E+03  0.27149138230E+03  0.00000000000E+00 0. -1.
         -1   -1    0    0    0  501 -0.00000000000E+00 -0.00000000000E+00 -0.70498051330E+02  0.70498051330E+02  0.00000000000E+00 0.  1.
         25    2    1    2    0    0 -0.20543930070E+02  0.75495651131E+02  0.67568060784E+02  0.16227944858E+03  0.12509008830E+03 0.  0.
          5    1    3    3  502    0 -0.48865202201E+02  0.15842018607E+01 -0.11418877678E+02  0.50380361741E+02  0.41800000000E+01 0. -1.
         -5    1    3    3    0  502  0.28321272131E+02  0.73911449270E+02  0.78986938462E+02  0.11189908684E+03  0.41800000000E+01 0. -1.
        -11    1    1    2    0    0  0.23837284267E+02 -0.77305660811E+00 -0.30886033615E+01  0.24048975206E+02  0.00000000000E+00 0.  1.
         11    1    1    2    0    0 -0.32933541967E+01 -0.74722594523E+02  0.13651387355E+03  0.15566100984E+03  0.00000000000E+00 0. -1.
</event>
<event>
 7    1  0.2732144E-009  0.1232458E+03  0.7561462E-02  0.1237837E+00
          2   -1    0    0  501    0  0.00000000000E+00  0.00000000000E+00  0.35417658798E+03  0.35417658798E+03  0.00000000000E+00 0. -1.
         -2   -1    0    0    0  501 -0.00000000000E+00 -0.00000000000E+00 -0.62188874795E+02  0.62188874795E+02  0.00000000000E+00 0.  1.
         25    2    1    2    0    0  0.41557014907E+02 -0.50385353690E+02  0.74645711482E+02  0.15964161456E+03  0.12509114078E+03 0.  0.
          5    1    3    3  502    0 -0.32157905557E+02 -0.21437529210E+02 -0.13425029545E+02  0.41126662480E+02  0.41800000000E+01 0. -1.
         -5    1    3    3    0  502  0.73714920464E+02 -0.28947824480E+02  0.88070741027E+02  0.11851495208E+03  0.41800000000E+01 0. -1.
        -11    1    1    2    0    0 -0.65100668038E+02  0.71493179175E+02  0.11847727106E+03  0.15292558780E+03  0.00000000000E+00 0.  1.
         11    1    1    2    0    0  0.23543653132E+02 -0.21107825485E+02  0.98864730641E+02  0.10379826041E+03  0.00000000000E+00 0. -1.
</event>
<event>
 7    1  0.2732144E-009  0.1140026E+03  0.7561462E-02  0.1253332E+00
         -2   -1    0    0    0  501 -0.00000000000E+00  0.00000000000E+00  0.92139701458E+01  0.92139701458E+01  0.00000000000E+00 0.  1.
          2   -1    0    0  501    0  0.00000000000E+00 -0.00000000000E+00 -0.16434206132E+04  0.16434206132E+04  0.00000000000E+00 0. -1.
         25    2    1    2    0    0 -0.21166874670E+02  0.45542927343E+02 -0.11082482439E+04  0.11164149838E+04  0.12508417613E+03 0.  0.
          5    1    3    3  502    0  0.46415998090E+02  0.11121522631E+02 -0.23290041736E+03  0.23777764813E+03  0.41800000000E+01 0. -1.
         -5    1    3    3    0  502 -0.67582872761E+02  0.34421404712E+02 -0.87534782654E+03  0.87863733566E+03  0.41800000000E+01 0. -1.
        -11    1    1    2    0    0 -0.36185329833E+02 -0.15182441833E+02 -0.18000633843E+03  0.18423399933E+03  0.00000000000E+00 0.  1.
         11    1    1    2    0    0  0.57352204503E+02 -0.30360485511E+02 -0.34595206070E+03  0.35198560020E+03  0.00000000000E+00 0. -1.
</event>
<event>
 7    1  0.2732144E-009  0.1701940E+03  0.7561462E-02  0.1177646E+00
          1   -1    0    0  501    0  0.00000000000E+00  0.00000000000E+00  0.43386174625E+02  0.43386174625E+02  0.00000000000E+00 0. -1.
         -1   -1    0    0    0  501 -0.00000000000E+00 -0.00000000000E+00 -0.10593345663E+04  0.10593345663E+04  0.00000000000E+00 0.  1.
         25    2    1    2    0    0  0.71990115457E+02 -0.13045074130E+03 -0.80699530962E+03  0.83011391623E+03  0.12509081313E+03 0.  0.
          5    1    3    3  502    0 -0.75388720471E+01 -0.93253992804E+02 -0.26554442214E+03  0.28157495325E+03  0.41800000000E+01 0.  1.
         -5    1    3    3    0  502  0.79528987505E+02 -0.37196748495E+02 -0.54145088748E+03  0.54853896298E+03  0.41800000000E+01 0.  1.
        -11    1    1    2    0    0  0.53302634691E+00  0.51997986175E+02 -0.12923591910E+03  0.13930541077E+03  0.00000000000E+00 0.  1.
         11    1    1    2    0    0 -0.72523141804E+02  0.78452755124E+02 -0.79717162920E+02  0.13330141390E+03  0.00000000000E+00 0. -1.
</event>
<event>
 7    1  0.2732144E-009  0.6987503E+02  0.7561462E-02  0.1360519E+00
          1   -1    0    0  501    0  0.00000000000E+00  0.00000000000E+00  0.18113516555E+02  0.18113516555E+02  0.00000000000E+00 0. -1.
         -1   -1    0    0    0  501 -0.00000000000E+00 -0.00000000000E+00 -0.69880876851E+03  0.69880876851E+03  0.00000000000E+00 0.  1.
         25    2    1    2    0    0 -0.31309677900E+02 -0.76089629660E+01 -0.41293038186E+03  0.43266229713E+03  0.12508785250E+03 0.  0.
          5    1    3    3  502    0 -0.21014385404E+02  0.12122094780E+02 -0.63119731960E+01  0.25413834449E+02  0.41800000000E+01 0. -1.
         -5    1    3    3    0  502 -0.10295292497E+02 -0.19731057746E+02 -0.40661840867E+03  0.40724846268E+03  0.41800000000E+01 0. -1.
        -11    1    1    2    0    0  0.72486162853E+01 -0.39195957196E+02 -0.81850983685E+02  0.91040919530E+02  0.00000000000E+00 0.  1.
         11    1    1    2    0    0  0.24061061615E+02  0.46804920162E+02 -0.18591388641E+03  0.19321906841E+03  0.00000000000E+00 0. -1.
</event>
<event>
 7    1  0.2732144E-009  0.1470955E+03  0.7561462E-02  0.1204088E+00
          2   -1    0    0  501    0  0.00000000000E+00  0.00000000000E+00  0.13634132190E+03  0.13634132190E+03  0.00000000000E+00 0. -1.
         -2   -1    0    0    0  501 -0.00000000000E+00 -0.00000000000E+00 -0.21756924539E+03  0.21756924539E+03  0.00000000000E+00 0.  1.
         25    2    1    2    0    0 -0.11943142507E+03  0.22935671144E+02 -0.99244885956E+02  0.20071478383E+03  0.12508783615E+03 0.  0.
          5    1    3    3  502    0 -0.44912078801E+02  0.65831246800E+02 -0.16867279743E+02  0.81564853972E+02  0.41800000000E+01 0. -1.
         -5    1    3    3    0  502 -0.74519346269E+02 -0.42895575656E+02 -0.82377606213E+02  0.11914992986E+03  0.41800000000E+01 0. -1.
        -11    1    1    2    0    0  0.13427309096E+02  0.10616043620E+02  0.36657430991E+02  0.40456893832E+02  0.00000000000E+00 0. -1.
         11    1    1    2    0    0  0.10600411597E+03 -0.33551714765E+02 -0.18640468527E+02  0.11273888963E+03  0.00000000000E+00 0.  1.
</event>
<event>
 7    1  0.2732144E-009  0.1081510E+03  0.7561462E-02  0.1264033E+00
         -2   -1    0    0    0  501 -0.00000000000E+00  0.00000000000E+00  0.25456851212E+02  0.25456851212E+02  0.00000000000E+00 0.  1.
          2   -1    0    0  501    0  0.00000000000E+00 -0.00000000000E+00 -0.72429810885E+03  0.72429810885E+03  0.00000000000E+00 0. -1.
         25    2    1    2    0    0  0.41061589108E+02  0.19315545179E+02 -0.57498490702E+03  0.59018171195E+03  0.12509062889E+03 0.  0.
          5    1    3    3  502    0 -0.42242765666E+02 -0.89560162505E+01 -0.23526528671E+03  0.23923187289E+03  0.41800000000E+01 0. -1.
         -5    1    3    3    0  502  0.83304354774E+02  0.28271561430E+02 -0.33971962031E+03  0.35094983905E+03  0.41800000000E+01 0. -1.
        -11    1    1    2    0    0  0.20738361995E+02 -0.32223811594E+01 -0.78466987614E+02  0.81225190327E+02  0.00000000000E+00 0.  1.
         11    1    1    2    0    0 -0.61799951103E+02 -0.16093164020E+02 -0.45389363005E+02  0.78348057784E+02  0.00000000000E+00 0. -1.
</event>
<event>
 7    1  0.2732144E-009  0.1012588E+03  0.7561462E-02  0.1277671E+00
          2   -1    0    0  501    0  0.00000000000E+00  0.00000000000E+00  0.14924769491E+04  0.14924769491E+04  0.00000000000E+00 0. -1.
         -2   -1    0    0    0  501 -0.00000000000E+00 -0.00000000000E+00 -0.13917463380E+02  0.13917463380E+02  0.00000000000E+00 0.  1.
         25    2    1    2    0    0 -0.61407700207E+01 -0.22594202994E+02  0.12903537751E+04  0.12966147234E+04  0.12509463967E+03 0.  0.
          5    1    3    3  502    0  0.44329297873E+02 -0.37594024514E+02  0.98533761891E+03  0.98705931583E+03  0.41800000000E+01 0.  1.
         -5    1    3    3    0  502 -0.50470067894E+02  0.14999821520E+02  0.30501615624E+03  0.30955540758E+03  0.41800000000E+01 0.  1.
        -11    1    1    2    0    0  0.44560044460E+02  0.28001842713E+02  0.12484042772E+03  0.13548001015E+03  0.00000000000E+00 0.  1.
         11    1    1    2    0    0 -0.38419274439E+02 -0.54076397190E+01  0.63365282856E+02  0.74299678917E+02  0.00000000000E+00 0. -1.
</event>
<event>
 7    1  0.2732144E-009  0.1117164E+03  0.7561462E-02  0.1257424E+00
         -2   -1    0    0    0  501 -0.00000000000E+00  0.00000000000E+00  0.13386665713E+02  0.13386665713E+02  0.00000000000E+00 0.  1.
          2   -1    0    0  501    0  0.00000000000E+00 -0.00000000000E+00 -0.11510312908E+04  0.11510312908E+04  0.00000000000E+00 0. -1.
         25    2    1    2    0    0  0.57043961903E+02  0.20916792961E+02 -0.68868500954E+03  0.70258490750E+03  0.12508790535E+03 0.  0.
          5    1    3    3  502    0  0.56258428980E+02 -0.32867672846E+02 -0.18826411858E+03  0.19926400953E+03  0.41800000000E+01 0. -1.
         -5    1    3    3    0  502  0.78553292290E+00  0.53784465807E+02 -0.50042089096E+03  0.50332089797E+03  0.41800000000E+01 0. -1.
        -11    1    1    2    0    0 -0.12989835747E+02  0.32471291658E+02 -0.96520027865E+02  0.10266078313E+03  0.00000000000E+00 0. -1.
         11    1    1    2    0    0 -0.44054126156E+02 -0.53388084618E+02 -0.35243958765E+03  0.35917226585E+03  0.00000000000E+00 0.  1.
</event>
<event>
 7    1  0.2732144E-009  0.1881885E+03  0.7561462E-02  0.1160105E+00
          1   -1    0    0  501    0  0.00000000000E+00  0.00000000000E+00  0.58084919871E+03  0.58084919871E+03  0.00000000000E+00 0. -1.
         -1   -1    0    0    0  501 -0.00000000000E+00 -0.00000000000E+00 -0.85203029022E+02  0.85203029022E+02  0.00000000000E+00 0.  1.
         25    2    1    2    0    0 -0.55835182169E+02 -0.16270778598E+03  0.39005388649E+03  0.44427580427E+03  0.12509022628E+03 0.  0.
          5    1    3    3  502    0  0.18960554889E+02 -0.98966103496E+02  0.27498770871E+03  0.29289845446E+03  0.41800000000E+01 0. -1.
         -5    1    3    3    0  502 -0.74795737058E+02 -0.63741682483E+02  0.11506617777E+03  0.15137734981E+03  0.41800000000E+01 0. -1.
        -11    1    1    2    0    0  0.57513221615E+02  0.10739901635E+03  0.11273086510E+03  0.16598363570E+03  0.00000000000E+00 0. -1.
         11    1    1    2    0    0 -0.16780394456E+01  0.55308769632E+02 -0.71385819021E+01  0.55792787761E+02  0.00000000000E+00 0.  1.
</event>
<event>
 7    1  0.2732144E-009  0.1282899E+03  0.7561462E-02  0.1230015E+00
          1   -1    0    0  501    0  0.00000000000E+00  0.00000000000E+00  0.43339761826E+03  0.43339761826E+03  0.00000000000E+00 0. -1.
         -1   -1    0    0    0  501 -0.00000000000E+00 -0.00000000000E+00 -0.46785438413E+02  0.46785438413E+02  0.00000000000E+00 0.  1.
         25    2    1    2    0    0  0.31585450152E+02 -0.71967373288E+02  0.29025181255E+03  0.32568508420E+03  0.12509083061E+03 0.  0.
          5    1    3    3  502    0 -0.37880230171E+01 -0.10063800104E+03  0.17947495271E+03  0.20584238490E+03  0.41800000000E+01 0. -1.
         -5    1    3    3    0  502  0.35373473169E+02  0.28670627747E+02  0.11077685984E+03  0.11984269930E+03  0.41800000000E+01 0. -1.
        -11    1    1    2    0    0 -0.35439567395E+02 -0.24666868442E+01  0.39028150620E+01  0.35739046525E+02  0.00000000000E+00 0.  1.
         11    1    1    2    0    0  0.38541172433E+01  0.74434060132E+02  0.92457552240E+02  0.11875892595E+03  0.00000000000E+00 0. -1.
</event>
<event>
 7    1  0.2732144E-009  0.1007257E+03  0.7561462E-02  0.1278777E+00
          2   -1    0    0  501    0  0.00000000000E+00  0.00000000000E+00  0.61510837731E+02  0.61510837731E+02  0.00000000000E+00 0. -1.
         -2   -1    0    0    0  501 -0.00000000000E+00 -0.00000000000E+00 -0.23689492223E+03  0.23689492223E+03  0.00000000000E+00 0.  1.
         25    2    1    2    0    0  0.26590483719E+02  0.38114536776E+02 -0.13006679683E+03  0.18634027384E+03  0.12508219009E+03 0.  0.
          5    1    3    3  502    0 -0.17303409659E+01  0.79182095547E+02 -0.56589415944E+02  0.97430142830E+02  0.41800000000E+01 0.  1.
         -5    1    3    3    0  502  0.28320824685E+02 -0.41067558771E+02 -0.73477380886E+02  0.88910131009E+02  0.41800000000E+01 0.  1.
        -11    1    1    2    0    0  0.78527802064E+01  0.10120057751E+02  0.20072604570E+02  0.23811576598E+02  0.00000000000E+00 0. -1.
         11    1    1    2    0    0 -0.34443263925E+02 -0.48234594528E+02 -0.65389892240E+02  0.88253909524E+02  0.00000000000E+00 0.  1.
</event>
<event>
 7    1  0.2732144E-009  0.1300877E+03  0.7561462E-02  0.1227326E+00
         -1   -1    0    0    0  501 -0.00000000000E+00  0.00000000000E+00  0.58316661968E+02  0.58316661968E+02  0.00000000000E+00 0.  1.
          1   -1    0    0  501    0  0.00000000000E+00 -0.00000000000E+00 -0.29253451419E+03  0.29253451419E+03  0.00000000000E+00 0. -1.
         25    2    1    2    0    0  0.67078694147E+02 -0.26377477918E+02 -0.13341707030E+03  0.19657172186E+03  0.12507999296E+03 0.  0.
          5    1    3    3  502    0  0.96259067800E+02 -0.47998625159E+02 -0.10355701799E+03  0.14936935604E+03  0.41800000000E+01 0. -1.
         -5    1    3    3    0  502 -0.29180373653E+02  0.21621147241E+02 -0.29860052312E+02  0.47202365816E+02  0.41800000000E+01 0. -1.
        -11    1    1    2    0    0 -0.62362816572E+02 -0.22927870892E+02 -0.48609156041E+02  0.82326534030E+02  0.00000000000E+00 0. -1.
         11    1    1    2    0    0 -0.47158775747E+01  0.49305348810E+02 -0.52191625878E+02  0.71952920263E+02  0.00000000000E+00 0.  1.
</event>
<event>
 7    1  0.2732144E-009  0.1101467E+03  0.7561462E-02  0.1260298E+00
          1   -1    0    0  501    0  0.00000000000E+00  0.00000000000E+00  0.96976907949E+02  0.96976907949E+02  0.00000000000E+00 0. -1.
         -1   -1    0    0    0  501 -0.00000000000E+00 -0.00000000000E+00 -0.23302856643E+03  0.23302856643E+03  0.00000000000E+00 0.  1.
         25    2    1    2    0    0  0.17961511306E+02  0.57048085598E+02 -0.16580991099E+03  0.21614391155E+03  0.12509262151E+03 0.  0.
          5    1    3    3  502    0 -0.37492385708E+01  0.94715757052E+02 -0.10976134246E+03  0.14508671932E+03  0.41800000000E+01 0.  1.
         -5    1    3    3    0  502  0.21710749877E+02 -0.37667671455E+02 -0.56048568533E+02  0.71057192230E+02  0.41800000000E+01 0.  1.
        -11    1    1    2    0    0  0.40696987834E+01  0.10193320845E+02 -0.23076455925E+02  0.25553650543E+02  0.00000000000E+00 0.  1.
         11    1    1    2    0    0 -0.22031210090E+02 -0.67241406443E+02  0.52834708431E+02  0.88307912292E+02  0.00000000000E+00 0. -1.
</event>
<event>
 7    1  0.2732144E-009  0.1075225E+03  0.7561462E-02  0.1265228E+00
         -2   -1    0    0    0  501 -0.00000000000E+00  0.00000000000E+00  0.45539148452E+02  0.45539148452E+02  0.00000000000E+00 0.  1.
          2   -1    0    0  501    0  0.00000000000E+00 -0.00000000000E+00 -0.32769862150E+03  0.32769862150E+03  0.00000000000E+00 0. -1.
         25    2    1    2    0    0  0.36374349840E+02  0.42591226349E+02 -0.15521460554E+03  0.20706468011E+03  0.12508837712E+03 0.  0.
          5    1    3    3  502    0 -0.69084405091E+01 -0.41527889879E+02 -0.45215938968E+02  0.61921286524E+02  0.41800000000E+01 0. -1.
         -5    1    3    3    0  502  0.43282790349E+02  0.84119116228E+02 -0.10999866657E+03  0.14514339359E+03  0.41800000000E+01 0. -1.
        -11    1    1    2    0    0 -0.95605141299E+01 -0.49452268152E+02 -0.17560484913E+02  0.53341361871E+02  0.00000000000E+00 0.  1.
         11    1    1    2    0    0 -0.26813835710E+02  0.68610418031E+01 -0.10938438260E+03  0.11283172797E+03  0.00000000000E+00 0. -1.
</event>
<event>
 7    1  0.2732144E-009  0.1340857E+03  0.7561462E-02  0.1221516E+00
          2   -1    0    0  501    0  0.00000000000E+00  0.00000000000E+00  0.12510209697E+04  0.12510209697E+04  0.00000000000E+00 0. -1.
         -2   -1    0    0    0  501 -0.00000000000E+00 -0.00000000000E+00 -0.17365836943E+02  0.17365836943E+02  0.00000000000E+00 0.  1.
         25    2    1    2    0    0  0.34594428966E+02 -0.88483501340E+02  0.79278716063E+03  0.80819773282E+03  0.12508392679E+03 0.  0.
          5    1    3    3  502    0  0.34481761171E+02 -0.11753641410E+03  0.54120676017E+03  0.55491083081E+03  0.41800000000E+01 0. -1.
         -5    1    3    3    0  502  0.11266779487E+00  0.29052912756E+02  0.25158040046E+03  0.25328690201E+03  0.41800000000E+01 0. -1.
        -11    1    1    2    0    0  0.13844101448E+02 -0.16411227732E+01  0.95424933106E+01  0.16894129378E+02  0.00000000000E+00 0. -1.
         11    1    1    2    0    0 -0.48438530414E+02  0.90124624113E+02  0.43132547885E+03  0.44329494448E+03  0.00000000000E+00 0.  1.
</event>
<event>
 7    1  0.2732144E-009  0.1167412E+03  0.7561462E-02  0.1248572E+00
          2   -1    0    0  501    0  0.00000000000E+00  0.00000000000E+00  0.29404214772E+03  0.29404214772E+03  0.00000000000E+00 0. -1.
         -2   -1    0    0    0  501 -0.00000000000E+00 -0.00000000000E+00 -0.62756833804E+02  0.62756833804E+02  0.00000000000E+00 0.  1.
         25    2    1    2    0    0 -0.43312772958E+02  0.69849875493E+02  0.14849172234E+03  0.21083700603E+03  0.12508976817E+03 0.  0.
          5    1    3    3  502    0  0.19584625798E+02 -0.20626216049E+02  0.69448145309E+02  0.75163259928E+02  0.41800000000E+01 0.  1.
         -5    1    3    3    0  502 -0.62897398755E+02  0.90476091542E+02  0.79043577027E+02  0.13567374610E+03  0.41800000000E+01 0.  1.
        -11    1    1    2    0    0  0.21745043756E+02 -0.40693415216E+00 -0.13272501942E+02  0.25478850664E+02  0.00000000000E+00 0.  1.
         11    1    1    2    0    0  0.21567729202E+02 -0.69442941341E+02  0.96066093518E+02  0.12048312483E+03  0.00000000000E+00 0. -1.
</event>
<event>
 7    1  0.2732144E-009  0.1466288E+03  0.7561462E-02  0.1204678E+00
          1   -1    0    0  501    0  0.00000000000E+00  0.00000000000E+00  0.57510441065E+03  0.57510441065E+03  0.00000000000E+00 0. -1.
         -1   -1    0    0    0  501 -0.00000000000E+00 -0.00000000000E+00 -0.51196947191E+02  0.51196947191E+02  0.00000000000E+00 0.  1.
         25    2    1    2    0    0  0.77254480899E+02  0.10796672038E+03  0.26970726271E+03  0.32559890061E+03  0.12509024339E+03 0.  0.
          5    1    3    3  502    0  0.55964818682E+02  0.50069076725E+02  0.35128832653E+02  0.83008919145E+02  0.41800000000E+01 0. -1.
         -5    1    3    3    0  502  0.21289662217E+02  0.57897643652E+02  0.23457843006E+03  0.24258998146E+03  0.41800000000E+01 0. -1.
        -11    1    1    2    0    0 -0.20839962859E+02  0.11715339230E+02  0.17843753611E+02  0.29832076162E+02  0.00000000000E+00 0.  1.
         11    1    1    2    0    0 -0.56414518040E+02 -0.11968205961E+03  0.23635644714E+03  0.27087038107E+03  0.00000000000E+00 0. -1.
</event>
<event>
 7    1  0.2732144E-009  0.1323277E+03  0.7561462E-02  0.1224042E+00
         -2   -1    0    0    0  501 -0.00000000000E+00  0.00000000000E+00  0.25330379788E+02  0.25330379788E+02  0.00000000000E+00 0. -1.
          2   -1    0    0  501    0  0.00000000000E+00 -0.00000000000E+00 -0.10854500225E+04  0.10854500225E+04  0.00000000000E+00 0.  1.
         25    2    1    2    0    0  0.57132527377E+02  0.97782087439E+02 -0.74509657599E+03  0.76396350027E+03  0.12508341168E+03 0.  0.
          5    1    3    3  502    0  0.77526548096E+02  0.41763688802E+02 -0.60867527067E+03  0.61502652697E+03  0.41800000000E+01 0. -1.
         -5    1    3    3    0  502 -0.20394020719E+02  0.56018398637E+02 -0.13642130533E+03  0.14893697329E+03  0.41800000000E+01 0. -1.
        -11    1    1    2    0    0 -0.35788887663E+02 -0.33574236691E+02 -0.24336023678E+03  0.24825849169E+03  0.00000000000E+00 0.  1.
         11    1    1    2    0    0 -0.21343639713E+02 -0.64207850749E+02 -0.71662829971E+02  0.98558410364E+02  0.00000000000E+00 0. -1.
</event>
<event>
 7    1  0.2732144E-009  0.1550303E+03  0.7561462E-02  0.1194425E+00
          1   -1    0    0  501    0  0.00000000000E+00  0.00000000000E+00  0.48957449191E+02  0.48957449191E+02  0.00000000000E+00 0. -1.
         -1   -1    0    0    0  501 -0.00000000000E+00 -0.00000000000E+00 -0.69575421932E+03  0.69575421932E+03  0.00000000000E+00 0.  1.
         25    2    1    2    0    0  0.71488242294E+02 -0.70513818141E+02 -0.13717897740E+03  0.21106473703E+03  0.12508990384E+03 0.  0.
          5    1    3    3  502    0  0.23404266482E+02  0.32897180718E+02 -0.13489043387E+02  0.42771613019E+02  0.41800000000E+01 0.  1.
         -5    1    3    3    0  502  0.48083975812E+02 -0.10341099886E+03 -0.12368993401E+03  0.16829312402E+03  0.41800000000E+01 0.  1.
        -11    1    1    2    0    0 -0.10405322055E+03  0.42509632764E+02 -0.41077455586E+03  0.42587542466E+03  0.00000000000E+00 0.  1.
         11    1    1    2    0    0  0.32564978256E+02  0.28004185377E+02 -0.98843236874E+02  0.10777150682E+03  0.00000000000E+00 0. -1.
</event>
<event>
 7    1  0.2732144E-009  0.1870143E+03  0.7561462E-02  0.1161182E+00
          1   -1    0    0  501    0  0.00000000000E+00  0.00000000000E+00  0.92027157902E+02  0.92027157902E+02  0.00000000000E+00 0. -1.
         -1   -1    0    0    0  501 -0.00000000000E+00 -0.00000000000E+00 -0.53367923563E+03  0.53367923563E+03  0.00000000000E+00 0.  1.
         25    2    1    2    0    0 -0.17027727718E+03 -0.60373002227E+02 -0.32394891891E+03  0.39144383274E+03  0.12508445788E+03 0.  0.
          5    1    3    3  502    0 -0.42260468042E+02  0.81445798149E+01 -0.83767043743E+01  0.44044556028E+02  0.41800000000E+01 0. -1.
         -5    1    3    3    0  502 -0.12801680914E+03 -0.68517582042E+02 -0.31557221454E+03  0.34739927671E+03  0.41800000000E+01 0. -1.
        -11    1    1    2    0    0  0.10204834943E+03  0.13935400557E+02 -0.17542158185E+02  0.10447865009E+03  0.00000000000E+00 0. -1.
         11    1    1    2    0    0  0.68228927746E+02  0.46437601671E+02 -0.10016100063E+03  0.12978391071E+03  0.00000000000E+00 0.  1.
</event>
<event>
 7    1  0.2732144E-009  0.1035253E+03  0.7561462E-02  0.1273053E+00
          1   -1    0    0  501    0  0.00000000000E+00  0.00000000000E+00  0.90033020263E+02  0.90033020263E+02  0.00000000000E+00 0. -1.
         -1   -1    0    0    0  501 -0.00000000000E+00 -0.00000000000E+00 -0.18329966886E+03  0.18329966886E+03  0.00000000000E+00 0.  1.
         25    2    1    2    0    0  0.23565372808E+02  0.36793133198E+02  0.46642370746E+01  0.13258383169E+03  0.12509059066E+03 0.  0.
          5    1    3    3  502    0 -0.34847645703E+02  0.49795001341E+02  0.29463201790E+02  0.67671657504E+02  0.41800000000E+01 0.  1.
         -5    1    3    3    0  502  0.58413018511E+02 -0.13001868144E+02 -0.24798964715E+02  0.64912174187E+02  0.41800000000E+01 0.  1.
        -11    1    1    2    0    0  0.18332601814E+02 -0.40121355671E+02 -0.86649189337E+02  0.97231113759E+02  0.00000000000E+00 0.  1.
         11    1    1    2    0    0 -0.41897974622E+02  0.33282224736E+01 -0.11281696335E+02  0.43517743674E+02  0.00000000000E+00 0. -1.
</event>
<event>
 7    1  0.2732144E-009  0.1293744E+03  0.7561462E-02  0.1228387E+00
         -1   -1    0    0    0  501 -0.00000000000E+00  0.00000000000E+00  0.21471310219E+02  0.21471310219E+02  0.00000000000E+00 0.  1.
          1   -1    0    0  501    0  0.00000000000E+00 -0.00000000000E+00 -0.88367167500E+03  0.88367167500E+03  0.00000000000E+00 0. -1.
         25    2    1    2    0    0  0.78171277351E+02 -0.16961089503E+02 -0.40580019697E+03  0.43211209227E+03  0.12509449736E+03 0.  0.
          5    1    3    3  502    0 -0.10657694152E+02  0.39823703289E+02 -0.88295203116E+02  0.97534758325E+02  0.41800000000E+01 0.  1.
         -5    1    3    3    0  502  0.88828971504E+02 -0.56784792792E+02 -0.31750499385E+03  0.33457733395E+03  0.41800000000E+01 0.  1.
        -11    1    1    2    0    0 -0.16476970612E+02  0.42078779299E+02 -0.90931118826E+02  0.10154103899E+03  0.00000000000E+00 0. -1.
         11    1    1    2    0    0 -0.61694306739E+02 -0.25117689797E+02 -0.36546904899E+03  0.37148985395E+03  0.00000000000E+00 0.  1.
</event>
<event>
 7    1  0.2732144E-009  0.1150144E+03  0.7561462E-02  0.1251556E+00
          3   -1    0    0  501    0  0.00000000000E+00  0.00000000000E+00  0.26098602974E+02  0.26098602974E+02  0.00000000000E+00 0. -1.
         -3   -1    0    0    0  501 -0.00000000000E+00 -0.00000000000E+00 -0.14089659906E+04  0.14089659906E+04  0.00000000000E+00 0.  1.
         25    2    1    2    0    0 -0.57588346571E+02  0.72825261570E+02 -0.12064843803E+04  0.12165007645E+04  0.12509841636E+03 0.  0.
          5    1    3    3  502    0 -0.13123320678E+02  0.63709288518E+02 -0.10815251934E+04  0.10834875686E+04  0.41800000000E+01 0.  1.
         -5    1    3    3    0  502 -0.44465025893E+02  0.91159730524E+01 -0.12495918689E+03  0.13301319589E+03  0.41800000000E+01 0.  1.
        -11    1    1    2    0    0  0.25758065516E+02 -0.82153437896E+02 -0.15971359542E+03  0.18144172029E+03  0.00000000000E+00 0.  1.
         11    1    1    2    0    0  0.31830281055E+02  0.93281763252E+01 -0.16669411879E+02  0.37122108749E+02  0.00000000000E+00 0. -1.
</event>
<event>
 7    1  0.2732144E-009  0.8101759E+02  0.7561462E-02  0.1326188E+00
          2   -1    0    0  501    0  0.00000000000E+00  0.00000000000E+00  0.26874256275E+03  0.26874256275E+03  0.00000000000E+00 0.  1.
         -2   -1    0    0    0  501 -0.00000000000E+00 -0.00000000000E+00 -0.53744070511E+02  0.53744070511E+02  0.00000000000E+00 0. -1.
         25    2    1    2    0    0 -0.43398510620E+01  0.42332932485E+02  0.15995810752E+03  0.20746678251E+03  0.12507980734E+03 0.  0.
          5    1    3    3  502    0 -0.24514734471E+02  0.92608655279E+01  0.16593732275E+03  0.16804583696E+03  0.41800000000E+01 0.  1.
         -5    1    3    3    0  502  0.20174883409E+02  0.33072066957E+02 -0.59792152360E+01  0.39420945552E+02  0.41800000000E+01 0.  1.
        -11    1    1    2    0    0 -0.36176864602E+02 -0.42765016967E+02  0.48261456835E+02  0.73937679328E+02  0.00000000000E+00 0.  1.
         11    1    1    2    0    0  0.40516715664E+02  0.43208448203E+00  0.67789278819E+01  0.41082171418E+02  0.00000000000E+00 0. -1.
</event>
<event>
 7    1  0.2732144E-009  0.1712974E+03  0.7561462E-02  0.1176502E+00
          1   -1    0    0  501    0  0.00000000000E+00  0.00000000000E+00  0.14658700903E+03  0.14658700903E+03  0.00000000000E+00 0. -1.
         -1   -1    0    0    0  501 -0.00000000000E+00 -0.00000000000E+00 -0.26774370154E+03  0.26774370154E+03  0.00000000000E+00 0.  1.
         25    2    1    2    0    0  0.54562484052E+02 -0.12614229047E+03  0.32771818766E+02  0.18870760989E+03  0.12509047852E+03 0.  0.
          5    1    3    3  502    0 -0.35660864921E+02 -0.93756717406E+01 -0.15769406276E+01  0.37142423847E+02  0.41800000000E+01 0.  1.
         -5    1    3    3    0  502  0.90223348972E+02 -0.11676661873E+03  0.34348759394E+02  0.15156518604E+03  0.41800000000E+01 0.  1.
        -11    1    1    2    0    0  0.16714630980E+02  0.53678011719E+02 -0.25217149576E+02  0.61616657355E+02  0.00000000000E+00 0. -1.
         11    1    1    2    0    0 -0.71277115031E+02  0.72464278749E+02 -0.12871136170E+03  0.16400644333E+03  0.00000000000E+00 0.  1.
</event>
<event>
 7    1  0.2732144E-009  0.1573808E+03  0.7561462E-02  0.1191686E+00
         -2   -1    0    0    0  501 -0.00000000000E+00  0.00000000000E+00  0.44751085766E+02  0.44751085766E+02  0.00000000000E+00 0.  1.
          2   -1    0    0  501    0  0.00000000000E+00 -0.00000000000E+00 -0.71897108768E+03  0.71897108768E+03  0.00000000000E+00 0. -1.
         25    2    1    2    0    0  0.31229754559E+02 -0.13069827884E+03 -0.24916641240E+03  0.30949774539E+03  0.12509042997E+03 0.  0.
          5    1    3    3  502    0  0.39936763849E+02 -0.15172693063E+03 -0.19307259448E+03  0.24881821824E+03  0.41800000000E+01 0. -1.
         -5    1    3    3    0  502 -0.87070092897E+01  0.21028651790E+02 -0.56093817915E+02  0.60679527151E+02  0.41800000000E+01 0. -1.
        -11    1    1    2    0    0 -0.17201087322E+02  0.53168408516E+02 -0.65311854690E+02  0.85955776026E+02  0.00000000000E+00 0.  1.
         11    1    1    2    0    0 -0.14028667237E+02  0.77529870323E+02 -0.35974173482E+03  0.36826865203E+03  0.00000000000E+00 0. -1.
</event>
<event>
 7    1  0.2732144E-009  0.9187755E+02  0.7561462E-02  0.1298368E+00
          1   -1    0    0  501    0  0.00000000000E+00  0.00000000000E+00  0.24079971012E+03  0.24079971012E+03  0.00000000000E+00 0. -1.
         -1   -1    0    0    0  501 -0.00000000000E+00 -0.00000000000E+00 -0.57969429825E+02  0.57969429825E+02  0.00000000000E+00 0.  1.
         25    2    1    2    0    0  0.57828249786E+01 -0.48660352117E+02  0.92533833127E+02  0.16312781017E+03  0.12508757431E+03 0.  0.
          5    1    3    3  502    0  0.31814598636E+02  0.34247834445E+02  0.26412502316E+02  0.53853277794E+02  0.41800000000E+01 0. -1.
         -5    1    3    3    0  502 -0.26031773658E+02 -0.82908186563E+02  0.66121330810E+02  0.10927453238E+03  0.41800000000E+01 0. -1.
        -11    1    1    2    0    0  0.13246923555E+01  0.26900652005E+02 -0.12952044006E+02  0.29885704476E+02  0.00000000000E+00 0.  1.
         11    1    1    2    0    0 -0.71075173340E+01  0.21759700112E+02  0.10324849117E+03  0.10575562529E+03  0.00000000000E+00 0. -1.
</event>
<event>
 6    1  0.2732144E-009  0.1120537E+03  0.7561462E-02  0.1256813E+00
         -1   -1    0    0    0  501 -0.00000000000E+00  0.00000000000E+00  0.70631833882E+03  0.70631833882E+03  0.00000000000E+00 0.  1.
          1   -1    0    0  501    0  0.00000000000E+00 -0.00000000000E+00 -0.21489695631E+02  0.21489695631E+02  0.00000000000E+00 0. -1.
          5    1    1    2  502    0 -0.14077733644E+02  0.84639579262E+02  0.19817557018E+03  0.21599321744E+03  0.41800000000E+01 0. -1.
         -5    1    1    2    0  502 -0.16895576038E+02 -0.37937766911E+02  0.22523669934E+03  0.22907155602E+03  0.41800000000E+01 0. -1.
        -11    1    1    2    0    0  0.46889154492E+02  0.24754909581E+00  0.64875534055E+02  0.80046792618E+02  0.00000000000E+00 0. -1.
         11    1    1    2    0    0 -0.15915844810E+02 -0.46949361446E+02  0.19654083961E+03  0.20269646838E+03  0.00000000000E+00 0.  1.
</event>
<event>
 7    1  0.2732144E-009  0.9691770E+02  0.7561462E-02  0.1286914E+00
         -2   -1    0    0    0  501 -0.00000000000E+00  0.00000000000E+00  0.32445800638E+02  0.32445800638E+02  0.00000000000E+00 0.  1.
          2   -1    0    0  501    0  0.00000000000E+00 -0.00000000000E+00 -0.41396370149E+03  0.41396370149E+03  0.00000000000E+00 0. -1.
         25    2    1    2    0    0  0.65087700605E+01  0.29906298555E+02 -0.16159211612E+03  0.20663262008E+03  0.12509307299E+03 0.  0.
          5    1    3    3  502    0 -0.28689314694E+02 -0.35078359022E+02 -0.10168907018E+03  0.11140784283E+03  0.41800000000E+01 0. -1.
         -5    1    3    3    0  502  0.35198084755E+02  0.64984657577E+02 -0.59903045939E+02  0.95224777257E+02  0.41800000000E+01 0. -1.
        -11    1    1    2    0    0 -0.37260268797E+02 -0.15819917688E+02 -0.19108664922E+03  0.19532717408E+03  0.00000000000E+00 0. -1.
         11    1    1    2    0    0  0.30751498737E+02 -0.14086380867E+02 -0.28839135514E+02  0.44449707960E+02  0.00000000000E+00 0.  1.
</event>
<event>
 7    1  0.3053175E-009  0.9063550E+02  0.7561462E-02  0.1301320E+00
          1   -1    0    0  501    0  0.00000000000E+00  0.00000000000E+00  0.62274265541E+03  0.62274265541E+03  0.00000000000E+00 0. -1.
         -1   -1    0    0    0  501 -0.00000000000E+00 -0.00000000000E+00 -0.23247667004E+02  0.23247667004E+02  0.00000000000E+00 0.  1.
         25    2    1    2    0    0 -0.16302217405E+02  0.24740912134E+02  0.45119020077E+03  0.46914614325E+03  0.12509049294E+03 0.  0.
          5    1    3    3  502    0  0.91910372836E+01 -0.48717986075E+02  0.20408326661E+03  0.21006039475E+03  0.41800000000E+01 0.  1.
         -5    1    3    3    0  502 -0.25493254689E+02  0.73458898208E+02  0.24710693417E+03  0.25908574850E+03  0.41800000000E+01 0.  1.
        -11    1    1    2    0    0 -0.94787539545E+01 -0.26164385391E+02  0.15890822024E+01  0.27873769420E+02  0.00000000000E+00 0.  1.
         11    1    1    2    0    0  0.25780971360E+02  0.14234732572E+01  0.14671570543E+03  0.14897040975E+03  0.00000000000E+00 0. -1.
</event>
<event>
 7    1  0.2732144E-009  0.9784999E+02  0.7561462E-02  0.1284883E+00
         -2   -1    0    0    0  501 -0.00000000000E+00  0.00000000000E+00  0.15225663922E+03  0.15225663922E+03  0.00000000000E+00 0. -1.
          2   -1    0    0  501    0  0.00000000000E+00 -0.00000000000E+00 -0.90018893818E+02  0.90018893818E+02  0.00000000000E+00 0.  1.
         25    2    1    2    0    0 -0.17290197656E+02  0.18834133917E+02  0.74495605881E+02  0.14781921906E+03  0.12508897111E+03 0.  0.
          5    1    3    3  502    0  0.48552066229E+02  0.33398797883E+02  0.44156103510E+02  0.73756468952E+02  0.41800000000E+01 0.  1.
         -5    1    3    3    0  502 -0.65842263885E+02 -0.14564663966E+02  0.30339502371E+02  0.74062750111E+02  0.41800000000E+01 0.  1.
        -11    1    1    2    0    0 -0.21434532908E+02  0.69520104810E+01 -0.35810129566E+02  0.42309987358E+02  0.00000000000E+00 0.  1.
         11    1    1    2    0    0  0.38724730563E+02 -0.25786144398E+02  0.23552269084E+02  0.52146326612E+02  0.00000000000E+00 0. -1.
</event>
<event>
 7    1  0.2732144E-009  0.1233324E+03  0.7561462E-02  0.1237699E+00
          3   -1    0    0  501    0  0.00000000000E+00  0.00000000000E+00  0.23753475546E+03  0.23753475546E+03  0.00000000000E+00 0. -1.
         -3   -1    0    0    0  501 -0.00000000000E+00 -0.00000000000E+00 -0.85390788977E+02  0.85390788977E+02  0.00000000000E+00 0.  1.
         25    2    1    2    0    0 -0.29798207157E+02 -0.61253947313E+02  0.11310468007E+02  0.14293271336E+03  0.12514733178E+03 0.  0.
          5    1    3    3  502    0  0.45360349772E+02 -0.47723809805E+02  0.37934036577E+01  0.66083172329E+02  0.41800000000E+01 0.  1.
         -5    1    3    3    0  502 -0.75158556929E+02 -0.13530137508E+02  0.75170643494E+01  0.76849541033E+02  0.41800000000E+01 0.  1.
        -11    1    1    2    0    0 -0.26898995519E+02  0.26206749403E+02  0.21414624044E+02  0.43231190096E+02  0.00000000000E+00 0.  1.
         11    1    1    2    0    0  0.56697202675E+02  0.35047197910E+02  0.11941887443E+03  0.13676164097E+03  0.00000000000E+00 0. -1.
</event>
<event>
 7    1  0.3502366E-009  0.6490294E+02  0.7561462E-02  0.1378337E+00
          1   -1    0    0  501    0  0.00000000000E+00  0.00000000000E+00  0.13250351024E+03  0.13250351024E+03  0.00000000000E+00 0. -1.
         -1   -1    0    0    0  501 -0.00000000000E+00 -0.00000000000E+00 -0.11977363452E+03  0.11977363452E+03  0.00000000000E+00 0.  1.
         25    2    1    2    0    0  0.35898118560E+02  0.19256724449E+02  0.57128214731E+02  0.14342407750E+03  0.12508931503E+03 0.  0.
          5    1    3    3  502    0  0.93004896183E+01  0.94271783234E+01  0.94954794706E+02  0.95964869801E+02  0.41800000000E+01 0. -1.
         -5    1    3    3    0  502  0.26597628942E+02  0.98295461252E+01 -0.37826579976E+02  0.47459207695E+02  0.41800000000E+01 0. -1.
        -11    1    1    2    0    0 -0.60168265124E+02 -0.87150882631E+01 -0.44798572674E+01  0.60960987628E+02  0.00000000000E+00 0. -1.
         11    1    1    2    0    0  0.24270146563E+02 -0.10541636186E+02 -0.39918481743E+02  0.47892079641E+02  0.00000000000E+00 0.  1.
</event>
<event>
 7    1  0.2732144E-009  0.1016418E+03  0.7561462E-02  0.1276881E+00
          1   -1    0    0  501    0  0.00000000000E+00  0.00000000000E+00  0.13673799120E+02  0.13673799120E+02  0.00000000000E+00 0. -1.
         -1   -1    0    0    0  501 -0.00000000000E+00 -0.00000000000E+00 -0.92413843401E+03  0.92413843401E+03  0.00000000000E+00 0.  1.
         25    2    1    2    0    0  0.18122962936E+02 -0.15262334067E+02 -0.51993575446E+03  0.53529067981E+03  0.12506615249E+03 0.  0.
          5    1    3    3  502    0 -0.43007895988E+02  0.15417536350E+02 -0.10292478111E+03  0.11268701128E+03  0.41800000000E+01 0.  1.
         -5    1    3    3    0  502  0.61130858924E+02 -0.30679870416E+02 -0.41701097335E+03  0.42260366853E+03  0.41800000000E+01 0.  1.
        -11    1    1    2    0    0 -0.48816563929E+02 -0.91436218919E+01 -0.29669609337E+03  0.30082425859E+03  0.00000000000E+00 0.  1.
         11    1    1    2    0    0  0.30693600993E+02  0.24405955959E+02 -0.93832787060E+02  0.10169729473E+03  0.00000000000E+00 0. -1.
</event>
<event>
 7    1  0.2732144E-009  0.1270136E+03  0.7561462E-02  0.1231955E+00
          3   -1    0    0  501    0  0.00000000000E+00  0.00000000000E+00  0.39765618707E+02  0.39765618707E+02  0.00000000000E+00 0. -1.
         -3   -1    0    0    0  501 -0.00000000000E+00 -0.00000000000E+00 -0.67275313237E+03  0.67275313237E+03  0.00000000000E+00 0.  1.
         25    2    1    2    0    0 -0.10318515421E+03 -0.21526092905E+02 -0.47597247079E+03  0.50329661139E+03  0.12508851810E+03 0.  0.
          5    1    3    3  502    0 -0.36253539593E+02  0.17757046542E+02 -0.29659745215E+02  0.50267332545E+02  0.41800000000E+01 0. -1.
         -5    1    3    3    0  502 -0.66931614618E+02 -0.39283139448E+02 -0.44631272557E+03  0.45302927884E+03  0.41800000000E+01 0. -1.
        -11    1    1    2    0    0  0.75277023254E+02 -0.26809235247E+02 -0.72229635978E+02  0.10771483481E+03  0.00000000000E+00 0.  1.
         11    1    1    2    0    0  0.27908130957E+02  0.48335328153E+02 -0.84785406895E+02  0.10150730488E+03  0.00000000000E+00 0. -1.
</event>
<event>
 7    1  0.2732144E-009  0.1227399E+03  0.7561462E-02  0.1238644E+00
          2   -1    0    0  501    0  0.00000000000E+00  0.00000000000E+00  0.17481104223E+03  0.17481104223E+03  0.00000000000E+00 0. -1.
         -2   -1    0    0    0  501 -0.00000000000E+00 -0.00000000000E+00 -0.11396732144E+03  0.11396732144E+03  0.00000000000E+00 0.  1.
         25    2    1    2    0    0 -0.27290687026E+02  0.76168097409E+02 -0.59293399717E+01  0.14909762220E+03  0.12509429728E+03 0.  0.
          5    1    3    3  502    0 -0.24147260744E+01 -0.34818281079E+02 -0.21878283005E+01  0.35219349681E+02  0.41800000000E+01 0.  1.
         -5    1    3    3    0  502 -0.24875960951E+02  0.11098637849E+03 -0.37415116712E+01  0.11387827252E+03  0.41800000000E+01 0.  1.
        -11    1    1    2    0    0 -0.96799615042E+01 -0.50705087761E+02  0.77881600289E+02  0.93435813493E+02  0.00000000000E+00 0. -1.
         11    1    1    2    0    0  0.36970648530E+02 -0.25463009648E+02 -0.11108539531E+02  0.46244927977E+02  0.00000000000E+00 0.  1.
</event>
<event>
 7    1  0.2732144E-009  0.2552296E+03  0.7561462E-02  0.1110044E+00
          2   -1    0    0  501    0  0.00000000000E+00  0.00000000000E+00  0.11015359077E+04  0.11015359077E+04  0.00000000000E+00 0. -1.
         -2   -1    0    0    0  501 -0.00000000000E+00 -0.00000000000E+00 -0.64975790861E+02  0.64975790861E+02  0.00000000000E+00 0.  1.
         25    2    1    2    0    0  0.22778913969E+03 -0.72287293118E+02  0.42826973946E+03  0.50613775113E+03  0.12508840263E+03 0.  0.
          5    1    3    3  502    0  0.87348298571E+02 -0.93037305207E+02  0.20656405141E+03  0.24284119329E+03  0.41800000000E+01 0.  1.
         -5    1    3    3    0  502  0.14044084111E+03  0.20750012089E+02  0.22170568805E+03  0.26329655784E+03  0.41800000000E+01 0.  1.
        -11    1    1    2    0    0 -0.15834935164E+03  0.35962968820E+02  0.28787700599E+03  0.33051629743E+03  0.00000000000E+00 0.  1.
         11    1    1    2    0    0 -0.69439788047E+02  0.36324324298E+02  0.32041337134E+03  0.32985764995E+03  0.00000000000E+00 0. -1.
</event>
<event>
 7    1  0.2732144E-009  0.1128375E+03  0.7561462E-02  0.1255404E+00
          1   -1    0    0  501    0  0.00000000000E+00  0.00000000000E+00  0.58161101385E+02  0.58161101385E+02  0.00000000000E+00 0. -1.
         -1   -1    0    0    0  501 -0.00000000000E+00 -0.00000000000E+00 -0.36090237773E+03  0.36090237773E+03  0.00000000000E+00 0.  1.
         25    2    1    2    0    0  0.10428751290E+02  0.93712795314E+02 -0.13520461020E+03  0.20692484162E+03  0.12508699613E+03 0.  0.
          5    1    3    3  502    0 -0.22611234707E+01  0.77631453807E+01  0.23911832514E+02  0.25585684273E+02  0.41800000000E+01 0. -1.
         -5    1    3    3    0  502  0.12689874761E+02  0.85949649933E+02 -0.15911644272E+03  0.18133915735E+03  0.41800000000E+01 0. -1.
        -11    1    1    2    0    0 -0.28689272078E+02  0.50704750762E+01 -0.29966044754E+02  0.41794113080E+02  0.00000000000E+00 0.  1.
         11    1    1    2    0    0  0.18260520788E+02 -0.98783270390E+02 -0.13757062139E+03  0.17034452441E+03  0.00000000000E+00 0. -1.
</event>
<event>
 7    1  0.2732144E-009  0.8798015E+02  0.7561462E-02  0.1307818E+00
         -1   -1    0    0    0  501 -0.00000000000E+00  0.00000000000E+00  0.53850477842E+03  0.53850477842E+03  0.00000000000E+00 0.  1.
          1   -1    0    0  501    0  0.00000000000E+00 -0.00000000000E+00 -0.30422268405E+02  0.30422268405E+02  0.00000000000E+00 0. -1.
         25    2    1    2    0    0  0.58165744185E+02 -0.21605330014E+02  0.34907407253E+03  0.37596379592E+03  0.12508406633E+03 0.  0.
          5    1    3    3  502    0  0.41399703766E+02 -0.29609550326E+02  0.36409624311E+02  0.62719965600E+02  0.41800000000E+01 0. -1.
         -5    1    3    3    0  502  0.16766040419E+02  0.80042203120E+01  0.31266444822E+03  0.31324383032E+03  0.41800000000E+01 0. -1.
        -11    1    1    2    0    0 -0.15364863802E+02 -0.33038459236E+02  0.33280336533E+02  0.49347741874E+02  0.00000000000E+00 0. -1.
         11    1    1    2    0    0 -0.42800880383E+02  0.54643789249E+02  0.12572810096E+03  0.14361550904E+03  0.00000000000E+00 0.  1.
</event>
<event>
 7    1  0.2732144E-009  0.1123266E+03  0.7561462E-02  0.1256321E+00
          2   -1    0    0  501    0  0.00000000000E+00  0.00000000000E+00  0.25168435728E+03  0.25168435728E+03  0.00000000000E+00 0. -1.
         -2   -1    0    0    0  501 -0.00000000000E+00 -0.00000000000E+00 -0.53912511518E+02  0.53912511518E+02  0.00000000000E+00 0.  1.
         25    2    1    2    0    0  0.52539795184E+01  0.37866094903E+02  0.91761361966E+02  0.15978035867E+03  0.12509264576E+03 0.  0.
          5    1    3    3  502    0 -0.43361504460E+00  0.83925885310E+02  0.62954046780E+02  0.10499726974E+03  0.41800000000E+01 0. -1.
         -5    1    3    3    0  502  0.56875945630E+01 -0.46059790406E+02  0.28807315186E+02  0.54783088927E+02  0.41800000000E+01 0. -1.
        -11    1    1    2    0    0  0.39951719043E+02 -0.24578032535E+02  0.27847570323E+02  0.54550038595E+02  0.00000000000E+00 0. -1.
         11    1    1    2    0    0 -0.45205698561E+02 -0.13288062368E+02  0.78162913468E+02  0.91266471531E+02  0.00000000000E+00 0.  1.
</event>
<event>
 7    1  0.2732144E-009  0.9058681E+02  0.7561462E-02  0.1301437E+00
         -3   -1    0    0    0  501 -0.00000000000E+00  0.00000000000E+00  0.23721850236E+03  0.23721850236E+03  0.00000000000E+00 0.  1.
          3   -1    0    0  501    0  0.00000000000E+00 -0.00000000000E+00 -0.72953270838E+02  0.72953270838E+02  0.00000000000E+00 0. -1.
         25    2    1    2    0    0 -0.54872304999E+02  0.50443144719E+02  0.10657992240E+03  0.18044946841E+03  0.12508896868E+03 0.  0.
          5    1    3    3  502    0 -0.72983157694E+02  0.33367756593E+02  0.12541898187E+03  0.14895416040E+03  0.41800000000E+01 0.  1.
         -5    1    3    3    0  502  0.18110852695E+02  0.17075388127E+02 -0.18839059471E+02  0.31495308012E+02  0.41800000000E+01 0.  1.
        -11    1    1    2    0    0  0.45585935638E+02 -0.34670075293E+02 -0.11277445765E+02  0.58371846226E+02  0.00000000000E+00 0. -1.
         11    1    1    2    0    0  0.92863693601E+01 -0.15773069426E+02  0.68962754890E+02  0.71350458562E+02  0.00000000000E+00 0.  1.
</event>
<event>
 7    1  0.2732144E-009  0.2430276E+03  0.7561462E-02  0.1117792E+00
          2   -1    0    0  501    0  0.00000000000E+00  0.00000000000E+00  0.91598237709E+03  0.91598237709E+03  0.00000000000E+00 0.  1.
         -2   -1    0    0    0  501 -0.00000000000E+00 -0.00000000000E+00 -0.72937030035E+02  0.72937030035E+02  0.00000000000E+00 0. -1.
         25    2    1    2    0    0 -0.69544859618E+02  0.21163360900E+03  0.57151530646E+03  0.62602104580E+03  0.12508929736E+03 0.  0.
          5    1    3    3  502    0  0.17247660326E+02 -0.16314665529E+01  0.13510417277E+02  0.22363972027E+02  0.41800000000E+01 0. -1.
         -5    1    3    3    0  502 -0.86792519943E+02  0.21326507555E+03  0.55800488918E+03  0.60365707377E+03  0.41800000000E+01 0. -1.
        -11    1    1    2    0    0  0.24607708151E+02 -0.18303157677E+03  0.23218885645E+03  0.29667787659E+03  0.00000000000E+00 0.  1.
         11    1    1    2    0    0  0.44937151467E+02 -0.28602032227E+02  0.39341184151E+02  0.66220484745E+02  0.00000000000E+00 0. -1.
</event>
<event>
 7    1  0.2732144E-009  0.1120374E+03  0.7561462E-02  0.1256843E+00
          2   -1    0    0  501    0  0.00000000000E+00  0.00000000000E+00  0.40688151558E+03  0.40688151558E+03  0.00000000000E+00 0.  1.
         -2   -1    0    0    0  501 -0.00000000000E+00 -0.00000000000E+00 -0.35935046741E+02  0.35935046741E+02  0.00000000000E+00 0. -1.
         25    2    1    2    0    0 -0.53064740116E+02  0.37178076396E+02  0.17081221843E+03  0.22141034479E+03  0.12509057043E+03 0.  0.
          5    1    3    3  502    0 -0.90906688155E+02  0.45374339576E+02  0.12919902737E+03  0.16441629395E+03  0.41800000000E+01 0. -1.
         -5    1    3    3    0  502  0.37841948039E+02 -0.81962631807E+01  0.41613191059E+02  0.56994050844E+02  0.41800000000E+01 0. -1.
        -11    1    1    2    0    0  0.30556937216E+02  0.91830423504E+01  0.13298994044E+03  0.13676395336E+03  0.00000000000E+00 0.  1.
         11    1    1    2    0    0  0.22507802900E+02 -0.46361118746E+02  0.67144309973E+02  0.84642264174E+02  0.00000000000E+00 0. -1.
</event>
<event>
 7    1  0.2732144E-009  0.3682221E+03  0.7561462E-02  0.1055375E+00
          2   -1    0    0  501    0  0.00000000000E+00  0.00000000000E+00  0.19820959634E+04  0.19820959634E+04  0.00000000000E+00 0. -1.
         -2   -1    0    0    0  501 -0.00000000000E+00 -0.00000000000E+00 -0.79941769694E+02  0.79941769694E+02  0.00000000000E+00 0.  1.
         25    2    1    2    0    0  0.15531588402E+03  0.31744647758E+03  0.13397529213E+04  0.13912155051E+04  0.12508957396E+03 0.  0.
          5    1    3    3  502    0  0.31123913780E+02  0.20350136100E+03  0.76780874593E+03  0.79493977424E+03  0.41800000000E+01 0.  1.
         -5    1    3    3    0  502  0.12419197024E+03  0.11394511658E+03  0.57194417537E+03  0.59627573086E+03  0.41800000000E+01 0.  1.
        -11    1    1    2    0    0 -0.11007928859E+03 -0.13615185664E+03  0.31995194175E+03  0.36472458496E+03  0.00000000000E+00 0. -1.
         11    1    1    2    0    0 -0.45236595430E+02 -0.18129462094E+03  0.24244933068E+03  0.30609764307E+03  0.00000000000E+00 0.  1.
</event>
<event>
 7    1  0.2732144E-009  0.1237168E+03  0.7561462E-02  0.1237088E+00
          2   -1    0    0  501    0  0.00000000000E+00  0.00000000000E+00  0.10235953537E+04  0.10235953537E+04  0.00000000000E+00 0. -1.
         -2   -1    0    0    0  501 -0.00000000000E+00 -0.00000000000E+00 -0.30451487771E+02  0.30451487771E+02  0.00000000000E+00 0.  1.
         25    2    1    2    0    0  0.82368537113E+02  0.76677573716E+01  0.85826617913E+03  0.87127023710E+03  0.12509045289E+03 0.  0.
          5    1    3    3  502    0  0.22580632571E+02 -0.52916721901E+02  0.22416787696E+03  0.23147089209E+03  0.41800000000E+01 0. -1.
         -5    1    3    3    0  502  0.59787904542E+02  0.60584479272E+02  0.63409830217E+03  0.63979934501E+03  0.41800000000E+01 0. -1.
        -11    1    1    2    0    0  0.91213122072E+01  0.74759343686E+01 -0.66755420806E+01  0.13551781917E+02  0.00000000000E+00 0.  1.
         11    1    1    2    0    0 -0.91489849320E+02 -0.15143691740E+02  0.14155322887E+03  0.16922482244E+03  0.00000000000E+00 0. -1.
</event>
<event>
 7    1  0.2732144E-009  0.1213959E+03  0.7561462E-02  0.1240812E+00
          1   -1    0    0  501    0  0.00000000000E+00  0.00000000000E+00  0.86448779804E+03  0.86448779804E+03  0.00000000000E+00 0. -1.
         -1   -1    0    0    0  501 -0.00000000000E+00 -0.00000000000E+00 -0.19313366714E+02  0.19313366714E+02  0.00000000000E+00 0.  1.
         25    2    1    2    0    0  0.48532275133E+02 -0.36608398581E+02  0.58897214257E+03  0.60516969471E+03  0.12508644247E+03 0.  0.
          5    1    3    3  502    0  0.24660254340E+02  0.44256420751E+02  0.15696196373E+03  0.16498875532E+03  0.41800000000E+01 0. -1.
         -5    1    3    3    0  502  0.23872020793E+02 -0.80864819332E+02  0.43201017884E+03  0.44018093939E+03  0.41800000000E+01 0. -1.
        -11    1    1    2    0    0 -0.67024971047E+01 -0.28980706616E+02  0.96668373620E+02  0.10114138264E+03  0.00000000000E+00 0. -1.
         11    1    1    2    0    0 -0.41829778028E+02  0.65589105197E+02  0.15953391513E+03  0.17749008740E+03  0.00000000000E+00 0.  1.
</event>
<event>
 7    1  0.2732144E-009  0.9885684E+02  0.7561462E-02  0.1282718E+00
          2   -1    0    0  501    0  0.00000000000E+00  0.00000000000E+00  0.17892129134E+03  0.17892129134E+03  0.00000000000E+00 0. -1.
         -2   -1    0    0    0  501 -0.00000000000E+00 -0.00000000000E+00 -0.12470739954E+03  0.12470739954E+03  0.00000000000E+00 0.  1.
         25    2    1    2    0    0 -0.75251888519E+02 -0.29867108922E+02 -0.35274016494E+02  0.15312723942E+03  0.12509518093E+03 0.  0.
          5    1    3    3  502    0 -0.40452722835E+02  0.90726447826E+01 -0.76064650490E+02  0.86729689970E+02  0.41800000000E+01 0. -1.
         -5    1    3    3    0  502 -0.34799165684E+02 -0.38939753704E+02  0.40790633996E+02  0.66397549448E+02  0.41800000000E+01 0. -1.
        -11    1    1    2    0    0  0.46495172145E+02  0.50209500176E+02  0.92598138309E+02  0.11513995900E+03  0.00000000000E+00 0.  1.
         11    1    1    2    0    0  0.28756716374E+02 -0.20342391255E+02 -0.31102300190E+01  0.35361492464E+02  0.00000000000E+00 0. -1.
</event>
<event>
 7    1  0.2732144E-009  0.1506271E+03  0.7561462E-02  0.1199705E+00
         -3   -1    0    0    0  501 -0.00000000000E+00  0.00000000000E+00  0.50842850188E+02  0.50842850188E+02  0.00000000000E+00 0.  1.
          3   -1    0    0  501    0  0.00000000000E+00 -0.00000000000E+00 -0.57519437833E+03  0.57519437833E+03  0.00000000000E+00 0. -1.
         25    2    1    2    0    0  0.76603904192E+02 -0.93476653362E+02 -0.37607275968E+03  0.41435085549E+03  0.12509943249E+03 0.  0.
          5    1    3    3  502    0  0.61976079502E+02 -0.11798413541E+03 -0.35322332158E+03  0.37755195397E+03  0.41800000000E+01 0.  1.
         -5    1    3    3    0  502  0.14627824690E+02  0.24507482047E+02 -0.22849438095E+02  0.36798901515E+02  0.41800000000E+01 0.  1.
        -11    1    1    2    0    0 -0.78907134290E+02  0.45591870080E+02 -0.54026309238E+02  0.10594242091E+03  0.00000000000E+00 0. -1.
         11    1    1    2    0    0  0.23032300980E+01  0.47884783282E+02 -0.94252459226E+02  0.10574395212E+03  0.00000000000E+00 0.  1.
</event>
<event>
 7    1  0.2732144E-009  0.8747852E+02  0.7561462E-02  0.1309075E+00
         -2   -1    0    0    0  501 -0.00000000000E+00  0.00000000000E+00  0.95834576575E+02  0.95834576575E+02  0.00000000000E+00 0.  1.
          2   -1    0    0  501    0  0.00000000000E+00 -0.00000000000E+00 -0.37412079109E+03  0.37412079109E+03  0.00000000000E+00 0. -1.
         25    2    1    2    0    0 -0.20624830169E+02 -0.41492593114E+02  0.36655806371E+02  0.13833966437E+03  0.12508875127E+03 0.  0.
          5    1    3    3  502    0 -0.49066582749E+02 -0.42680407489E+01 -0.29202900429E+02  0.57411039949E+02  0.41800000000E+01 0. -1.
         -5    1    3    3    0  502  0.28441752581E+02 -0.37224552366E+02  0.65858706800E+02  0.80928624417E+02  0.41800000000E+01 0. -1.
        -11    1    1    2    0    0  0.43538224504E+02  0.29899030091E+02 -0.29334503789E+03  0.29806180608E+03  0.00000000000E+00 0. -1.
         11    1    1    2    0    0 -0.22913394335E+02  0.11593563024E+02 -0.21596982994E+02  0.33553897210E+02  0.00000000000E+00 0.  1.
</event>
<event>
 7    1  0.2732144E-009  0.1100393E+03  0.7561462E-02  0.1260497E+00
          4   -1    0    0  501    0  0.00000000000E+00  0.00000000000E+00  0.18594956783E+03  0.18594956783E+03  0.00000000000E+00 0. -1.
         -4   -1    0    0    0  501 -0.00000000000E+00 -0.00000000000E+00 -0.78105708008E+02  0.78105708008E+02  0.00000000000E+00 0.  1.
         25    2    1    2    0    0  0.17205410665E+02 -0.50229689020E+02  0.54993035044E+02  0.14659776528E+03  0.12509045953E+03 0.  0.
          5    1    3    3  502    0  0.34365504551E+02 -0.86268486392E+02  0.24318642797E+02  0.96083861469E+02  0.41800000000E+01 0.  1.
         -5    1    3    3    0  502 -0.17160093886E+02  0.36038797371E+02  0.30674392246E+02  0.50513903807E+02  0.41800000000E+01 0.  1.
        -11    1    1    2    0    0 -0.35400456338E+02  0.20174672619E+01 -0.93633414666E+01  0.36673350632E+02  0.00000000000E+00 0.  1.
         11    1    1    2    0    0  0.18195045674E+02  0.48212221759E+02  0.62214166244E+02  0.80784159929E+02  0.00000000000E+00 0. -1.
</event>
<event>
 7    1  0.2732144E-009  0.7677086E+02  0.7561462E-02  0.1338473E+00
          1   -1    0    0  501    0  0.00000000000E+00  0.00000000000E+00  0.51736314596E+03  0.51736314596E+03  0.00000000000E+00 0. -1.
         -1   -1    0    0    0  501 -0.00000000000E+00 -0.00000000000E+00 -0.25462176872E+02  0.25462176872E+02  0.00000000000E+00 0.  1.
         25    2    1    2    0    0 -0.32413365701E+02  0.34092912923E+01  0.32291733019E+03  0.34783008761E+03  0.12509163909E+03 0.  0.
          5    1    3    3  502    0 -0.51191455186E+02  0.14772515773E+02  0.32098481256E+03  0.32540361799E+03  0.41800000000E+01 0. -1.
         -5    1    3    3    0  502  0.18778089485E+02 -0.11363224481E+02  0.19325176240E+01  0.22426469621E+02  0.41800000000E+01 0. -1.
        -11    1    1    2    0    0 -0.58122826846E+01  0.27803461107E+02  0.12717233270E+02  0.31121425121E+02  0.00000000000E+00 0.  1.
         11    1    1    2    0    0  0.38225648386E+02 -0.31212752399E+02  0.15626640564E+03  0.16387381010E+03  0.00000000000E+00 0. -1.
</event>
<event>
 7    1  0.3551489E-009  0.1373451E+03  0.7561462E-02  0.1216947E+00
          1   -1    0    0  501    0  0.00000000000E+00  0.00000000000E+00  0.75720300235E+03  0.75720300235E+03  0.00000000000E+00 0. -1.
         -1   -1    0    0    0  501 -0.00000000000E+00 -0.00000000000E+00 -0.34788248033E+02  0.34788248033E+02  0.00000000000E+00 0.  1.
         25    2    1    2    0    0  0.82007168998E+02 -0.83629404777E+02  0.31890065233E+03  0.36203173653E+03  0.12510115542E+03 0.  0.
          5    1    3    3  502    0  0.46497696785E+02 -0.32963618055E+01  0.23796242288E+03  0.24252111024E+03  0.41800000000E+01 0.  1.
         -5    1    3    3    0  502  0.35509472213E+02 -0.80333042972E+02  0.80938229442E+02  0.11951062629E+03  0.41800000000E+01 0.  1.
        -11    1    1    2    0    0 -0.29757431386E+02  0.82492988396E+02  0.31680042804E+03  0.32871432744E+03  0.00000000000E+00 0.  1.
         11    1    1    2    0    0 -0.52249737612E+02  0.11364163812E+01  0.86713673948E+02  0.10124518641E+03  0.00000000000E+00 0. -1.
</event>
<event>
 7    1  0.2732144E-009  0.1441930E+03  0.7561462E-02  0.1207796E+00
          2   -1    0    0  501    0  0.00000000000E+00  0.00000000000E+00  0.82560410803E+03  0.82560410803E+03  0.00000000000E+00 0. -1.
         -2   -1    0    0    0  501 -0.00000000000E+00 -0.00000000000E+00 -0.42252384809E+02  0.42252384809E+02  0.00000000000E+00 0.  1.
         25    2    1    2    0    0  0.32414033426E+02  0.13800152332E+03  0.28894077629E+03  0.34530340873E+03  0.12511027885E+03 0.  0.
          5    1    3    3  502    0  0.17428052056E+00  0.42628479600E+02  0.21776747977E+03  0.22194000381E+03  0.41800000000E+01 0.  1.
         -5    1    3    3    0  502  0.32239752905E+02  0.95373043715E+02  0.71173296524E+02  0.12336340492E+03  0.41800000000E+01 0.  1.
        -11    1    1    2    0    0  0.17554359212E+01 -0.55047350650E+02  0.71618037994E+02  0.90346199339E+02  0.00000000000E+00 0.  1.
         11    1    1    2    0    0 -0.34169469347E+02 -0.82954172666E+02  0.42279290894E+03  0.43220688477E+03  0.00000000000E+00 0. -1.
</event>
<event>
 7    1  0.2732144E-009  0.1426251E+03  0.7561462E-02  0.1209840E+00
          1   -1    0    0  501    0  0.00000000000E+00  0.00000000000E+00  0.88079173192E+02  0.88079173192E+02  0.00000000000E+00 0. -1.
         -1   -1    0    0    0  501 -0.00000000000E+00 -0.00000000000E+00 -0.24825849245E+03  0.24825849245E+03  0.00000000000E+00 0.  1.
         25    2    1    2    0    0 -0.82840337260E+02  0.20750501154E+02 -0.59264828682E+02  0.16263949251E+03  0.12508469063E+03 0.  0.
          5    1    3    3  502    0 -0.19545757972E+02  0.68928856291E+02 -0.26358854976E+02  0.76455774929E+02  0.41800000000E+01 0. -1.
         -5    1    3    3    0  502 -0.63294579288E+02 -0.48178355138E+02 -0.32905973707E+02  0.86183717584E+02  0.41800000000E+01 0. -1.
        -11    1    1    2    0    0  0.60274510518E+02  0.37753724817E+02 -0.25350295199E+02  0.75504952304E+02  0.00000000000E+00 0. -1.
         11    1    1    2    0    0  0.22565826742E+02 -0.58504225971E+02 -0.75564195376E+02  0.98193220825E+02  0.00000000000E+00 0.  1.
</event>
<event>
 7    1  0.2732144E-009  0.1333686E+03  0.7561462E-02  0.1222541E+00
          2   -1    0    0  501    0  0.00000000000E+00  0.00000000000E+00  0.39702999714E+03  0.39702999714E+03  0.00000000000E+00 0. -1.
         -2   -1    0    0    0  501 -0.00000000000E+00 -0.00000000000E+00 -0.55906397603E+02  0.55906397603E+02  0.00000000000E+00 0.  1.
         25    2    1    2    0    0 -0.23463975226E+02  0.99639397193E+02  0.18096204948E+03  0.24263952034E+03  0.12509238935E+03 0.  0.
          5    1    3    3  502    0 -0.15211008531E+01  0.11748235436E+03  0.17877335086E+03  0.21396682152E+03  0.41800000000E+01 0. -1.
         -5    1    3    3    0  502 -0.21942874373E+02 -0.17842957163E+02  0.21886986198E+01  0.28672698821E+02  0.41800000000E+01 0. -1.
        -11    1    1    2    0    0 -0.21419048186E+02 -0.20771407983E+02  0.92246692974E+02  0.96951943660E+02  0.00000000000E+00 0. -1.
         11    1    1    2    0    0  0.44883023411E+02 -0.78867989210E+02  0.67914857084E+02  0.11334493074E+03  0.00000000000E+00 0.  1.
</event>
<event>
 7    1  0.2732144E-009  0.6192241E+02  0.7561462E-02  0.1389937E+00
          2   -1    0    0  501    0  0.00000000000E+00  0.00000000000E+00  0.13388159393E+03  0.13388159393E+03  0.00000000000E+00 0. -1.
         -2   -1    0    0    0  501 -0.00000000000E+00 -0.00000000000E+00 -0.10781345224E+03  0.10781345224E+03  0.00000000000E+00 0.  1.
         25    2    1    2    0    0  0.34999468509E+02  0.24841598783E+01  0.50786957681E+02  0.13948712202E+03  0.12508480441E+03 0.  0.
          5    1    3    3  502    0  0.53129680310E+02  0.12228133966E+02 -0.25521089194E+02  0.60341433392E+02  0.41800000000E+01 0.  1.
         -5    1    3    3    0  502 -0.18130211801E+02 -0.97439740872E+01  0.76308046875E+02  0.79145688631E+02  0.41800000000E+01 0.  1.
        -11    1    1    2    0    0 -0.21775567154E+02  0.14852707314E+02  0.31990697257E+02  0.41450970440E+02  0.00000000000E+00 0. -1.
         11    1    1    2    0    0 -0.13223901355E+02 -0.17336867192E+02 -0.56709513252E+02  0.60756953712E+02  0.00000000000E+00 0.  1.
</event>
<event>
 7    1  0.2732144E-009  0.1740081E+03  0.7561462E-02  0.1173731E+00
         -1   -1    0    0    0  501 -0.00000000000E+00  0.00000000000E+00  0.86201688237E+02  0.86201688237E+02  0.00000000000E+00 0.  1.
          1   -1    0    0  501    0  0.00000000000E+00 -0.00000000000E+00 -0.57005715964E+03  0.57005715964E+03  0.00000000000E+00 0. -1.
         25    2    1    2    0    0  0.18759362336E+02 -0.15006456758E+03 -0.74092489706E+02  0.20978202503E+03  0.12509001909E+03 0.  0.
          5    1    3    3  502    0 -0.51688258978E+02 -0.57432575301E+02 -0.13635909929E+02  0.78572178674E+02  0.41800000000E+01 0. -1.
         -5    1    3    3    0  502  0.70447621314E+02 -0.92631992276E+02 -0.60456579777E+02  0.13120984635E+03  0.41800000000E+01 0. -1.
        -11    1    1    2    0    0  0.71846703196E+01  0.14768612636E+02 -0.25850033366E+01  0.16625692438E+02  0.00000000000E+00 0.  1.
         11    1    1    2    0    0 -0.25944032656E+02  0.13529595494E+03 -0.40717797836E+03  0.42985113041E+03  0.00000000000E+00 0. -1.
</event>
<event>
 7    1  0.2732144E-009  0.1080022E+03  0.7561462E-02  0.1264315E+00
         -4   -1    0    0    0  501 -0.00000000000E+00  0.00000000000E+00  0.12869507988E+03  0.12869507988E+03  0.00000000000E+00 0.  1.
          4   -1    0    0  501    0  0.00000000000E+00 -0.00000000000E+00 -0.13612519009E+03  0.13612519009E+03  0.00000000000E+00 0. -1.
         25    2    1    2    0    0 -0.69474462937E+02 -0.17453797388E+01 -0.36576129735E+02  0.14770288252E+03  0.12509428799E+03 0.  0.
          5    1    3    3  502    0 -0.43082791250E+01  0.31082395878E+02 -0.62576721169E+02  0.70128418169E+02  0.41800000000E+01 0. -1.
         -5    1    3    3    0  502 -0.65166183811E+02 -0.32827775617E+02  0.26000591434E+02  0.77574464352E+02  0.41800000000E+01 0. -1.
        -11    1    1    2    0    0  0.61054571557E+01 -0.36657866435E+02  0.20702903653E+02  0.42540404303E+02  0.00000000000E+00 0.  1.
         11    1    1    2    0    0  0.63369005781E+02  0.38403246173E+02  0.84431158745E+01  0.74576983151E+02  0.00000000000E+00 0. -1.
</event>
<event>
 7    1  0.2732144E-009  0.1043450E+03  0.7561462E-02  0.1271416E+00
         -1   -1    0    0    0  501 -0.00000000000E+00  0.00000000000E+00  0.13579949179E+04  0.13579949179E+04  0.00000000000E+00 0.  1.
          1   -1    0    0  501    0  0.00000000000E+00 -0.00000000000E+00 -0.17988164630E+02  0.17988164630E+02  0.00000000000E+00 0. -1.
         25    2    1    2    0    0 -0.71018411098E+02  0.77499005694E+01  0.11031630112E+04  0.11125290168E+04  0.12509399785E+03 0.  0.
          5    1    3    3  502    0 -0.96421652027E+02 -0.17987563626E+02  0.59326050745E+03  0.60132868677E+03  0.41800000000E+01 0.  1.
         -5    1    3    3    0  502  0.25403240929E+02  0.25737464195E+02  0.50990250375E+03  0.51120033005E+03  0.41800000000E+01 0.  1.
        -11    1    1    2    0    0  0.46797743625E+02 -0.14457454504E+02  0.23292375575E+03  0.23801790436E+03  0.00000000000E+00 0.  1.
         11    1    1    2    0    0  0.24220667473E+02  0.67075539344E+01  0.39199863271E+01  0.25436161373E+02  0.00000000000E+00 0. -1.
</event>
<event>
 7    1  0.2732144E-009  0.1143807E+03  0.7561462E-02  0.1252666E+00
          3   -1    0    0  501    0  0.00000000000E+00  0.00000000000E+00  0.20214508256E+02  0.20214508256E+02  0.00000000000E+00 0. -1.
         -3   -1    0    0    0  501 -0.00000000000E+00 -0.00000000000E+00 -0.76221158083E+03  0.76221158083E+03  0.00000000000E+00 0.  1.
         25    2    1    2    0    0  0.27279841874E+02 -0.27905540735E+02 -0.56093721097E+03  0.57603987156E+03  0.12509384480E+03 0.  0.
          5    1    3    3  502    0  0.44140995158E+02 -0.70880951486E+02 -0.39491989430E+03  0.40367280321E+03  0.41800000000E+01 0. -1.
         -5    1    3    3    0  502 -0.16861153284E+02  0.42975410751E+02 -0.16601731667E+03  0.17236706835E+03  0.41800000000E+01 0. -1.
        -11    1    1    2    0    0 -0.36111925889E+02 -0.25795629469E+02 -0.88765723761E+02  0.99241319045E+02  0.00000000000E+00 0. -1.
         11    1    1    2    0    0  0.88320840158E+01  0.53701170203E+02 -0.92294137847E+02  0.10714489848E+03  0.00000000000E+00 0.  1.
</event>
<event>
 7    1  0.2732144E-009  0.1044165E+03  0.7561462E-02  0.1271274E+00
         -2   -1    0    0    0  501 -0.00000000000E+00  0.00000000000E+00  0.23044953198E+03  0.23044953198E+03  0.00000000000E+00 0.  1.
          2   -1    0    0  501    0  0.00000000000E+00 -0.00000000000E+00 -0.80955764909E+02  0.80955764909E+02  0.00000000000E+00 0. -1.
         25    2    1    2    0    0  0.47287725853E+02 -0.29213632362E+02  0.15286571526E+03  0.20519510083E+03  0.12509011621E+03 0.  0.
          5    1    3    3  502    0  0.41348712731E+02 -0.71058390906E+02  0.13705611639E+03  0.15987764823E+03  0.41800000000E+01 0.  1.
         -5    1    3    3    0  502  0.59390131224E+01  0.41844758543E+02  0.15809598866E+02  0.45317452606E+02  0.41800000000E+01 0.  1.
        -11    1    1    2    0    0 -0.45931718017E+02  0.47284945420E+02  0.26681255775E+02  0.71115948936E+02  0.00000000000E+00 0.  1.
         11    1    1    2    0    0 -0.13560078366E+01 -0.18071313058E+02 -0.30053203958E+02  0.35094247121E+02  0.00000000000E+00 0. -1.
</event>
<event>
 7    1  0.2732144E-009  0.1400415E+03  0.7561462E-02  0.1213273E+00
         -1   -1    0    0    0  501 -0.00000000000E+00  0.00000000000E+00  0.60444810075E+02  0.60444810075E+02  0.00000000000E+00 0.  1.
          1   -1    0    0  501    0  0.00000000000E+00 -0.00000000000E+00 -0.48171365734E+03  0.48171365734E+03  0.00000000000E+00 0. -1.
         25    2    1    2    0    0  0.74568299392E+02  0.10303529124E+03 -0.27672968739E+03  0.32924645945E+03  0.12508880310E+03 0.  0.
          5    1    3    3  502    0  0.15930153663E+02  0.63438946285E+02 -0.29170033046E+02  0.71740037144E+02  0.41800000000E+01 0. -1.
         -5    1    3    3    0  502  0.58638145728E+02  0.39596344953E+02 -0.24755965434E+03  0.25750642230E+03  0.41800000000E+01 0. -1.
        -11    1    1    2    0    0 -0.42521859459E+01 -0.62207999098E+02 -0.10588955275E+03  0.12288414714E+03  0.00000000000E+00 0. -1.
         11    1    1    2    0    0 -0.70316113446E+02 -0.40827292141E+02 -0.38649607119E+02  0.90027860822E+02  0.00000000000E+00 0.  1.
</event>
<event>
 7    1  0.2732144E-009  0.7566334E+02  0.7561462E-02  0.1341829E+00
         -1   -1    0    0    0  501 -0.00000000000E+00  0.00000000000E+00  0.67723352560E+02  0.67723352560E+02  0.00000000000E+00 0.  1.
          1   -1    0    0  501    0  0.00000000000E+00 -0.00000000000E+00 -0.23380042136E+03  0.23380042136E+03  0.00000000000E+00 0. -1.
         25    2    1    2    0    0 -0.53335452286E+02 -0.15234189148E+02 -0.13565959179E+03  0.19268777434E+03  0.12509317546E+03 0.  0.
          5    1    3    3  502    0 -0.44707525342E+02 -0.34262073543E+02 -0.11414975033E+01  0.56492724507E+02  0.41800000000E+01 0. -1.
         -5    1    3    3    0  502 -0.86279269434E+01  0.19027884395E+02 -0.13451809429E+03  0.13619504983E+03  0.41800000000E+01 0. -1.
        -11    1    1    2    0    0  0.41360680018E+02 -0.12600602143E+02  0.21831324274E+02  0.48436429942E+02  0.00000000000E+00 0.  1.
         11    1    1    2    0    0  0.11974772267E+02  0.27834791291E+02 -0.52248801278E+02  0.60399569635E+02  0.00000000000E+00 0. -1.
</event>
<event>
 7    1  0.2732144E-009  0.1140290E+03  0.7561462E-02  0.1253286E+00
          1   -1    0    0  501    0  0.00000000000E+00  0.00000000000E+00  0.70883716070E+03  0.70883716070E+03  0.00000000000E+00 0. -1.
         -1   -1    0    0    0  501 -0.00000000000E+00 -0.00000000000E+00 -0.28084310809E+02  0.28084310809E+02  0.00000000000E+00 0.  1.
         25    2    1    2    0    0 -0.22159847493E+02 -0.89844384750E+02  0.45172345978E+03  0.47777091332E+03  0.12509152324E+03 0.  0.
          5    1    3    3  502    0  0.18140315429E+02 -0.21027739354E+02  0.33597811583E+03  0.33714982365E+03  0.41800000000E+01 0. -1.
         -5    1    3    3    0  502 -0.40300162922E+02 -0.68816645397E+02  0.11574534395E+03  0.14062108967E+03  0.41800000000E+01 0. -1.
        -11    1    1    2    0    0  0.40704075093E+02  0.92802987936E+02  0.17872257927E+03  0.20545310083E+03  0.00000000000E+00 0.  1.
         11    1    1    2    0    0 -0.18544227600E+02 -0.29586031858E+01  0.50306810840E+02  0.53697457361E+02  0.00000000000E+00 0. -1.
</event>
<event>
 7    1  0.2732144E-009  0.9881120E+02  0.7561462E-02  0.1282816E+00
         -3   -1    0    0    0  501 -0.00000000000E+00  0.00000000000E+00  0.32450184701E+02  0.32450184701E+02  0.00000000000E+00 0.  1.
          3   -1    0    0  501    0  0.00000000000E+00 -0.00000000000E+00 -0.55467952037E+03  0.55467952037E+03  0.00000000000E+00 0. -1.
         25    2    1    2    0    0 -0.22069040868E+02  0.72084261042E+02 -0.22432443212E+03  0.26767927489E+03  0.12509020788E+03 0.  0.
          5    1    3    3  502    0 -0.11518117485E+02  0.74379875895E+02 -0.23806268691E+03  0.24971253126E+03  0.41800000000E+01 0. -1.
         -5    1    3    3    0  502 -0.10550923383E+02 -0.22956148536E+01  0.13738254797E+02  0.17966743630E+02  0.41800000000E+01 0. -1.
        -11    1    1    2    0    0  0.52958339227E+02 -0.42703722614E+02 -0.22431449609E+03  0.23440389667E+03  0.00000000000E+00 0.  1.
         11    1    1    2    0    0 -0.30889298359E+02 -0.29380538428E+02 -0.73590407467E+02  0.85046533513E+02  0.00000000000E+00 0. -1.
</event>
<event>
 7    1  0.2732144E-009  0.1131366E+03  0.7561462E-02  0.1254869E+00
         -1   -1    0    0    0  501 -0.00000000000E+00  0.00000000000E+00  0.39266118587E+03  0.39266118587E+03  0.00000000000E+00 0.  1.
          1   -1    0    0  501    0  0.00000000000E+00 -0.00000000000E+00 -0.42757405287E+02  0.42757405287E+02  0.00000000000E+00 0. -1.
         25    2    1    2    0    0  0.41926989327E+02  0.56868166742E+02  0.20657818415E+03  0.25162393417E+03  0.12509275461E+03 0.  0.
          5    1    3    3  502    0 -0.27145859059E+02  0.66701111849E+02  0.85942483412E+02  0.11220302510E+03  0.41800000000E+01 0.  1.
         -5    1    3    3    0  502  0.69072848386E+02 -0.98329451062E+01  0.12063570074E+03  0.13942090907E+03  0.41800000000E+01 0.  1.
        -11    1    1    2    0    0 -0.20567090778E+02  0.29031883690E+01 -0.59318667105E+01  0.21601406631E+02  0.00000000000E+00 0. -1.
         11    1    1    2    0    0 -0.21359898550E+02 -0.59771355111E+02  0.14925746314E+03  0.16219325035E+03  0.00000000000E+00 0.  1.
</event>
<event>
 7    1  0.2732144E-009  0.1278467E+03  0.7561462E-02  0.1230686E+00
         -1   -1    0    0    0  501 -0.00000000000E+00  0.00000000000E+00  0.23551447523E+02  0.23551447523E+02  0.00000000000E+00 0.  1.
          1   -1    0    0  501    0  0.00000000000E+00 -0.00000000000E+00 -0.83021303130E+03  0.83021303130E+03  0.00000000000E+00 0. -1.
         25    2    1    2    0    0 -0.63299920780E+01 -0.78253137304E+02 -0.32326558746E+03  0.35540253790E+03  0.12508677634E+03 0.  0.
          5    1    3    3  502    0  0.48131321462E+02 -0.13785544078E+02 -0.19820229328E+03  0.20447074801E+03  0.41800000000E+01 0.  1.
         -5    1    3    3    0  502 -0.54461313540E+02 -0.64467593226E+02 -0.12506329418E+03  0.15093178989E+03  0.41800000000E+01 0.  1.
        -11    1    1    2    0    0 -0.48409828886E+01 -0.20759130103E+02 -0.98251613591E+02  0.10053733720E+03  0.00000000000E+00 0.  1.
         11    1    1    2    0    0  0.11170974967E+02  0.99012267407E+02 -0.38514438273E+03  0.39782460373E+03  0.00000000000E+00 0. -1.
</event>
<event>
 7    1  0.2732144E-009  0.9758700E+02  0.7561462E-02  0.1285454E+00
         -1   -1    0    0    0  501 -0.00000000000E+00  0.00000000000E+00  0.18031601453E+02  0.18031601453E+02  0.00000000000E+00 0.  1.
          1   -1    0    0  501    0  0.00000000000E+00 -0.00000000000E+00 -0.69502816768E+03  0.69502816768E+03  0.00000000000E+00 0. -1.
         25    2    1    2    0    0  0.24864727301E+01  0.16306247773E+02 -0.45666525883E+03  0.47377501532E+03  0.12509008854E+03 0.  0.
          5    1    3    3  502    0 -0.49102590307E+02  0.14895190563E+02 -0.36402339978E+03  0.36764580653E+03  0.41800000000E+01 0. -1.
         -5    1    3    3    0  502  0.51589063037E+02  0.14110572095E+01 -0.92641859059E+02  0.10612920879E+03  0.41800000000E+01 0. -1.
        -11    1    1    2    0    0  0.43934079597E+02 -0.10109894314E+02 -0.87345996103E+02  0.98294131810E+02  0.00000000000E+00 0.  1.
         11    1    1    2    0    0 -0.46420552327E+02 -0.61963534586E+01 -0.13298531129E+03  0.14099062201E+03  0.00000000000E+00 0. -1.
</event>
<event>
 7    1  0.2732144E-009  0.1270851E+03  0.7561462E-02  0.1231846E+00
         -3   -1    0    0    0  501 -0.00000000000E+00  0.00000000000E+00  0.64673967880E+03  0.64673967880E+03  0.00000000000E+00 0.  1.
          3   -1    0    0  501    0  0.00000000000E+00 -0.00000000000E+00 -0.42064584969E+02  0.42064584969E+02  0.00000000000E+00 0. -1.
         25    2    1    2    0    0 -0.11621002237E+03  0.32306931172E+02  0.38230433524E+03  0.41994416428E+03  0.12509192329E+03 0.  0.
          5    1    3    3  502    0 -0.62074916660E+02  0.21240861988E+02  0.48816554506E+02  0.81884051500E+02  0.41800000000E+01 0. -1.
         -5    1    3    3    0  502 -0.54135105711E+02  0.11066069184E+02  0.33348778073E+03  0.33806011278E+03  0.41800000000E+01 0. -1.
        -11    1    1    2    0    0  0.88675316583E+02  0.24072270574E+01  0.20092205160E+03  0.21963327920E+03  0.00000000000E+00 0.  1.
         11    1    1    2    0    0  0.27534705787E+02 -0.34714158229E+02  0.21448707004E+02  0.49226820297E+02  0.00000000000E+00 0. -1.
</event>
<event>
 7    1  0.3030895E-009  0.9108631E+02  0.7561462E-02  0.1300242E+00
         -1   -1    0    0    0  501 -0.00000000000E+00  0.00000000000E+00  0.79682139171E+02  0.79682139171E+02  0.00000000000E+00 0.  1.
          1   -1    0    0  501    0  0.00000000000E+00 -0.00000000000E+00 -0.17661206090E+03  0.17661206090E+03  0.00000000000E+00 0. -1.
         25    2    1    2    0    0  0.11775753440E+02  0.11594310677E+02 -0.68331283603E+01  0.12635907325E+03  0.12508727889E+03 0.  0.
          5    1    3    3  502    0  0.40267528920E+02 -0.45943196102E+02 -0.94736878794E+01  0.61963491795E+02  0.41800000000E+01 0. -1.
         -5    1    3    3    0  502 -0.28491775481E+02  0.57537506779E+02  0.26405595191E+01  0.64395581455E+02  0.41800000000E+01 0. -1.
        -11    1    1    2    0    0  0.13380766416E+01  0.21218122780E+02 -0.92119832097E+02  0.94541327730E+02  0.00000000000E+00 0. -1.
         11    1    1    2    0    0 -0.13113830081E+02 -0.32812433456E+02  0.20230387232E+01  0.35393799095E+02  0.00000000000E+00 0.  1.
</event>
<event>
 7    1  0.2732144E-009  0.1391863E+03  0.7561462E-02  0.1214428E+00
         -1   -1    0    0    0  501 -0.00000000000E+00  0.00000000000E+00  0.34067949447E+03  0.34067949447E+03  0.00000000000E+00 0.  1.
          1   -1    0    0  501    0  0.00000000000E+00 -0.00000000000E+00 -0.82489416702E+02  0.82489416702E+02  0.00000000000E+00 0. -1.
         25    2    1    2    0    0  0.65195840962E+02 -0.81791901485E+02  0.46150468694E+02  0.16946700250E+03  0.12509510921E+03 0.  0.
          5    1    3    3  502    0 -0.28149755048E+02 -0.39795975928E+02  0.45810097469E+02  0.67023621503E+02  0.41800000000E+01 0. -1.
         -5    1    3    3    0  502  0.93345596010E+02 -0.41995925557E+02  0.34037122440E+00  0.10244338100E+03  0.41800000000E+01 0. -1.
        -11    1    1    2    0    0  0.32158680550E+01 -0.11147591026E+02  0.68733498797E+02  0.69705842294E+02  0.00000000000E+00 0.  1.
         11    1    1    2    0    0 -0.68411709017E+02  0.92939492511E+02  0.14330611027E+03  0.18399606637E+03  0.00000000000E+00 0. -1.
</event>
<event>
 7    1  0.2732144E-009  0.9516735E+02  0.7561462E-02  0.1290800E+00
         -4   -1    0    0    0  501 -0.00000000000E+00  0.00000000000E+00  0.27799106174E+03  0.27799106174E+03  0.00000000000E+00 0.  1.
          4   -1    0    0  501    0  0.00000000000E+00 -0.00000000000E+00 -0.70540231100E+02  0.70540231100E+02  0.00000000000E+00 0. -1.
         25    2    1    2    0    0  0.26240917950E+02 -0.84810529969E+02  0.10819503526E+03  0.18771035046E+03  0.12509036033E+03 0.  0.
          5    1    3    3  502    0  0.21805011576E+02 -0.30236081169E+02  0.12482023553E+03  0.13033511703E+03  0.41800000000E+01 0.  1.
         -5    1    3    3    0  502  0.44359063741E+01 -0.54574448800E+02 -0.16625200269E+02  0.57375233431E+02  0.41800000000E+01 0.  1.
        -11    1    1    2    0    0 -0.25537450753E+02  0.18354445765E+02 -0.99468325003E+01  0.32984641078E+02  0.00000000000E+00 0. -1.
         11    1    1    2    0    0 -0.70346719724E+00  0.66456084204E+02  0.10920262788E+03  0.12783630130E+03  0.00000000000E+00 0.  1.
</event>
<event>
 7    1  0.3260126E-009  0.1518399E+03  0.7561462E-02  0.1198230E+00
         -2   -1    0    0    0  501 -0.00000000000E+00  0.00000000000E+00  0.56173548732E+02  0.56173548732E+02  0.00000000000E+00 0.  1.
          2   -1    0    0  501    0  0.00000000000E+00 -0.00000000000E+00 -0.49701799056E+03  0.49701799056E+03  0.00000000000E+00 0. -1.
         25    2    1    2    0    0  0.70773623874E+02  0.10554178986E+03 -0.24317769973E+03  0.30153985150E+03  0.12507163209E+03 0.  0.
          5    1    3    3  502    0  0.10362820883E+03  0.97886253849E+02 -0.17850333113E+03  0.22847633571E+03  0.41800000000E+01 0. -1.
         -5    1    3    3    0  502 -0.32854584958E+02  0.76555360086E+01 -0.64674368606E+02  0.73063515785E+02  0.41800000000E+01 0. -1.
        -11    1    1    2    0    0 -0.29339965934E+02 -0.43279626104E+02 -0.15198608186E+02  0.54451421722E+02  0.00000000000E+00 0.  1.
         11    1    1    2    0    0 -0.41433657940E+02 -0.62262163753E+02 -0.18246813391E+03  0.19720026607E+03  0.00000000000E+00 0. -1.
</event>
<event>
 7    1  0.2732144E-009  0.2016397E+03  0.7561462E-02  0.1148363E+00
          2   -1    0    0  501    0  0.00000000000E+00  0.00000000000E+00  0.29565037733E+03  0.29565037733E+03  0.00000000000E+00 0. -1.
         -2   -1    0    0    0  501 -0.00000000000E+00 -0.00000000000E+00 -0.14569584242E+03  0.14569584242E+03  0.00000000000E+00 0.  1.
         25    2    1    2    0    0  0.17455990351E+03 -0.61672336832E+01  0.61430849489E+02  0.22345088495E+03  0.12508938417E+03 0.  0.
          5    1    3    3  502    0 -0.18726760742E+02  0.38041895156E+01 -0.21725034376E+01  0.19681351502E+02  0.41800000000E+01 0.  1.
         -5    1    3    3    0  502  0.19328666426E+03 -0.99714231988E+01  0.63603352927E+02  0.20376953345E+03  0.41800000000E+01 0.  1.
        -11    1    1    2    0    0 -0.10619305302E+03 -0.33170527051E+02  0.19226763905E+02  0.11290224455E+03  0.00000000000E+00 0.  1.
         11    1    1    2    0    0 -0.68366850495E+02  0.39337760734E+02  0.69296921522E+02  0.10499309024E+03  0.00000000000E+00 0. -1.
</event>
<event>
 7    1  0.2732144E-009  0.2391482E+03  0.7561462E-02  0.1120362E+00
          2   -1    0    0  501    0  0.00000000000E+00  0.00000000000E+00  0.55712326399E+03  0.55712326399E+03  0.00000000000E+00 0.  1.
         -2   -1    0    0    0  501 -0.00000000000E+00 -0.00000000000E+00 -0.11148356345E+03  0.11148356345E+03  0.00000000000E+00 0. -1.
         25    2    1    2    0    0 -0.11076423468E+03  0.18173582962E+03  0.13674119149E+03  0.28220910689E+03  0.12508876493E+03 0.  0.
          5    1    3    3  502    0 -0.86105950123E+01  0.13246193560E+03  0.64175968796E+02  0.14750028508E+03  0.41800000000E+01 0. -1.
         -5    1    3    3    0  502 -0.10215363966E+03  0.49273894024E+02  0.72565222691E+02  0.13470882181E+03  0.41800000000E+01 0. -1.
        -11    1    1    2    0    0  0.34486797770E+02 -0.14172657762E+03  0.18778737033E+03  0.23778111464E+03  0.00000000000E+00 0.  1.
         11    1    1    2    0    0  0.76277436906E+02 -0.40009251999E+02  0.12111113873E+03  0.14861660591E+03  0.00000000000E+00 0. -1.
</event>
<event>
 7    1  0.2732144E-009  0.2767717E+03  0.7561462E-02  0.1097465E+00
         -2   -1    0    0    0  501 -0.00000000000E+00  0.00000000000E+00  0.60226038059E+02  0.60226038059E+02  0.00000000000E+00 0.  1.
          2   -1    0    0  501    0  0.00000000000E+00 -0.00000000000E+00 -0.15610564778E+04  0.15610564778E+04  0.00000000000E+00 0. -1.
         25    2    1    2    0    0 -0.26434531995E+03  0.35329773472E+02 -0.48897101315E+03  0.57084664302E+03  0.12508635845E+03 0.  0.
          5    1    3    3  502    0 -0.27178817342E+03  0.24305922900E+02 -0.48472975365E+03  0.55627331014E+03  0.41800000000E+01 0.  1.
         -5    1    3    3    0  502  0.74428534662E+01  0.11023850572E+02 -0.42412595032E+01  0.14573332883E+02  0.41800000000E+01 0.  1.
        -11    1    1    2    0    0  0.10256831433E+03 -0.13870709877E+02 -0.57177921429E+03  0.58107153224E+03  0.00000000000E+00 0. -1.
         11    1    1    2    0    0  0.16177700563E+03 -0.21459063595E+02 -0.44008021233E+03  0.46936434062E+03  0.00000000000E+00 0.  1.
</event>
<event>
 7    1  0.2732144E-009  0.1136024E+03  0.7561462E-02  0.1254040E+00
          1   -1    0    0  501    0  0.00000000000E+00  0.00000000000E+00  0.65504433134E+03  0.65504433134E+03  0.00000000000E+00 0. -1.
         -1   -1    0    0    0  501 -0.00000000000E+00 -0.00000000000E+00 -0.27509210918E+02  0.27509210918E+02  0.00000000000E+00 0.  1.
         25    2    1    2    0    0  0.55842214560E+02 -0.34380327183E+02  0.45154321104E+03  0.47312349524E+03  0.12511678738E+03 0.  0.
          5    1    3    3  502    0  0.93120444946E+02 -0.21494959776E+02  0.24920717588E+03  0.26693658324E+03  0.41800000000E+01 0. -1.
         -5    1    3    3    0  502 -0.37278230386E+02 -0.12885367407E+02  0.20233603516E+03  0.20618691200E+03  0.41800000000E+01 0. -1.
        -11    1    1    2    0    0 -0.31787479896E+01  0.38894910453E+02  0.14036183276E+03  0.14568583525E+03  0.00000000000E+00 0. -1.
         11    1    1    2    0    0 -0.52663466570E+02 -0.45145832700E+01  0.35630076616E+02  0.63744211760E+02  0.00000000000E+00 0.  1.
</event>
<event>
 7    1  0.2732144E-009  0.1266838E+03  0.7561462E-02  0.1232461E+00
          2   -1    0    0  501    0  0.00000000000E+00  0.00000000000E+00  0.22640864803E+04  0.22640864803E+04  0.00000000000E+00 0. -1.
         -2   -1    0    0    0  501 -0.00000000000E+00 -0.00000000000E+00 -0.18568858084E+02  0.18568858084E+02  0.00000000000E+00 0.  1.
         25    2    1    2    0    0 -0.75577972728E+02 -0.17134043241E+02  0.20376633600E+04  0.20429699133E+04  0.12509393510E+03 0.  0.
          5    1    3    3  502    0  0.98362508133E+01 -0.44824245500E+02  0.11114990261E+04  0.11124538293E+04  0.41800000000E+01 0. -1.
         -5    1    3    3    0  502 -0.85414223542E+02  0.27690202259E+02  0.92616433389E+03  0.93051608404E+03  0.41800000000E+01 0. -1.
        -11    1    1    2    0    0 -0.58316150630E+01  0.33801499140E+02  0.42413547996E+02  0.54547760100E+02  0.00000000000E+00 0. -1.
         11    1    1    2    0    0  0.81409587791E+02 -0.16667455899E+02  0.16544071422E+03  0.18513766498E+03  0.00000000000E+00 0.  1.
</event>
<event>
 7    1  0.2732144E-009  0.2180439E+03  0.7561462E-02  0.1135350E+00
          2   -1    0    0  501    0  0.00000000000E+00  0.00000000000E+00  0.44195748866E+03  0.44195748866E+03  0.00000000000E+00 0. -1.
         -2   -1    0    0    0  501 -0.00000000000E+00 -0.00000000000E+00 -0.13576178230E+03  0.13576178230E+03  0.00000000000E+00 0.  1.
         25    2    1    2    0    0  0.20405335038E+03 -0.72137379911E+02  0.19917379296E+03  0.31962989524E+03  0.12510595007E+03 0.  0.
          5    1    3    3  502    0  0.41010965490E+02 -0.85974025398E+01  0.12064903280E+03  0.12778683867E+03  0.41800000000E+01 0. -1.
         -5    1    3    3    0  502  0.16304238489E+03 -0.63539977371E+02  0.78524760163E+02  0.19184305657E+03  0.41800000000E+01 0. -1.
        -11    1    1    2    0    0 -0.19491921495E+03  0.60388335191E+02  0.12136298323E+03  0.23742204001E+03  0.00000000000E+00 0. -1.
         11    1    1    2    0    0 -0.91341354323E+01  0.11749044720E+02 -0.14341069833E+02  0.20667335723E+02  0.00000000000E+00 0.  1.
</event>
<event>
 7    1  0.2732144E-009  0.1395547E+03  0.7561462E-02  0.1213929E+00
          1   -1    0    0  501    0  0.00000000000E+00  0.00000000000E+00  0.21098994055E+02  0.21098994055E+02  0.00000000000E+00 0. -1.
         -1   -1    0    0    0  501 -0.00000000000E+00 -0.00000000000E+00 -0.10064092168E+04  0.10064092168E+04  0.00000000000E+00 0.  1.
         25    2    1    2    0    0 -0.69215025031E+02  0.69478260140E+01 -0.61424702680E+03  0.63070195014E+03  0.12508616234E+03 0.  0.
          5    1    3    3  502    0 -0.10589021098E+03  0.31739978971E+01 -0.45337555390E+03  0.46560678294E+03  0.41800000000E+01 0.  1.
         -5    1    3    3    0  502  0.36675185945E+02  0.37738281169E+01 -0.16087147289E+03  0.16509516720E+03  0.41800000000E+01 0.  1.
        -11    1    1    2    0    0 -0.23335533922E+02  0.28537765318E+02 -0.15126241459E+03  0.15568965688E+03  0.00000000000E+00 0.  1.
         11    1    1    2    0    0  0.92550558952E+02 -0.35485591331E+02 -0.21980078132E+03  0.24111660379E+03  0.00000000000E+00 0. -1.
</event>
<event>
 7    1  0.2732144E-009  0.7065732E+02  0.7561462E-02  0.1357872E+00
         -1   -1    0    0    0  501 -0.00000000000E+00  0.00000000000E+00  0.21050842070E+03  0.21050842070E+03  0.00000000000E+00 0.  1.
          1   -1    0    0  501    0  0.00000000000E+00 -0.00000000000E+00 -0.74905200255E+02  0.74905200255E+02  0.00000000000E+00 0. -1.
         25    2    1    2    0    0  0.48385433931E+02  0.17960035868E+02  0.11790272432E+03  0.17947751608E+03  0.12508962096E+03 0.  0.
          5    1    3    3  502    0  0.35176225098E+02  0.24278294404E+02 -0.15163038432E+02  0.45543303852E+02  0.41800000000E+01 0. -1.
         -5    1    3    3    0  502  0.13209208834E+02 -0.63182585362E+01  0.13306576275E+03  0.13393421223E+03  0.41800000000E+01 0. -1.
        -11    1    1    2    0    0 -0.82359251748E+01 -0.37568178028E+02  0.40433450689E+02  0.55803784804E+02  0.00000000000E+00 0.  1.
         11    1    1    2    0    0 -0.40149508756E+02  0.19608142160E+02 -0.22732954563E+02  0.50132320069E+02  0.00000000000E+00 0. -1.
</event>
<event>
 7    1  0.2732144E-009  0.1151678E+03  0.7561462E-02  0.1251288E+00
          2   -1    0    0  501    0  0.00000000000E+00  0.00000000000E+00  0.65717946525E+03  0.65717946525E+03  0.00000000000E+00 0. -1.
         -2   -1    0    0    0  501 -0.00000000000E+00 -0.00000000000E+00 -0.29227874365E+02  0.29227874365E+02  0.00000000000E+00 0.  1.
         25    2    1    2    0    0 -0.52160030113E+02 -0.71513777450E-01  0.17375785689E+03  0.22036157307E+03  0.12508699452E+03 0.  0.
          5    1    3    3  502    0 -0.19599199082E+02  0.57153092404E+02  0.44213943980E+02  0.74986330876E+02  0.41800000000E+01 0. -1.
         -5    1    3    3    0  502 -0.32560831032E+02 -0.57224606182E+02  0.12954391291E+03  0.14537524219E+03  0.41800000000E+01 0. -1.
        -11    1    1    2    0    0  0.76469257333E+02  0.10798649115E+02  0.31411940833E+03  0.32347358598E+03  0.00000000000E+00 0.  1.
         11    1    1    2    0    0 -0.24309227219E+02 -0.10727135337E+02  0.14007432566E+03  0.14257218056E+03  0.00000000000E+00 0. -1.
</event>
<event>
 7    1  0.2732144E-009  0.1012365E+03  0.7561462E-02  0.1277717E+00
          1   -1    0    0  501    0  0.00000000000E+00  0.00000000000E+00  0.13392489153E+03  0.13392489153E+03  0.00000000000E+00 0. -1.
         -1   -1    0    0    0  501 -0.00000000000E+00 -0.00000000000E+00 -0.10440072511E+03  0.10440072511E+03  0.00000000000E+00 0.  1.
         25    2    1    2    0    0  0.51510276837E+01  0.39512379411E+02 -0.79188039440E+01  0.13152270425E+03  0.12509097915E+03 0.  0.
          5    1    3    3  502    0 -0.47684787300E+02  0.56500030127E+02  0.55520189301E+01  0.74258936556E+02  0.41800000000E+01 0.  1.
         -5    1    3    3    0  502  0.52835814984E+02 -0.16987650715E+02 -0.13470822874E+02  0.57263767696E+02  0.41800000000E+01 0.  1.
        -11    1    1    2    0    0  0.13709258595E+02 -0.49541976863E+02  0.57761016937E+02  0.77321965316E+02  0.00000000000E+00 0. -1.
         11    1    1    2    0    0 -0.18860286279E+02  0.10029597451E+02 -0.20318046574E+02  0.29480947070E+02  0.00000000000E+00 0.  1.
</event>
<event>
 7    1  0.2732144E-009  0.1751771E+03  0.7561462E-02  0.1172554E+00
         -2   -1    0    0    0  501 -0.00000000000E+00  0.00000000000E+00  0.50959806334E+02  0.50959806334E+02  0.00000000000E+00 0.  1.
          2   -1    0    0  501    0  0.00000000000E+00 -0.00000000000E+00 -0.87427890349E+03  0.87427890349E+03  0.00000000000E+00 0. -1.
         25    2    1    2    0    0  0.11111404406E+02  0.16793426633E+03 -0.28402234361E+03  0.35304723831E+03  0.12509308410E+03 0.  0.
          5    1    3    3  502    0  0.44441142661E+01  0.94521628466E+02 -0.48882763092E+02  0.10658839208E+03  0.41800000000E+01 0. -1.
         -5    1    3    3    0  502  0.66672901400E+01  0.73412637867E+02 -0.23513958052E+03  0.24645884622E+03  0.41800000000E+01 0. -1.
        -11    1    1    2    0    0 -0.32652864443E+02 -0.38031452375E+02 -0.80127718168E+02  0.94514825001E+02  0.00000000000E+00 0.  1.
         11    1    1    2    0    0  0.21541460037E+02 -0.12990281396E+03 -0.45916903538E+03  0.47767664652E+03  0.00000000000E+00 0. -1.
</event>
<event>
 7    1  0.2732144E-009  0.9809707E+02  0.7561462E-02  0.1284349E+00
         -1   -1    0    0    0  501 -0.00000000000E+00  0.00000000000E+00  0.73337927821E+02  0.73337927821E+02  0.00000000000E+00 0.  1.
          1   -1    0    0  501    0  0.00000000000E+00 -0.00000000000E+00 -0.32919712508E+03  0.32919712508E+03  0.00000000000E+00 0. -1.
         25    2    1    2    0    0  0.27498713674E+02  0.81207326166E+02 -0.46434042332E+02  0.15860547743E+03  0.12509503630E+03 0.  0.
          5    1    3    3  502    0  0.15477756569E+02  0.77337633107E+02 -0.86058113535E+02  0.11680814076E+03  0.41800000000E+01 0.  1.
         -5    1    3    3    0  502  0.12020957105E+02  0.38696930591E+01  0.39624071203E+02  0.41797336671E+02  0.41800000000E+01 0.  1.
        -11    1    1    2    0    0 -0.14915569701E+02  0.57954640613E+01  0.84385655552E+00  0.16024160418E+02  0.00000000000E+00 0.  1.
         11    1    1    2    0    0 -0.12583143973E+02 -0.87002790227E+02 -0.21026901148E+03  0.22790541505E+03  0.00000000000E+00 0. -1.
</event>
<event>
 7    1  0.2732144E-009  0.1451130E+03  0.7561462E-02  0.1206610E+00
          1   -1    0    0  501    0  0.00000000000E+00  0.00000000000E+00  0.34973431518E+03  0.34973431518E+03  0.00000000000E+00 0. -1.
         -1   -1    0    0    0  501 -0.00000000000E+00 -0.00000000000E+00 -0.85585405120E+02  0.85585405120E+02  0.00000000000E+00 0.  1.
         25    2    1    2    0    0  0.11727634252E+03  0.39447101463E+02  0.16833359348E+03  0.24349685791E+03  0.12507880233E+03 0.  0.
          5    1    3    3  502    0  0.75944336747E+02  0.43261325762E+01  0.17286661792E+03  0.18890896670E+03  0.41800000000E+01 0.  1.
         -5    1    3    3    0  502  0.41332005772E+02  0.35120968886E+02 -0.45330244485E+01  0.54587891215E+02  0.41800000000E+01 0.  1.
        -11    1    1    2    0    0 -0.78846725973E+02  0.26615210291E+02  0.76397264230E+02  0.11296777238E+03  0.00000000000E+00 0.  1.
         11    1    1    2    0    0 -0.38429616545E+02 -0.66062311754E+02  0.19418052357E+02  0.78855090003E+02  0.00000000000E+00 0. -1.
</event>
<event>
 7    1  0.2732144E-009  0.1662516E+03  0.7561462E-02  0.1181814E+00
         -2   -1    0    0    0  501 -0.00000000000E+00  0.00000000000E+00  0.32022404212E+02  0.32022404212E+02  0.00000000000E+00 0.  1.
          2   -1    0    0  501    0  0.00000000000E+00 -0.00000000000E+00 -0.11198309989E+04  0.11198309989E+04  0.00000000000E+00 0. -1.
         25    2    1    2    0    0 -0.15334458485E+03 -0.29270532069E+02 -0.47462872224E+03  0.51506391666E+03  0.12508832283E+03 0.  0.
          5    1    3    3  502    0 -0.57413828472E+02  0.27441003795E+02 -0.30818913213E+03  0.31471792124E+03  0.41800000000E+01 0.  1.
         -5    1    3    3    0  502 -0.95930756383E+02 -0.56711535864E+02 -0.16643959012E+03  0.20034599541E+03  0.41800000000E+01 0.  1.
        -11    1    1    2    0    0  0.10180968854E+03  0.28296486570E+02 -0.51679987263E+03  0.52749219159E+03  0.00000000000E+00 0.  1.
         11    1    1    2    0    0  0.51534896311E+02  0.97404549898E+00 -0.96379999829E+02  0.10929729489E+03  0.00000000000E+00 0. -1.
</event>
<event>
 7    1  0.2732144E-009  0.1563156E+03  0.7561462E-02  0.1192920E+00
         -1   -1    0    0    0  501 -0.00000000000E+00  0.00000000000E+00  0.84378128652E+02  0.84378128652E+02  0.00000000000E+00 0.  1.
          1   -1    0    0  501    0  0.00000000000E+00 -0.00000000000E+00 -0.34550136078E+03  0.34550136078E+03  0.00000000000E+00 0. -1.
         25    2    1    2    0    0 -0.97144980965E+02  0.62280772570E+02 -0.21333754046E+03  0.27289461752E+03  0.12507007694E+03 0.  0.
          5    1    3    3  502    0 -0.12368298738E+03  0.54652350189E+02 -0.20117958606E+03  0.24243568012E+03  0.41800000000E+01 0.  1.
         -5    1    3    3    0  502  0.26538006413E+02  0.76284223807E+01 -0.12157954393E+02  0.30458937398E+02  0.41800000000E+01 0.  1.
        -11    1    1    2    0    0  0.81991992338E+02  0.33518230949E+01 -0.29311040245E+02  0.87138158151E+02  0.00000000000E+00 0. -1.
         11    1    1    2    0    0  0.15152988627E+02 -0.65632595665E+02 -0.18474651427E+02  0.69846713762E+02  0.00000000000E+00 0.  1.
</event>
<event>
 7    1  0.2732144E-009  0.9644658E+02  0.7561462E-02  0.1287951E+00
         -3   -1    0    0    0  501 -0.00000000000E+00  0.00000000000E+00  0.12634754488E+03  0.12634754488E+03  0.00000000000E+00 0.  1.
          3   -1    0    0  501    0  0.00000000000E+00 -0.00000000000E+00 -0.15680101508E+03  0.15680101508E+03  0.00000000000E+00 0. -1.
         25    2    1    2    0    0 -0.22111586633E+02  0.96987725151E+01  0.71347138827E+02  0.14601511833E+03  0.12508801745E+03 0.  0.
          5    1    3    3  502    0 -0.60197028088E+02  0.16429513984E+02 -0.24566117638E+01  0.62586887298E+02  0.41800000000E+01 0. -1.
         -5    1    3    3    0  502  0.38085441455E+02 -0.67307414690E+01  0.73803750591E+02  0.83428231030E+02  0.41800000000E+01 0. -1.
        -11    1    1    2    0    0 -0.30163497138E+02  0.14942746683E+02 -0.43972680141E+02  0.55377963459E+02  0.00000000000E+00 0.  1.
         11    1    1    2    0    0  0.52275083770E+02 -0.24641519198E+02 -0.57827928891E+02  0.81755478174E+02  0.00000000000E+00 0. -1.
</event>
<event>
 7    1  0.2732144E-009  0.1038538E+03  0.7561462E-02  0.1272394E+00
         -2   -1    0    0    0  501 -0.00000000000E+00  0.00000000000E+00  0.62351997454E+02  0.62351997454E+02  0.00000000000E+00 0.  1.
          2   -1    0    0  501    0  0.00000000000E+00 -0.00000000000E+00 -0.28045992236E+03  0.28045992236E+03  0.00000000000E+00 0. -1.
         25    2    1    2    0    0  0.52643768544E+02  0.14522568346E+02 -0.19294873731E+03  0.23635047167E+03  0.12510019533E+03 0.  0.
          5    1    3    3  502    0 -0.27048861438E+01  0.61255186484E+02 -0.11113633732E+03  0.12699713443E+03  0.41800000000E+01 0. -1.
         -5    1    3    3    0  502  0.55348654688E+02 -0.46732618137E+02 -0.81812399991E+02  0.10935333724E+03  0.41800000000E+01 0. -1.
        -11    1    1    2    0    0  0.18616439746E+01 -0.18917266372E+02  0.25577016851E+02  0.31867106493E+02  0.00000000000E+00 0.  1.
         11    1    1    2    0    0 -0.54505412519E+02  0.43946980257E+01 -0.50736204441E+02  0.74594341646E+02  0.00000000000E+00 0. -1.
</event>
<event>
 7    1  0.2732144E-009  0.2066909E+03  0.7561462E-02  0.1144214E+00
          2   -1    0    0  501    0  0.00000000000E+00  0.00000000000E+00  0.93496976689E+03  0.93496976689E+03  0.00000000000E+00 0.  1.
         -2   -1    0    0    0  501 -0.00000000000E+00 -0.00000000000E+00 -0.59608362067E+02  0.59608362067E+02  0.00000000000E+00 0. -1.
         25    2    1    2    0    0 -0.19121756890E+03 -0.13782485970E+02  0.27408626317E+03  0.35710665505E+03  0.12509103825E+03 0.  0.
          5    1    3    3  502    0 -0.58948684577E+02 -0.38488985315E+02  0.17871148080E+03  0.19212395784E+03  0.41800000000E+01 0.  1.
         -5    1    3    3    0  502 -0.13226888432E+03  0.24706499344E+02  0.95374782370E+02  0.16498269722E+03  0.41800000000E+01 0.  1.
        -11    1    1    2    0    0  0.11405084551E+03 -0.32069240679E+02  0.39802675679E+03  0.41528463814E+03  0.00000000000E+00 0.  1.
         11    1    1    2    0    0  0.77166723389E+02  0.45851726649E+02  0.20324838487E+03  0.22218683576E+03  0.00000000000E+00 0. -1.
</event>
<event>
 6    1  0.2732144E-009  0.1219041E+03  0.7561462E-02  0.1239989E+00
          2   -1    0    0  501    0  0.00000000000E+00  0.00000000000E+00  0.14245330398E+03  0.14245330398E+03  0.00000000000E+00 0. -1.
         -2   -1    0    0    0  501 -0.00000000000E+00 -0.00000000000E+00 -0.13143950486E+03  0.13143950486E+03  0.00000000000E+00 0.  1.
          5    1    1    2  502    0 -0.89554660016E+02  0.63598770109E+01 -0.51215606520E+02  0.10344561816E+03  0.41800000000E+01 0.  1.
         -5    1    1    2    0  502  0.35721652983E+02  0.25811227284E+02  0.41318820657E+01  0.44461227999E+02  0.41800000000E+01 0.  1.
        -11    1    1    2    0    0 -0.77548858853E+01  0.24665442577E+02  0.38148187497E+01  0.26135706509E+02  0.00000000000E+00 0.  1.
         11    1    1    2    0    0  0.61587892918E+02 -0.56836546873E+02  0.54282704826E+02  0.99850256172E+02  0.00000000000E+00 0. -1.
</event>
<event>
 7    1  0.2732144E-009  0.2195278E+03  0.7561462E-02  0.1134236E+00
          1   -1    0    0  501    0  0.00000000000E+00  0.00000000000E+00  0.25002393698E+03  0.25002393698E+03  0.00000000000E+00 0. -1.
         -1   -1    0    0    0  501 -0.00000000000E+00 -0.00000000000E+00 -0.26450942620E+03  0.26450942620E+03  0.00000000000E+00 0.  1.
         25    2    1    2    0    0  0.11093345869E+03 -0.17667822536E+03  0.96759488350E+02  0.26178410020E+03  0.12508832463E+03 0.  0.
          5    1    3    3  502    0  0.47258899516E+02 -0.43188577891E+02 -0.26300731017E+02  0.69338717148E+02  0.41800000000E+01 0. -1.
         -5    1    3    3    0  502  0.63674559174E+02 -0.13348964747E+03  0.12306021937E+03  0.19244538305E+03  0.41800000000E+01 0. -1.
        -11    1    1    2    0    0  0.11458609023E+02  0.48012797041E+02 -0.23225317828E+02  0.54552211584E+02  0.00000000000E+00 0. -1.
         11    1    1    2    0    0 -0.12239206771E+03  0.12866542832E+03 -0.88019659744E+02  0.19819705140E+03  0.00000000000E+00 0.  1.
</event>
<event>
 7    1  0.2732144E-009  0.9054859E+02  0.7561462E-02  0.1301529E+00
          2   -1    0    0  501    0  0.00000000000E+00  0.00000000000E+00  0.11533726701E+04  0.11533726701E+04  0.00000000000E+00 0. -1.
         -2   -1    0    0    0  501 -0.00000000000E+00 -0.00000000000E+00 -0.22671191841E+02  0.22671191841E+02  0.00000000000E+00 0.  1.
         25    2    1    2    0    0 -0.17430831613E+02 -0.27012332365E+02  0.10242286217E+04  0.10323340227E+04  0.12504305246E+03 0.  0.
          5    1    3    3  502    0 -0.51390538663E+02 -0.59529765616E+02  0.74413217719E+03  0.74828801272E+03  0.41800000000E+01 0.  1.
         -5    1    3    3    0  502  0.33959707050E+02  0.32517433251E+02  0.28009644454E+03  0.28404601003E+03  0.41800000000E+01 0.  1.
        -11    1    1    2    0    0  0.24933308879E+02  0.35773583403E+02  0.11896628552E+03  0.12670594403E+03  0.00000000000E+00 0. -1.
         11    1    1    2    0    0 -0.75024772662E+01 -0.87612510385E+01 -0.12493428955E+02  0.17003895199E+02  0.00000000000E+00 0.  1.
</event>
<event>
 7    1  0.2732144E-009  0.1453216E+03  0.7561462E-02  0.1206342E+00
          1   -1    0    0  501    0  0.00000000000E+00  0.00000000000E+00  0.99620602489E+03  0.99620602489E+03  0.00000000000E+00 0. -1.
         -1   -1    0    0    0  501 -0.00000000000E+00 -0.00000000000E+00 -0.26062154414E+02  0.26062154414E+02  0.00000000000E+00 0.  1.
         25    2    1    2    0    0 -0.11226774508E+03 -0.13831631400E+02  0.42115501333E+03  0.45366797766E+03  0.12509087931E+03 0.  0.
          5    1    3    3  502    0 -0.54093765331E+02  0.39255293293E+02  0.31137978800E+03  0.31849954203E+03  0.41800000000E+01 0.  1.
         -5    1    3    3    0  502 -0.58173979752E+02 -0.53086924693E+02  0.10977522533E+03  0.13516843563E+03  0.41800000000E+01 0.  1.
        -11    1    1    2    0    0  0.62020185824E+02 -0.37906761006E+02  0.33463034737E+03  0.34243378244E+03  0.00000000000E+00 0. -1.
         11    1    1    2    0    0  0.50247559259E+02  0.51738392406E+02  0.21435850978E+03  0.22616641920E+03  0.00000000000E+00 0.  1.
</event>
<event>
 7    1  0.2732144E-009  0.1263931E+03  0.7561462E-02  0.1232908E+00
         -2   -1    0    0    0  501 -0.00000000000E+00  0.00000000000E+00  0.33983372504E+02  0.33983372504E+02  0.00000000000E+00 0. -1.
          2   -1    0    0  501    0  0.00000000000E+00 -0.00000000000E+00 -0.94710795445E+03  0.94710795445E+03  0.00000000000E+00 0.  1.
         25    2    1    2    0    0 -0.11245429777E+03 -0.25376864346E+02 -0.71277513376E+03  0.73279384432E+03  0.12509385531E+03 0.  0.
          5    1    3    3  502    0 -0.36128111195E+02  0.23908288876E+02 -0.62338183918E+02  0.76028733185E+02  0.41800000000E+01 0.  1.
         -5    1    3    3    0  502 -0.76326186573E+02 -0.49285153222E+02 -0.65043694984E+03  0.65676511114E+03  0.41800000000E+01 0.  1.
        -11    1    1    2    0    0  0.57330108732E+02  0.26538130708E+02 -0.17786794905E+03  0.18875386366E+03  0.00000000000E+00 0.  1.
         11    1    1    2    0    0  0.55124189037E+02 -0.11612663625E+01 -0.22481499133E+02  0.59543618968E+02  0.00000000000E+00 0. -1.
</event>
<event>
 7    1  0.2732144E-009  0.1104661E+03  0.7561462E-02  0.1259709E+00
         -1   -1    0    0    0  501 -0.00000000000E+00  0.00000000000E+00  0.38154387440E+02  0.38154387440E+02  0.00000000000E+00 0.  1.
          1   -1    0    0  501    0  0.00000000000E+00 -0.00000000000E+00 -0.36079280917E+03  0.36079280917E+03  0.00000000000E+00 0. -1.
         25    2    1    2    0    0  0.12469887718E+02  0.50741365743E+02 -0.19881731190E+03  0.24063657236E+03  0.12508977636E+03 0.  0.
          5    1    3    3  502    0 -0.94543894582E+01 -0.33603324428E+02 -0.11265979872E+03  0.11801809836E+03  0.41800000000E+01 0. -1.
         -5    1    3    3    0  502  0.21924277176E+02  0.84344690172E+02 -0.86157513176E+02  0.12261847400E+03  0.41800000000E+01 0. -1.
        -11    1    1    2    0    0 -0.43064954395E+02 -0.52473932246E+02 -0.88818098451E+02  0.11178890139E+03  0.00000000000E+00 0.  1.
         11    1    1    2    0    0  0.30595066677E+02  0.17325665023E+01 -0.35003011385E+02  0.46521722858E+02  0.00000000000E+00 0. -1.
</event>
<event>
 7    1  0.2732144E-009  0.1585687E+03  0.7561462E-02  0.1190322E+00
          1   -1    0    0  501    0  0.00000000000E+00  0.00000000000E+00  0.96485785222E+03  0.96485785222E+03  0.00000000000E+00 0. -1.
         -1   -1    0    0    0  501 -0.00000000000E+00 -0.00000000000E+00 -0.38380208022E+02  0.38380208022E+02  0.00000000000E+00 0.  1.
         25    2    1    2    0    0 -0.19807022191E+02 -0.13949721123E+03  0.67694082013E+03  0.70267190585E+03  0.12508854160E+03 0.  0.
          5    1    3    3  502    0  0.16763585169E+02 -0.54994751700E+02  0.49859662327E+03  0.50191782758E+03  0.41800000000E+01 0. -1.
         -5    1    3    3    0  502 -0.36570607360E+02 -0.84502459528E+02  0.17834419686E+03  0.20075407827E+03  0.41800000000E+01 0. -1.
        -11    1    1    2    0    0  0.40599210688E+02  0.18613758281E+02  0.59891590045E+02  0.74711247238E+02  0.00000000000E+00 0. -1.
         11    1    1    2    0    0 -0.20792188497E+02  0.12088345295E+03  0.18964523402E+03  0.22585490716E+03  0.00000000000E+00 0.  1.
</event>
<event>
 7    1  0.2732144E-009  0.1027551E+03  0.7561462E-02  0.1274607E+00
          2   -1    0    0  501    0  0.00000000000E+00  0.00000000000E+00  0.52515182383E+03  0.52515182383E+03  0.00000000000E+00 0. -1.
         -2   -1    0    0    0  501 -0.00000000000E+00 -0.00000000000E+00 -0.23050548220E+02  0.23050548220E+02  0.00000000000E+00 0.  1.
         25    2    1    2    0    0  0.14584751723E+01  0.17755479562E+02  0.30037882569E+03  0.32587086478E+03  0.12508795859E+03 0.  0.
          5    1    3    3  502    0 -0.48913987013E+02  0.35325284161E+02  0.87492161032E+02  0.10636166823E+03  0.41800000000E+01 0.  1.
         -5    1    3    3    0  502  0.50372462186E+02 -0.17569804599E+02  0.21288666466E+03  0.21950919655E+03  0.41800000000E+01 0.  1.
        -11    1    1    2    0    0  0.44155019453E+02 -0.80580951583E+01  0.76332482001E+02  0.88550812808E+02  0.00000000000E+00 0.  1.
         11    1    1    2    0    0 -0.45613494626E+02 -0.96973844033E+01  0.12538996792E+03  0.13378069446E+03  0.00000000000E+00 0. -1.
</event>
<event>
 7    1  0.2732144E-009  0.1228246E+03  0.7561462E-02  0.1238509E+00
          1   -1    0    0  501    0  0.00000000000E+00  0.00000000000E+00  0.62499568995E+03  0.62499568995E+03  0.00000000000E+00 0. -1.
         -1   -1    0    0    0  501 -0.00000000000E+00 -0.00000000000E+00 -0.54633268870E+02  0.54633268870E+02  0.00000000000E+00 0.  1.
         25    2    1    2    0    0 -0.61300319175E+02  0.35620325142E+02  0.54365764856E+03  0.56235009038E+03  0.12508976224E+03 0.  0.
          5    1    3    3  502    0 -0.56801159298E+02 -0.37628988379E+02  0.30893797966E+03  0.31638972825E+03  0.41800000000E+01 0.  1.
         -5    1    3    3    0  502 -0.44991598769E+01  0.73249313522E+02  0.23471966890E+03  0.24596036213E+03  0.41800000000E+01 0.  1.
        -11    1    1    2    0    0  0.38326223966E+02  0.20338891123E+02 -0.12549310553E+02  0.45166969468E+02  0.00000000000E+00 0.  1.
         11    1    1    2    0    0  0.22974095209E+02 -0.55959216265E+02  0.39254083074E+02  0.72111898974E+02  0.00000000000E+00 0. -1.
</event>
<event>
 7    1  0.2732144E-009  0.2294906E+03  0.7561462E-02  0.1126999E+00
         -2   -1    0    0    0  501 -0.00000000000E+00  0.00000000000E+00  0.43614532611E+02  0.43614532611E+02  0.00000000000E+00 0.  1.
          2   -1    0    0  501    0  0.00000000000E+00 -0.00000000000E+00 -0.14550539060E+04  0.14550539060E+04  0.00000000000E+00 0. -1.
         25    2    1    2    0    0 -0.97575734660E+01  0.22488721751E+03 -0.63481373770E+03  0.68505844980E+03  0.12508847765E+03 0.  0.
          5    1    3    3  502    0  0.17741985329E+01  0.41914057063E+02 -0.26717456577E+02  0.49912231426E+02  0.41800000000E+01 0. -1.
         -5    1    3    3    0  502 -0.11531771999E+02  0.18297316044E+03 -0.60809628112E+03  0.63514621838E+03  0.41800000000E+01 0. -1.
        -11    1    1    2    0    0 -0.24169411128E+02 -0.53229371547E+02 -0.11202882530E+03  0.12636448918E+03  0.00000000000E+00 0.  1.
         11    1    1    2    0    0  0.33926984594E+02 -0.17165784596E+03 -0.66459681037E+03  0.68724549959E+03  0.00000000000E+00 0. -1.
</event>
<event>
 7    1  0.2732144E-009  0.1620400E+03  0.7561462E-02  0.1186413E+00
          2   -1    0    0  501    0  0.00000000000E+00  0.00000000000E+00  0.11731046505E+04  0.11731046505E+04  0.00000000000E+00 0. -1.
         -2   -1    0    0    0  501 -0.00000000000E+00 -0.00000000000E+00 -0.35417638503E+02  0.35417638503E+02  0.00000000000E+00 0.  1.
         25    2    1    2    0    0  0.80206973876E+02  0.13953065761E+03  0.77327492068E+03  0.79968979037E+03  0.12509074629E+03 0.  0.
          5    1    3    3  502    0  0.17804524050E+02  0.47296190229E+02  0.52629836398E+03  0.52873563433E+03  0.41800000000E+01 0.  1.
         -5    1    3    3    0  502  0.62402449826E+02  0.92234467380E+02  0.24697655670E+03  0.27095415604E+03  0.41800000000E+01 0.  1.
        -11    1    1    2    0    0 -0.37212629019E+02 -0.47396969054E+02  0.49720051367E+02  0.78123850020E+02  0.00000000000E+00 0.  1.
         11    1    1    2    0    0 -0.42994344857E+02 -0.92133688555E+02  0.31469203998E+03  0.33070864864E+03  0.00000000000E+00 0. -1.
</event>
<event>
 7    1  0.2732144E-009  0.1163905E+03  0.7561462E-02  0.1249173E+00
         -4   -1    0    0    0  501 -0.00000000000E+00  0.00000000000E+00  0.88615130311E+03  0.88615130311E+03  0.00000000000E+00 0.  1.
          4   -1    0    0  501    0  0.00000000000E+00 -0.00000000000E+00 -0.19838881668E+02  0.19838881668E+02  0.00000000000E+00 0. -1.
         25    2    1    2    0    0 -0.73911023693E+02  0.24595808439E+02  0.48353522923E+03  0.50549012507E+03  0.12508459303E+03 0.  0.
          5    1    3    3  502    0  0.16196246929E+02 -0.35252417391E+02  0.13579754056E+03  0.14129223534E+03  0.41800000000E+01 0. -1.
         -5    1    3    3    0  502 -0.90107270622E+02  0.59848225830E+02  0.34773768868E+03  0.36419788973E+03  0.41800000000E+01 0. -1.
        -11    1    1    2    0    0  0.71027849914E+02 -0.11320644196E+02  0.37985539623E+03  0.38660475229E+03  0.00000000000E+00 0.  1.
         11    1    1    2    0    0  0.28831737784E+01 -0.13275164243E+02  0.29217959827E+01  0.13895307426E+02  0.00000000000E+00 0. -1.
</event>
<event>
 7    1  0.2732144E-009  0.1841870E+03  0.7561462E-02  0.1163811E+00
          1   -1    0    0  501    0  0.00000000000E+00  0.00000000000E+00  0.62403027000E+02  0.62403027000E+02  0.00000000000E+00 0. -1.
         -1   -1    0    0    0  501 -0.00000000000E+00 -0.00000000000E+00 -0.59497269493E+03  0.59497269493E+03  0.00000000000E+00 0.  1.
         25    2    1    2    0    0  0.14624857012E+03 -0.63114315400E+02 -0.26081021427E+03  0.33021487347E+03  0.12509130153E+03 0.  0.
          5    1    3    3  502    0  0.13953049828E+03 -0.95536695722E+02 -0.21700468870E+03  0.27514455745E+03  0.41800000000E+01 0. -1.
         -5    1    3    3    0  502  0.67180718433E+01  0.32422380322E+02 -0.43805525576E+02  0.55070316015E+02  0.41800000000E+01 0. -1.
        -11    1    1    2    0    0 -0.26991499210E+02 -0.64911446344E+01 -0.11479212110E+03  0.11810125763E+03  0.00000000000E+00 0.  1.
         11    1    1    2    0    0 -0.11925707091E+03  0.69605460035E+02 -0.15696733256E+03  0.20905959084E+03  0.00000000000E+00 0. -1.
</event>
<event>
 7    1  0.2732144E-009  0.1658926E+03  0.7561462E-02  0.1182200E+00
          1   -1    0    0  501    0  0.00000000000E+00  0.00000000000E+00  0.59524665140E+03  0.59524665140E+03  0.00000000000E+00 0. -1.
         -1   -1    0    0    0  501 -0.00000000000E+00 -0.00000000000E+00 -0.86509014879E+02  0.86509014879E+02  0.00000000000E+00 0.  1.
         25    2    1    2    0    0  0.36543321402E+02 -0.15141847083E+03  0.44936023421E+03  0.49176687506E+03  0.12508825555E+03 0.  0.
          5    1    3    3  502    0  0.21447263230E+02 -0.46501860892E+02  0.32173565638E+03  0.32581238950E+03  0.41800000000E+01 0. -1.
         -5    1    3    3    0  502  0.15096058172E+02 -0.10491660994E+03  0.12762457783E+03  0.16595448556E+03  0.41800000000E+01 0. -1.
        -11    1    1    2    0    0 -0.45350714138E+01 -0.93554841839E+01  0.18210783688E+02  0.20969611335E+02  0.00000000000E+00 0. -1.
         11    1    1    2    0    0 -0.32008249988E+02  0.16077395501E+03  0.41166618625E+02  0.16901917988E+03  0.00000000000E+00 0.  1.
</event>
<event>
 7    1  0.2732144E-009  0.1249844E+03  0.7561462E-02  0.1235094E+00
         -2   -1    0    0    0  501 -0.00000000000E+00  0.00000000000E+00  0.10807884700E+03  0.10807884700E+03  0.00000000000E+00 0. -1.
          2   -1    0    0  501    0  0.00000000000E+00 -0.00000000000E+00 -0.17786792834E+03  0.17786792834E+03  0.00000000000E+00 0.  1.
         25    2    1    2    0    0  0.83675199785E+02 -0.42582898721E+02 -0.49538649739E+02  0.16406425534E+03  0.12509260465E+03 0.  0.
          5    1    3    3  502    0  0.45821646015E+02 -0.81612567696E+02 -0.56002241444E+02  0.10915107831E+03  0.41800000000E+01 0. -1.
         -5    1    3    3    0  502  0.37853553770E+02  0.39029668975E+02  0.64635917047E+01  0.54913177025E+02  0.41800000000E+01 0. -1.
        -11    1    1    2    0    0 -0.23637171310E+02  0.33540567890E+02  0.23278307097E+02  0.47175895786E+02  0.00000000000E+00 0. -1.
         11    1    1    2    0    0 -0.60038028476E+02  0.90423308312E+01 -0.43528738695E+02  0.74706624221E+02  0.00000000000E+00 0.  1.
</event>
<event>
 7    1  0.2732144E-009  0.1217345E+03  0.7561462E-02  0.1240263E+00
         -2   -1    0    0    0  501 -0.00000000000E+00  0.00000000000E+00  0.96905281650E+02  0.96905281650E+02  0.00000000000E+00 0.  1.
          2   -1    0    0  501    0  0.00000000000E+00 -0.00000000000E+00 -0.20830414474E+03  0.20830414474E+03  0.00000000000E+00 0. -1.
         25    2    1    2    0    0 -0.86508139852E+02  0.15736246166E+02 -0.32524986426E+02  0.15632244722E+03  0.12509014773E+03 0.  0.
          5    1    3    3  502    0 -0.92508287409E+02  0.38518381213E+02  0.16620377316E+02  0.10166198047E+03  0.41800000000E+01 0. -1.
         -5    1    3    3    0  502  0.60001475570E+01 -0.22782135047E+02 -0.49145363742E+02  0.54660466750E+02  0.41800000000E+01 0. -1.
        -11    1    1    2    0    0  0.37804993200E+02 -0.47795862096E+02 -0.15725261802E+02  0.62936045340E+02  0.00000000000E+00 0.  1.
         11    1    1    2    0    0  0.48703146652E+02  0.32059615930E+02 -0.63148614864E+02  0.85950933832E+02  0.00000000000E+00 0. -1.
</event>
<event>
 7    1  0.2732144E-009  0.7676406E+02  0.7561462E-02  0.1338494E+00
          1   -1    0    0  501    0  0.00000000000E+00  0.00000000000E+00  0.18087309130E+02  0.18087309130E+02  0.00000000000E+00 0. -1.
         -1   -1    0    0    0  501 -0.00000000000E+00 -0.00000000000E+00 -0.94889128659E+03  0.94889128659E+03  0.00000000000E+00 0.  1.
         25    2    1    2    0    0  0.57313365259E+02  0.13131143257E+02 -0.67317804655E+03  0.68721270470E+03  0.12504147463E+03 0.  0.
          5    1    3    3  502    0  0.12765541063E+02 -0.20598513059E+02 -0.56362984240E+03  0.56416604774E+03  0.41800000000E+01 0. -1.
         -5    1    3    3    0  502  0.44547824196E+02  0.33729656316E+02 -0.10954820416E+03  0.12304665696E+03  0.41800000000E+01 0. -1.
        -11    1    1    2    0    0 -0.50723317559E+02  0.74737892201E+01 -0.25234045888E+03  0.25749644591E+03  0.00000000000E+00 0.  1.
         11    1    1    2    0    0 -0.65900477005E+01 -0.20604932477E+02 -0.52854720323E+01  0.22269445114E+02  0.00000000000E+00 0. -1.
</event>
<event>
 7    1  0.2732144E-009  0.1084939E+03  0.7561462E-02  0.1263385E+00
          1   -1    0    0  501    0  0.00000000000E+00  0.00000000000E+00  0.84624278207E+02  0.84624278207E+02  0.00000000000E+00 0. -1.
         -1   -1    0    0    0  501 -0.00000000000E+00 -0.00000000000E+00 -0.23651284374E+03  0.23651284374E+03  0.00000000000E+00 0.  1.
         25    2    1    2    0    0 -0.45792756461E+02 -0.42957189860E+02 -0.75452362759E+01  0.14015722285E+03  0.12507925416E+03 0.  0.
          5    1    3    3  502    0  0.72283969525E+01 -0.73665143426E+02 -0.21472275998E+02  0.77183768469E+02  0.41800000000E+01 0. -1.
         -5    1    3    3    0  502 -0.53021153414E+02  0.30707953567E+02  0.13927039722E+02  0.62973454383E+02  0.41800000000E+01 0. -1.
        -11    1    1    2    0    0 -0.98633212240E+01  0.17819686069E+02  0.38216717574E+01  0.20722728878E+02  0.00000000000E+00 0. -1.
         11    1    1    2    0    0  0.55656077685E+02  0.25137503791E+02 -0.14816500101E+03  0.16025717021E+03  0.00000000000E+00 0.  1.
</event>
<event>
 7    1  0.2732144E-009  0.1135655E+03  0.7561462E-02  0.1254106E+00
         -2   -1    0    0    0  501 -0.00000000000E+00  0.00000000000E+00  0.73453216645E+03  0.73453216645E+03  0.00000000000E+00 0.  1.
          2   -1    0    0  501    0  0.00000000000E+00 -0.00000000000E+00 -0.35313990009E+02  0.35313990009E+02  0.00000000000E+00 0. -1.
         25    2    1    2    0    0  0.66975484719E+02  0.37898484372E+02  0.15827778721E+03  0.21592227303E+03  0.12509420208E+03 0.  0.
          5    1    3    3  502    0  0.26390949274E+01  0.49989486967E+02  0.65962854720E+01  0.50664553795E+02  0.41800000000E+01 0.  1.
         -5    1    3    3    0  502  0.64336389792E+02 -0.12091002594E+02  0.15168150174E+03  0.16525771923E+03  0.41800000000E+01 0.  1.
        -11    1    1    2    0    0 -0.21954180914E+02  0.25433295368E+02  0.84816682891E+02  0.91228878485E+02  0.00000000000E+00 0. -1.
         11    1    1    2    0    0 -0.45021303805E+02 -0.63331779740E+02  0.45612370634E+03  0.46269500495E+03  0.00000000000E+00 0.  1.
</event>
<event>
 7    1  0.2732144E-009  0.1300776E+03  0.7561462E-02  0.1227341E+00
          2   -1    0    0  501    0  0.00000000000E+00  0.00000000000E+00  0.50119120457E+03  0.50119120457E+03  0.00000000000E+00 0. -1.
         -2   -1    0    0    0  501 -0.00000000000E+00 -0.00000000000E+00 -0.58331419141E+02  0.58331419141E+02  0.00000000000E+00 0.  1.
         25    2    1    2    0    0  0.11708179055E+03 -0.49979431892E+02  0.23970995853E+03  0.29885415012E+03  0.12508736760E+03 0.  0.
          5    1    3    3  502    0  0.40882636432E+02 -0.16311132305E+02 -0.87198805031E+00  0.44223022984E+02  0.41800000000E+01 0.  1.
         -5    1    3    3    0  502  0.76199154113E+02 -0.33668299587E+02  0.24058194658E+03  0.25463112713E+03  0.41800000000E+01 0.  1.
        -11    1    1    2    0    0 -0.79888316835E+02  0.51934107183E+02  0.59655081672E+02  0.11241896381E+03  0.00000000000E+00 0.  1.
         11    1    1    2    0    0 -0.37193473710E+02 -0.19546752908E+01  0.14349474523E+03  0.14824950978E+03  0.00000000000E+00 0. -1.
</event>
<event>
 7    1  0.2732144E-009  0.1209277E+03  0.7561462E-02  0.1241574E+00
          1   -1    0    0  501    0  0.00000000000E+00  0.00000000000E+00  0.10171584358E+03  0.10171584358E+03  0.00000000000E+00 0. -1.
         -1   -1    0    0    0  501 -0.00000000000E+00 -0.00000000000E+00 -0.17063901496E+03  0.17063901496E+03  0.00000000000E+00 0.  1.
         25    2    1    2    0    0 -0.54383841369E+02  0.49689814868E+02 -0.34986196574E+02  0.14932463295E+03  0.12508849728E+03 0.  0.
          5    1    3    3  502    0  0.36933444221E+02 -0.57244066065E+01 -0.29167023669E+01  0.37720388197E+02  0.41800000000E+01 0. -1.
         -5    1    3    3    0  502 -0.91317285590E+02  0.55414221475E+02 -0.32069494207E+02  0.11160424476E+03  0.41800000000E+01 0. -1.
        -11    1    1    2    0    0  0.19452136351E+02  0.14506494676E+02 -0.43011357582E+02  0.49384216886E+02  0.00000000000E+00 0.  1.
         11    1    1    2    0    0  0.34931705019E+02 -0.64196309545E+02  0.90743827711E+01  0.73646008699E+02  0.00000000000E+00 0. -1.
</event>
<event>
 7    1  0.2732144E-009  0.1158936E+03  0.7561462E-02  0.1250029E+00
          2   -1    0    0  501    0  0.00000000000E+00  0.00000000000E+00  0.37634758718E+02  0.37634758718E+02  0.00000000000E+00 0. -1.
         -2   -1    0    0    0  501 -0.00000000000E+00 -0.00000000000E+00 -0.47110512919E+03  0.47110512919E+03  0.00000000000E+00 0.  1.
         25    2    1    2    0    0  0.77596408818E+02 -0.13032333398E+02 -0.28783080224E+03  0.32355084822E+03  0.12509011268E+03 0.  0.
          5    1    3    3  502    0  0.58693194427E+02  0.51274247105E+02 -0.12435652484E+03  0.14681947132E+03  0.41800000000E+01 0.  1.
         -5    1    3    3    0  502  0.18903214391E+02 -0.64306580503E+02 -0.16347427739E+03  0.17673137690E+03  0.41800000000E+01 0.  1.
        -11    1    1    2    0    0 -0.31749468617E+02 -0.12480726205E+02 -0.12370185562E+03  0.12831970374E+03  0.00000000000E+00 0.  1.
         11    1    1    2    0    0 -0.45846940201E+02  0.25513059603E+02 -0.21937712610E+02  0.56869335944E+02  0.00000000000E+00 0. -1.
</event>
<event>
 7    1  0.2732144E-009  0.8577455E+02  0.7561462E-02  0.1313419E+00
          2   -1    0    0  501    0  0.00000000000E+00  0.00000000000E+00  0.13424012391E+03  0.13424012391E+03  0.00000000000E+00 0.  1.
         -2   -1    0    0    0  501 -0.00000000000E+00 -0.00000000000E+00 -0.11343996136E+03  0.11343996136E+03  0.00000000000E+00 0. -1.
         25    2    1    2    0    0 -0.58804309497E+01 -0.16245039799E+02 -0.48251437303E+02  0.13518391850E+03  0.12509200548E+03 0.  0.
          5    1    3    3  502    0 -0.56359209093E+02  0.24126870905E+02 -0.21438150085E+02  0.65080972859E+02  0.41800000000E+01 0. -1.
         -5    1    3    3    0  502  0.50478778144E+02 -0.40371910704E+02 -0.26813287218E+02  0.70102945646E+02  0.41800000000E+01 0. -1.
        -11    1    1    2    0    0 -0.13996414381E+02 -0.62335037358E+01  0.79316434107E+02  0.80782751276E+02  0.00000000000E+00 0.  1.
         11    1    1    2    0    0  0.19876845331E+02  0.22478543535E+02 -0.10264834249E+02  0.31713415488E+02  0.00000000000E+00 0. -1.
</event>
<event>
 7    1  0.2732144E-009  0.1115108E+03  0.7561462E-02  0.1257797E+00
          2   -1    0    0  501    0  0.00000000000E+00  0.00000000000E+00  0.65962585937E+03  0.65962585937E+03  0.00000000000E+00 0. -1.
         -2   -1    0    0    0  501 -0.00000000000E+00 -0.00000000000E+00 -0.22866666450E+02  0.22866666450E+02  0.00000000000E+00 0.  1.
         25    2    1    2    0    0 -0.24414550244E+02  0.90272638768E+01  0.49309145277E+03  0.50937632328E+03  0.12508995231E+03 0.  0.
          5    1    3    3  502    0 -0.75281626132E+02  0.11470441243E+02  0.27502977521E+03  0.28540803056E+03  0.41800000000E+01 0.  1.
         -5    1    3    3    0  502  0.50867075888E+02 -0.24431773662E+01  0.21806167756E+03  0.22396829273E+03  0.41800000000E+01 0.  1.
        -11    1    1    2    0    0  0.31032574489E+02 -0.47435874075E+02  0.73123813842E+02  0.92521754088E+02  0.00000000000E+00 0.  1.
         11    1    1    2    0    0 -0.66180242447E+01  0.38408610198E+02  0.70543926306E+02  0.80594448449E+02  0.00000000000E+00 0. -1.
</event>
<event>
 7    1  0.2732144E-009  0.1432650E+03  0.7561462E-02  0.1209002E+00
         -1   -1    0    0    0  501 -0.00000000000E+00  0.00000000000E+00  0.27700640913E+03  0.27700640913E+03  0.00000000000E+00 0.  1.
          1   -1    0    0  501    0  0.00000000000E+00 -0.00000000000E+00 -0.14377065135E+03  0.14377065135E+03  0.00000000000E+00 0. -1.
         25    2    1    2    0    0  0.58813606732E+02  0.78432892170E+02  0.21167920586E+03  0.26470044891E+03  0.12508989788E+03 0.  0.
          5    1    3    3  502    0  0.12059626644E+02 -0.33692309112E+02  0.63848382164E+02  0.73312308605E+02  0.41800000000E+01 0. -1.
         -5    1    3    3    0  502  0.46753980088E+02  0.11212520128E+03  0.14783082370E+03  0.19138814031E+03  0.41800000000E+01 0. -1.
        -11    1    1    2    0    0  0.67174137608E+01 -0.60684126205E+02 -0.60276523893E+02  0.85795956510E+02  0.00000000000E+00 0. -1.
         11    1    1    2    0    0 -0.65531020493E+02 -0.17748765965E+02 -0.18166924189E+02  0.70280655052E+02  0.00000000000E+00 0.  1.
</event>
<event>
 7    1  0.2732144E-009  0.1768786E+03  0.7561462E-02  0.1170859E+00
          1   -1    0    0  501    0  0.00000000000E+00  0.00000000000E+00  0.11082673986E+04  0.11082673986E+04  0.00000000000E+00 0. -1.
         -1   -1    0    0    0  501 -0.00000000000E+00 -0.00000000000E+00 -0.31420086323E+02  0.31420086323E+02  0.00000000000E+00 0.  1.
         25    2    1    2    0    0  0.40297503802E+02 -0.13279573723E+03  0.70529003199E+03  0.72961658578E+03  0.12509091250E+03 0.  0.
          5    1    3    3  502    0  0.69110261761E+02 -0.24104427845E+02  0.24223528723E+03  0.25308626691E+03  0.41800000000E+01 0. -1.
         -5    1    3    3    0  502 -0.28812757959E+02 -0.10869130938E+03  0.46305474476E+03  0.47653031887E+03  0.41800000000E+01 0. -1.
        -11    1    1    2    0    0 -0.46158276988E+02  0.12960690346E+02  0.15805953066E+03  0.16517076394E+03  0.00000000000E+00 0. -1.
         11    1    1    2    0    0  0.58607731860E+01  0.11983504688E+03  0.21349774963E+03  0.24490013520E+03  0.00000000000E+00 0.  1.
</event>
<event>
 7    1  0.2732144E-009  0.1169661E+03  0.7561462E-02  0.1248188E+00
          2   -1    0    0  501    0  0.00000000000E+00  0.00000000000E+00  0.16457789613E+03  0.16457789613E+03  0.00000000000E+00 0.  1.
         -2   -1    0    0    0  501 -0.00000000000E+00 -0.00000000000E+00 -0.91060649618E+02  0.91060649618E+02  0.00000000000E+00 0. -1.
         25    2    1    2    0    0  0.22024029295E+02  0.46582138680E+02  0.61141737967E+02  0.14846341138E+03  0.12509244136E+03 0.  0.
          5    1    3    3  502    0 -0.44095532127E+02 -0.55053799728E+01  0.43572416049E+02  0.62375900816E+02  0.41800000000E+01 0. -1.
         -5    1    3    3    0  502  0.66119561423E+02  0.52087518653E+02  0.17569321919E+02  0.86087510562E+02  0.41800000000E+01 0. -1.
        -11    1    1    2    0    0  0.24988875297E+02 -0.52005758795E+02 -0.19466576398E+01  0.57730687787E+02  0.00000000000E+00 0.  1.
         11    1    1    2    0    0 -0.47012904592E+02  0.54236201150E+01  0.14322166181E+02  0.49444446579E+02  0.00000000000E+00 0. -1.
</event>
<event>
 7    1  0.2732144E-009  0.1591828E+03  0.7561462E-02  0.1189622E+00
          2   -1    0    0  501    0  0.00000000000E+00  0.00000000000E+00  0.96538112379E+02  0.96538112379E+02  0.00000000000E+00 0. -1.
         -2   -1    0    0    0  501 -0.00000000000E+00 -0.00000000000E+00 -0.14854154626E+04  0.14854154626E+04  0.00000000000E+00 0.  1.
         25    2    1    2    0    0 -0.56727768017E+02 -0.14121043722E+03 -0.13906734928E+04  0.14045565355E+04  0.12509144958E+03 0.  0.
          5    1    3    3  502    0 -0.50919148130E+02 -0.50790163566E+02 -0.24698631226E+03  0.25727827581E+03  0.41800000000E+01 0. -1.
         -5    1    3    3    0  502 -0.58086198868E+01 -0.90420273652E+02 -0.11436871805E+04  0.11472782597E+04  0.41800000000E+01 0. -1.
        -11    1    1    2    0    0  0.57718564938E+02  0.10850591895E+03 -0.35360155470E+02  0.12788787191E+03  0.00000000000E+00 0.  1.
         11    1    1    2    0    0 -0.99079692062E+00  0.32704518264E+02  0.37156297989E+02  0.49509167572E+02  0.00000000000E+00 0. -1.
</event>
<event>
 7    1  0.2732144E-009  0.2503989E+03  0.7561462E-02  0.1113053E+00
         -1   -1    0    0    0  501 -0.00000000000E+00  0.00000000000E+00  0.31914641338E+03  0.31914641338E+03  0.00000000000E+00 0.  1.
          1   -1    0    0  501    0  0.00000000000E+00 -0.00000000000E+00 -0.26089260120E+03  0.26089260120E+03  0.00000000000E+00 0. -1.
         25    2    1    2    0    0  0.13251879754E+02  0.24197289158E+03 -0.86115495966E+02  0.28598887142E+03  0.12508902172E+03 0.  0.
          5    1    3    3  502    0  0.37609464811E+02  0.18535763065E+03 -0.11105688978E+03  0.21936961560E+03  0.41800000000E+01 0. -1.
         -5    1    3    3    0  502 -0.24357585056E+02  0.56615260937E+02  0.24941393814E+02  0.66619255821E+02  0.41800000000E+01 0. -1.
        -11    1    1    2    0    0  0.74624751230E+01 -0.21813299452E+03  0.14572745840E+03  0.26243891474E+03  0.00000000000E+00 0.  1.
         11    1    1    2    0    0 -0.20714354877E+02 -0.23839897061E+02 -0.13581502594E+01  0.31611228416E+02  0.00000000000E+00 0. -1.
</event>
<event>
 7    1  0.2732144E-009  0.1190955E+03  0.7561462E-02  0.1244597E+00
          2   -1    0    0  501    0  0.00000000000E+00  0.00000000000E+00  0.38517130736E+03  0.38517130736E+03  0.00000000000E+00 0. -1.
         -2   -1    0    0    0  501 -0.00000000000E+00 -0.00000000000E+00 -0.41116478566E+02  0.41116478566E+02  0.00000000000E+00 0.  1.
         25    2    1    2    0    0 -0.56773790752E+02  0.38899977978E+02  0.18951491121E+03  0.23727588718E+03  0.12508986156E+03 0.  0.
          5    1    3    3  502    0 -0.64971778854E+02 -0.23860695456E+02  0.54823140206E+02  0.88395214447E+02  0.41800000000E+01 0.  1.
         -5    1    3    3    0  502  0.81979881020E+01  0.62760673434E+02  0.13469177100E+03  0.14888067273E+03  0.41800000000E+01 0.  1.
        -11    1    1    2    0    0  0.50025011895E+02  0.14113106473E+02  0.52805072437E+02  0.74094920639E+02  0.00000000000E+00 0.  1.
         11    1    1    2    0    0  0.67487788567E+01 -0.53013084451E+02  0.10173484515E+03  0.11491697811E+03  0.00000000000E+00 0. -1.
</event>
<event>
 7    1  0.2732144E-009  0.9745739E+02  0.7561462E-02  0.1285735E+00
          2   -1    0    0  501    0  0.00000000000E+00  0.00000000000E+00  0.41692735905E+03  0.41692735905E+03  0.00000000000E+00 0. -1.
         -2   -1    0    0    0  501 -0.00000000000E+00 -0.00000000000E+00 -0.50921900296E+02  0.50921900296E+02  0.00000000000E+00 0.  1.
         25    2    1    2    0    0 -0.35139938423E+02 -0.55109739281E+02  0.31412535684E+03  0.34437528961E+03  0.12509077364E+03 0.  0.
          5    1    3    3  502    0  0.21311869396E+02  0.15517637206E+02  0.18364525946E+03  0.18557490823E+03  0.41800000000E+01 0.  1.
         -5    1    3    3    0  502 -0.56451807819E+02 -0.70627376488E+02  0.13048009738E+03  0.15880038138E+03  0.41800000000E+01 0.  1.
        -11    1    1    2    0    0  0.41800891730E+02  0.29280252178E+02  0.73263104631E+02  0.89286786353E+02  0.00000000000E+00 0. -1.
         11    1    1    2    0    0 -0.66609533070E+01  0.25829487104E+02 -0.21383002711E+02  0.34187183387E+02  0.00000000000E+00 0.  1.
</event>
<event>
 7    1  0.2732144E-009  0.1076413E+03  0.7561462E-02  0.1265001E+00
          1   -1    0    0  501    0  0.00000000000E+00  0.00000000000E+00  0.63615886950E+03  0.63615886950E+03  0.00000000000E+00 0. -1.
         -1   -1    0    0    0  501 -0.00000000000E+00 -0.00000000000E+00 -0.22027463233E+02  0.22027463233E+02  0.00000000000E+00 0.  1.
         25    2    1    2    0    0 -0.46507730279E+02 -0.96578588799E+01  0.37975313035E+03  0.40263612336E+03  0.12508862701E+03 0.  0.
          5    1    3    3  502    0 -0.22932051122E+02 -0.56377663421E+02  0.30650750049E+03  0.31251982363E+03  0.41800000000E+01 0. -1.
         -5    1    3    3    0  502 -0.23575679157E+02  0.46719804542E+02  0.73245629859E+02  0.90116299733E+02  0.41800000000E+01 0. -1.
        -11    1    1    2    0    0 -0.28283470497E+01  0.42446191650E+02  0.93368883572E+02  0.10260325118E+03  0.00000000000E+00 0.  1.
         11    1    1    2    0    0  0.49336077329E+02 -0.32788332770E+02  0.14100939234E+03  0.15294695819E+03  0.00000000000E+00 0. -1.
</event>
<event>
 7    1  0.2732144E-009  0.1280441E+03  0.7561462E-02  0.1230387E+00
         -1   -1    0    0    0  501 -0.00000000000E+00  0.00000000000E+00  0.23157337772E+02  0.23157337772E+02  0.00000000000E+00 0.  1.
          1   -1    0    0  501    0  0.00000000000E+00 -0.00000000000E+00 -0.91157403320E+03  0.91157403320E+03  0.00000000000E+00 0. -1.
         25    2    1    2    0    0 -0.78339273294E+02 -0.60364824571E+02 -0.49780863861E+03  0.52272650033E+03  0.12509436314E+03 0.  0.
          5    1    3    3  502    0  0.16925902538E+02 -0.35866600749E+02 -0.29052981557E+03  0.29325406282E+03  0.41800000000E+01 0. -1.
         -5    1    3    3    0  502 -0.95265175832E+02 -0.24498223821E+02 -0.20727882304E+03  0.22947243751E+03  0.41800000000E+01 0. -1.
        -11    1    1    2    0    0  0.62955581818E+02  0.83424616245E+01 -0.11752644340E+03  0.13358692618E+03  0.00000000000E+00 0.  1.
         11    1    1    2    0    0  0.15383691476E+02  0.52022362946E+02 -0.27308161341E+03  0.27841794445E+03  0.00000000000E+00 0. -1.
</event>
<event>
 7    1  0.2732144E-009  0.1076721E+03  0.7561462E-02  0.1264943E+00
         -2   -1    0    0    0  501 -0.00000000000E+00  0.00000000000E+00  0.21157691791E+03  0.21157691791E+03  0.00000000000E+00 0.  1.
          2   -1    0    0  501    0  0.00000000000E+00 -0.00000000000E+00 -0.59675657693E+02  0.59675657693E+02  0.00000000000E+00 0. -1.
         25    2    1    2    0    0 -0.11720212674E+02  0.28053331548E+02  0.93025856000E+02  0.15882733666E+03  0.12509180705E+03 0.  0.
          5    1    3    3  502    0 -0.63444678862E+02 -0.37779654337E+01  0.67520709179E+02  0.92822512715E+02  0.41800000000E+01 0. -1.
         -5    1    3    3    0  502  0.51724466188E+02  0.31831296982E+02  0.25505146821E+02  0.66004823947E+02  0.41800000000E+01 0. -1.
        -11    1    1    2    0    0 -0.26609713638E+02  0.17033179655E+02  0.42296196513E+01  0.31876256860E+02  0.00000000000E+00 0.  1.
         11    1    1    2    0    0  0.38329926312E+02 -0.45086511203E+02  0.54645784566E+02  0.80548982082E+02  0.00000000000E+00 0. -1.
</event>
<event>
 7    1  0.2732144E-009  0.5617073E+02  0.7561462E-02  0.1414642E+00
          1   -1    0    0  501    0  0.00000000000E+00  0.00000000000E+00  0.63562526028E+02  0.63562526028E+02  0.00000000000E+00 0. -1.
         -1   -1    0    0    0  501 -0.00000000000E+00 -0.00000000000E+00 -0.25619383571E+03  0.25619383571E+03  0.00000000000E+00 0.  1.
         25    2    1    2    0    0  0.20944049629E+01  0.32477200940E+02 -0.18561731864E+03  0.22619155630E+03  0.12509866526E+03 0.  0.
          5    1    3    3  502    0 -0.12939700211E+02  0.43907468225E+02 -0.19797314688E+03  0.20323912244E+03  0.41800000000E+01 0.  1.
         -5    1    3    3    0  502  0.15034105174E+02 -0.11430267285E+02  0.12355828234E+02  0.22952433857E+02  0.41800000000E+01 0.  1.
        -11    1    1    2    0    0  0.15962891447E+02 -0.15139699573E+02  0.36932424651E+02  0.42988700808E+02  0.00000000000E+00 0. -1.
         11    1    1    2    0    0 -0.18057296410E+02 -0.17337501367E+02 -0.43946415686E+02  0.50576104624E+02  0.00000000000E+00 0.  1.
</event>
<event>
 7    1  0.2732144E-009  0.1605436E+03  0.7561462E-02  0.1188084E+00
          2   -1    0    0  501    0  0.00000000000E+00  0.00000000000E+00  0.15825280875E+03  0.15825280875E+03  0.00000000000E+00 0.  1.
         -2   -1    0    0    0  501 -0.00000000000E+00 -0.00000000000E+00 -0.23586634511E+03  0.23586634511E+03  0.00000000000E+00 0. -1.
         25    2    1    2    0    0  0.23133877058E+02  0.13891082302E+03  0.27038994715E+02  0.19029132418E+03  0.12509311653E+03 0.  0.
          5    1    3    3  502    0 -0.11094842500E+02  0.87814560831E+02 -0.41723692033E+02  0.97943001286E+02  0.41800000000E+01 0. -1.
         -5    1    3    3    0  502  0.34228719557E+02  0.51096262185E+02  0.68762686748E+02  0.92348322890E+02  0.41800000000E+01 0. -1.
        -11    1    1    2    0    0  0.37278277948E+02 -0.38082487100E+02 -0.53901759200E+02  0.75798057200E+02  0.00000000000E+00 0. -1.
         11    1    1    2    0    0 -0.60412155006E+02 -0.10082833592E+03 -0.50750771872E+02  0.12802977248E+03  0.00000000000E+00 0.  1.
</event>
<event>
 7    1  0.2732144E-009  0.1123567E+03  0.7561462E-02  0.1256267E+00
          2   -1    0    0  501    0  0.00000000000E+00  0.00000000000E+00  0.25522240932E+03  0.25522240932E+03  0.00000000000E+00 0. -1.
         -2   -1    0    0    0  501 -0.00000000000E+00 -0.00000000000E+00 -0.66026028009E+02  0.66026028009E+02  0.00000000000E+00 0.  1.
         25    2    1    2    0    0  0.95998710923E+01  0.62717158756E+02  0.14376420218E+03  0.20085001797E+03  0.12508790654E+03 0.  0.
          5    1    3    3  502    0  0.44940570382E+01  0.95690663487E+02  0.66803667067E+02  0.11686360409E+03  0.41800000000E+01 0.  1.
         -5    1    3    3    0  502  0.51058140541E+01 -0.32973504731E+02  0.76960535117E+02  0.83986413883E+02  0.41800000000E+01 0.  1.
        -11    1    1    2    0    0  0.27213355664E+02 -0.64637206588E+01 -0.13443970493E+02  0.31033639069E+02  0.00000000000E+00 0.  1.
         11    1    1    2    0    0 -0.36813226756E+02 -0.56253438097E+02  0.58876149619E+02  0.89364780288E+02  0.00000000000E+00 0. -1.
</event>
<event>
 7    1  0.2732144E-009  0.1655654E+03  0.7561462E-02  0.1182553E+00
         -4   -1    0    0    0  501 -0.00000000000E+00  0.00000000000E+00  0.24458437865E+03  0.24458437865E+03  0.00000000000E+00 0.  1.
          4   -1    0    0  501    0  0.00000000000E+00 -0.00000000000E+00 -0.12814868556E+03  0.12814868556E+03  0.00000000000E+00 0. -1.
         25    2    1    2    0    0 -0.12258674098E+03  0.35115256944E+02  0.39410143139E+01  0.17866716327E+03  0.12508330545E+03 0.  0.
          5    1    3    3  502    0  0.17366716383E+02 -0.20412657788E+02  0.69926294073E+01  0.28011581568E+02  0.41800000000E+01 0.  1.
         -5    1    3    3    0  502 -0.13995345737E+03  0.55527914732E+02 -0.30516150934E+01  0.15065558170E+03  0.41800000000E+01 0.  1.
        -11    1    1    2    0    0  0.11058885140E+03  0.58023759513E+01  0.58432319909E+02  0.12521141174E+03  0.00000000000E+00 0.  1.
         11    1    1    2    0    0  0.11997889589E+02 -0.40917632896E+02  0.54062358864E+02  0.68854489195E+02  0.00000000000E+00 0. -1.
</event>
<event>
 7    1  0.2732144E-009  0.1409932E+03  0.7561462E-02  0.1211999E+00
          2   -1    0    0  501    0  0.00000000000E+00  0.00000000000E+00  0.10991830691E+03  0.10991830691E+03  0.00000000000E+00 0. -1.
         -2   -1    0    0    0  501 -0.00000000000E+00 -0.00000000000E+00 -0.20038021720E+03  0.20038021720E+03  0.00000000000E+00 0.  1.
         25    2    1    2    0    0 -0.96441610186E+02 -0.12376841647E+02 -0.34441756850E+02  0.16213154358E+03  0.12508490086E+03 0.  0.
          5    1    3    3  502    0 -0.31274280414E+02 -0.62375789833E+02 -0.38469688375E+02  0.79788527348E+02  0.41800000000E+01 0.  1.
         -5    1    3    3    0  502 -0.65167329772E+02  0.49998948186E+02  0.40279315256E+01  0.82343016229E+02  0.41800000000E+01 0.  1.
        -11    1    1    2    0    0 -0.65709762341E+01 -0.20643806569E+02 -0.29828530761E+02  0.36865779873E+02  0.00000000000E+00 0.  1.
         11    1    1    2    0    0  0.10301258642E+03  0.33020648216E+02 -0.26191622676E+02  0.11130120066E+03  0.00000000000E+00 0. -1.
</event>
<event>
 7    1  0.2732144E-009  0.1282695E+03  0.7561462E-02  0.1230046E+00
          1   -1    0    0  501    0  0.00000000000E+00  0.00000000000E+00  0.30260747924E+03  0.30260747924E+03  0.00000000000E+00 0. -1.
         -1   -1    0    0    0  501 -0.00000000000E+00 -0.00000000000E+00 -0.62307546776E+02  0.62307546776E+02  0.00000000000E+00 0.  1.
         25    2    1    2    0    0 -0.75005727278E+02  0.90552568980E+01  0.17918316729E+03  0.23122640168E+03  0.12510469452E+03 0.  0.
          5    1    3    3  502    0 -0.68956501690E+02  0.57088959001E+02  0.14944175760E+03  0.17425400908E+03  0.41800000000E+01 0.  1.
         -5    1    3    3    0  502 -0.60492255878E+01 -0.48033702103E+02  0.29741409688E+02  0.56972392597E+02  0.41800000000E+01 0.  1.
        -11    1    1    2    0    0  0.40633668800E+02 -0.50283766599E+02  0.26831261035E+02  0.69996205556E+02  0.00000000000E+00 0.  1.
         11    1    1    2    0    0  0.34372058478E+02  0.41228509701E+02  0.34285504139E+02  0.63692418782E+02  0.00000000000E+00 0. -1.
</event>
<event>
 7    1  0.2732144E-009  0.1022967E+03  0.7561462E-02  0.1275539E+00
          3   -1    0    0  501    0  0.00000000000E+00  0.00000000000E+00  0.57167327494E+02  0.57167327494E+02  0.00000000000E+00 0. -1.
         -3   -1    0    0    0  501 -0.00000000000E+00 -0.00000000000E+00 -0.21132153263E+03  0.21132153263E+03  0.00000000000E+00 0.  1.
         25    2    1    2    0    0 -0.11797991116E+02 -0.51333508427E+01 -0.10312479848E+03  0.16263320280E+03  0.12509712509E+03 0.  0.
          5    1    3    3  502    0 -0.67937432626E+02  0.14261625551E+01 -0.66396205719E+02  0.95097093675E+02  0.41800000000E+01 0. -1.
         -5    1    3    3    0  502  0.56139441510E+02 -0.65595133979E+01 -0.36728592764E+02  0.67536109123E+02  0.41800000000E+01 0. -1.
        -11    1    1    2    0    0 -0.27342226932E+02  0.24005051547E+02  0.30151632533E+01  0.36509328709E+02  0.00000000000E+00 0. -1.
         11    1    1    2    0    0  0.39140218048E+02 -0.18871700704E+02 -0.54044569909E+02  0.69346328620E+02  0.00000000000E+00 0.  1.
</event>
<event>
 7    1  0.2732144E-009  0.1028001E+03  0.7561462E-02  0.1274516E+00
         -1   -1    0    0    0  501 -0.00000000000E+00  0.00000000000E+00  0.31274764127E+02  0.31274764127E+02  0.00000000000E+00 0.  1.
          1   -1    0    0  501    0  0.00000000000E+00 -0.00000000000E+00 -0.78248392527E+03  0.78248392527E+03  0.00000000000E+00 0. -1.
         25    2    1    2    0    0 -0.88824431486E+02  0.32364536600E+01 -0.58245059048E+03  0.60232586082E+03  0.12508995965E+03 0.  0.
          5    1    3    3  502    0 -0.10330454641E+02 -0.47907678282E+01  0.22273876004E+01  0.12333020919E+02  0.41800000000E+01 0.  1.
         -5    1    3    3    0  502 -0.78493976845E+02  0.80272214882E+01 -0.58467797808E+03  0.58999283990E+03  0.41800000000E+01 0.  1.
        -11    1    1    2    0    0 -0.98657152458E+01 -0.11816421463E+02 -0.69553271254E+02  0.71236350943E+02  0.00000000000E+00 0. -1.
         11    1    1    2    0    0  0.98690146732E+02  0.85799678034E+01 -0.99205299408E+02  0.14019647763E+03  0.00000000000E+00 0.  1.
</event>
<event>
 7    1  0.2732144E-009  0.3797934E+03  0.7561462E-02  0.1051010E+00
          1   -1    0    0  501    0  0.00000000000E+00  0.00000000000E+00  0.10350301069E+04  0.10350301069E+04  0.00000000000E+00 0. -1.
         -1   -1    0    0    0  501 -0.00000000000E+00 -0.00000000000E+00 -0.14117464926E+03  0.14117464926E+03  0.00000000000E+00 0.  1.
         25    2    1    2    0    0 -0.32430016484E+03  0.16673367786E+03  0.39811195600E+03  0.55417524438E+03  0.12508539376E+03 0.  0.
          5    1    3    3  502    0 -0.84868977645E+02 -0.12858387683E+02  0.97086906452E+02  0.12965886512E+03  0.41800000000E+01 0.  1.
         -5    1    3    3    0  502 -0.23943118719E+03  0.17959206554E+03  0.30102504954E+03  0.42451637926E+03  0.41800000000E+01 0.  1.
        -11    1    1    2    0    0  0.16020745385E+03 -0.12962894001E+03  0.24612509470E+03  0.32101036214E+03  0.00000000000E+00 0.  1.
         11    1    1    2    0    0  0.16409271099E+03 -0.37104737849E+02  0.24961840697E+03  0.30101914967E+03  0.00000000000E+00 0. -1.
</event>
<event>
 7    1  0.2732144E-009  0.1125919E+03  0.7561462E-02  0.1255844E+00
          3   -1    0    0  501    0  0.00000000000E+00  0.00000000000E+00  0.13019142390E+03  0.13019142390E+03  0.00000000000E+00 0. -1.
         -3   -1    0    0    0  501 -0.00000000000E+00 -0.00000000000E+00 -0.13977685472E+03  0.13977685472E+03  0.00000000000E+00 0.  1.
         25    2    1    2    0    0 -0.98140569111E+01  0.74537137782E+02 -0.34604714918E+02  0.14998546649E+03  0.12508418462E+03 0.  0.
          5    1    3    3  502    0 -0.26342792722E+02  0.10323804692E+03 -0.73341905704E+01  0.10687983819E+03  0.41800000000E+01 0. -1.
         -5    1    3    3    0  502  0.16528735811E+02 -0.28700909139E+02 -0.27270524347E+02  0.43105628299E+02  0.41800000000E+01 0. -1.
        -11    1    1    2    0    0 -0.99624662012E+01 -0.59501987039E+02 -0.24078476110E+02  0.64957757090E+02  0.00000000000E+00 0.  1.
         11    1    1    2    0    0  0.19776523112E+02 -0.15035150743E+02  0.49097760215E+02  0.55025055042E+02  0.00000000000E+00 0. -1.
</event>
<event>
 7    1  0.2732144E-009  0.1052854E+03  0.7561462E-02  0.1269558E+00
          3   -1    0    0  501    0  0.00000000000E+00  0.00000000000E+00  0.34329013047E+03  0.34329013047E+03  0.00000000000E+00 0. -1.
         -3   -1    0    0    0  501 -0.00000000000E+00 -0.00000000000E+00 -0.42847580028E+02  0.42847580028E+02  0.00000000000E+00 0.  1.
         25    2    1    2    0    0 -0.17906252552E+02  0.13978787268E+02  0.25013409831E+03  0.28059075165E+03  0.12509221559E+03 0.  0.
          5    1    3    3  502    0  0.47648272744E+02  0.33057417279E+02  0.12851006250E+03  0.14105126478E+03  0.41800000000E+01 0. -1.
         -5    1    3    3    0  502 -0.65554525295E+02 -0.19078630011E+02  0.12162403581E+03  0.13953948687E+03  0.41800000000E+01 0. -1.
        -11    1    1    2    0    0  0.25300065851E+02 -0.45276755201E+02  0.81181863935E+01  0.52497455595E+02  0.00000000000E+00 0.  1.
         11    1    1    2    0    0 -0.73938132990E+01  0.31297967933E+02  0.42190265737E+02  0.53049503247E+02  0.00000000000E+00 0. -1.
</event>
<event>
 7    1  0.2732144E-009  0.8512217E+02  0.7561462E-02  0.1315113E+00
          4   -1    0    0  501    0  0.00000000000E+00  0.00000000000E+00  0.16544947461E+03  0.16544947461E+03  0.00000000000E+00 0. -1.
         -4   -1    0    0    0  501 -0.00000000000E+00 -0.00000000000E+00 -0.76760257703E+02  0.76760257703E+02  0.00000000000E+00 0.  1.
         25    2    1    2    0    0 -0.20936393052E+01 -0.10111283555E+02  0.74819624653E+02  0.14611670924E+03  0.12508195355E+03 0.  0.
          5    1    3    3  502    0  0.43144464642E+02  0.15259369280E+01 -0.14083297540E+02  0.45602466845E+02  0.41800000000E+01 0.  1.
         -5    1    3    3    0  502 -0.45238103947E+02 -0.11637220483E+02  0.88902922193E+02  0.10051424239E+03  0.41800000000E+01 0.  1.
        -11    1    1    2    0    0  0.39546873641E+02  0.14804893393E+02  0.33171380307E+02  0.53698049822E+02  0.00000000000E+00 0. -1.
         11    1    1    2    0    0 -0.37453234336E+02 -0.46936098384E+01 -0.19301788051E+02  0.42394973257E+02  0.00000000000E+00 0.  1.
</event>
<event>
 7    1  0.2732144E-009  0.1102430E+03  0.7561462E-02  0.1260121E+00
         -2   -1    0    0    0  501 -0.00000000000E+00  0.00000000000E+00  0.31516035174E+02  0.31516035174E+02  0.00000000000E+00 0.  1.
          2   -1    0    0  501    0  0.00000000000E+00 -0.00000000000E+00 -0.12738270344E+04  0.12738270344E+04  0.00000000000E+00 0. -1.
         25    2    1    2    0    0  0.44251676160E+01 -0.61106116604E+02 -0.11565545160E+04  0.11649117596E+04  0.12509004584E+03 0.  0.
          5    1    3    3  502    0 -0.19207654731E+02 -0.87053980355E+02 -0.53831790344E+03  0.54566561836E+03  0.41800000000E+01 0.  1.
         -5    1    3    3    0  502  0.23632822347E+02  0.25947863750E+02 -0.61823661260E+03  0.61924614127E+03  0.41800000000E+01 0.  1.
        -11    1    1    2    0    0  0.29229334456E+02  0.38514928793E+01  0.29376953989E+01  0.29627994269E+02  0.00000000000E+00 0.  1.
         11    1    1    2    0    0 -0.33654502072E+02  0.57254623725E+02 -0.88694178560E+02  0.11080331565E+03  0.00000000000E+00 0. -1.
</event>
<event>
 7    1  0.2732144E-009  0.1178706E+03  0.7561462E-02  0.1246652E+00
         -3   -1    0    0    0  501 -0.00000000000E+00  0.00000000000E+00  0.36610415817E+02  0.36610415817E+02  0.00000000000E+00 0.  1.
          3   -1    0    0  501    0  0.00000000000E+00 -0.00000000000E+00 -0.43212240398E+03  0.43212240398E+03  0.00000000000E+00 0. -1.
         25    2    1    2    0    0  0.26354852634E+02  0.35528373143E+02 -0.27774409595E+03  0.30780903725E+03  0.12509107491E+03 0.  0.
          5    1    3    3  502    0  0.73567167464E+02  0.39505875741E+02 -0.15388091899E+03  0.17512753060E+03  0.41800000000E+01 0.  1.
         -5    1    3    3    0  502 -0.47212314830E+02 -0.39775025985E+01 -0.12386317697E+03  0.13268150665E+03  0.41800000000E+01 0.  1.
        -11    1    1    2    0    0  0.33008499015E+02  0.39997934580E+01 -0.62135078889E+02  0.70472174534E+02  0.00000000000E+00 0. -1.
         11    1    1    2    0    0 -0.59363351650E+02 -0.39528166601E+02 -0.55632813321E+02  0.90451608012E+02  0.00000000000E+00 0.  1.
</event>
<event>
 7    1  0.2732144E-009  0.1009686E+03  0.7561462E-02  0.1278272E+00
          2   -1    0    0  501    0  0.00000000000E+00  0.00000000000E+00  0.46837734726E+03  0.46837734726E+03  0.00000000000E+00 0. -1.
         -2   -1    0    0    0  501 -0.00000000000E+00 -0.00000000000E+00 -0.31432599256E+02  0.31432599256E+02  0.00000000000E+00 0.  1.
         25    2    1    2    0    0  0.37830514558E+02 -0.32267940852E+02  0.30021253852E+03  0.32901020020E+03  0.12509106967E+03 0.  0.
          5    1    3    3  502    0 -0.15555454210E+02  0.29280244710E+02  0.24381062958E+02  0.41366816616E+02  0.41800000000E+01 0. -1.
         -5    1    3    3    0  502  0.53385968768E+02 -0.61548185561E+02  0.27583147556E+03  0.28764338358E+03  0.41800000000E+01 0. -1.
        -11    1    1    2    0    0  0.18082225582E+02  0.24554649961E+02  0.10041654409E+02  0.32105023594E+02  0.00000000000E+00 0.  1.
         11    1    1    2    0    0 -0.55912740140E+02  0.77132908904E+01  0.12669055507E+03  0.13869472272E+03  0.00000000000E+00 0. -1.
</event>
<event>
 7    1  0.2732144E-009  0.1029611E+03  0.7561462E-02  0.1274190E+00
         -2   -1    0    0    0  501 -0.00000000000E+00  0.00000000000E+00  0.17533833564E+03  0.17533833564E+03  0.00000000000E+00 0.  1.
          2   -1    0    0  501    0  0.00000000000E+00 -0.00000000000E+00 -0.91562348140E+02  0.91562348140E+02  0.00000000000E+00 0. -1.
         25    2    1    2    0    0  0.51052343342E+02  0.31244510106E+02  0.19285026144E+02  0.14000698810E+03  0.12508990091E+03 0.  0.
          5    1    3    3  502    0 -0.42154823746E+01 -0.34880700284E+02 -0.24709455027E+02  0.43156263875E+02  0.41800000000E+01 0.  1.
         -5    1    3    3    0  502  0.55267825717E+02  0.66125210389E+02  0.43994481171E+02  0.96850724220E+02  0.41800000000E+01 0.  1.
        -11    1    1    2    0    0  0.13341255374E+02 -0.91578175912E+01 -0.15119022196E+02  0.22145869821E+02  0.00000000000E+00 0. -1.
         11    1    1    2    0    0 -0.64393598716E+02 -0.22086692514E+02  0.79609983549E+02  0.10474782586E+03  0.00000000000E+00 0.  1.
</event>
<event>
 7    1  0.2732144E-009  0.7545325E+02  0.7561462E-02  0.1342473E+00
          2   -1    0    0  501    0  0.00000000000E+00  0.00000000000E+00  0.10451274155E+03  0.10451274155E+03  0.00000000000E+00 0. -1.
         -2   -1    0    0    0  501 -0.00000000000E+00 -0.00000000000E+00 -0.14841630535E+03  0.14841630535E+03  0.00000000000E+00 0.  1.
         25    2    1    2    0    0  0.16311535472E+02 -0.10620876442E+02  0.32098181677E+02  0.13060677220E+03  0.12509582916E+03 0.  0.
          5    1    3    3  502    0  0.10287661671E+02 -0.32723395051E+02 -0.41156398312E+02  0.53739911503E+02  0.41800000000E+01 0. -1.
         -5    1    3    3    0  502  0.60238738007E+01  0.22102518609E+02  0.73254579989E+02  0.76866860699E+02  0.41800000000E+01 0. -1.
        -11    1    1    2    0    0 -0.54363243849E+02  0.76008462586E+01 -0.58843986840E+02  0.80472044418E+02  0.00000000000E+00 0.  1.
         11    1    1    2    0    0  0.38051708377E+02  0.30200301838E+01 -0.17157758642E+02  0.41850230278E+02  0.00000000000E+00 0. -1.
</event>
<event>
 7    1  0.2732144E-009  0.1089345E+03  0.7561462E-02  0.1262556E+00
          2   -1    0    0  501    0  0.00000000000E+00  0.00000000000E+00  0.62187620315E+02  0.62187620315E+02  0.00000000000E+00 0.  1.
         -2   -1    0    0    0  501 -0.00000000000E+00 -0.00000000000E+00 -0.21463895867E+03  0.21463895867E+03  0.00000000000E+00 0. -1.
         25    2    1    2    0    0 -0.39854549798E+02  0.31478232727E+00 -0.11402103243E+03  0.17388783073E+03  0.12509075750E+03 0.  0.
          5    1    3    3  502    0  0.20747638389E+02 -0.46845409190E+02 -0.28125200827E+02  0.58595701058E+02  0.41800000000E+01 0. -1.
         -5    1    3    3    0  502 -0.60602188188E+02  0.47160191517E+02 -0.85895831602E+02  0.11529212967E+03  0.41800000000E+01 0. -1.
        -11    1    1    2    0    0  0.72861667890E+01  0.38333427472E+02 -0.34773002659E+02  0.52265682835E+02  0.00000000000E+00 0.  1.
         11    1    1    2    0    0  0.32568383009E+02 -0.38648209799E+02 -0.36573032712E+01  0.50673065427E+02  0.00000000000E+00 0. -1.
</event>
<event>
 7    1  0.2732144E-009  0.1308095E+03  0.7561462E-02  0.1226259E+00
          2   -1    0    0  501    0  0.00000000000E+00  0.00000000000E+00  0.13835928348E+03  0.13835928348E+03  0.00000000000E+00 0. -1.
         -2   -1    0    0    0  501 -0.00000000000E+00 -0.00000000000E+00 -0.17127667375E+03  0.17127667375E+03  0.00000000000E+00 0.  1.
         25    2    1    2    0    0 -0.29481608857E+02  0.10065989292E+03 -0.47947248691E+02  0.17014085900E+03  0.12508954369E+03 0.  0.
          5    1    3    3  502    0 -0.51053967918E+02  0.34572471633E+02  0.27342984969E+02  0.67578655373E+02  0.41800000000E+01 0.  1.
         -5    1    3    3    0  502  0.21572359060E+02  0.66087421286E+02 -0.75290233660E+02  0.10256220362E+03  0.41800000000E+01 0.  1.
        -11    1    1    2    0    0  0.47734812137E+02 -0.28181638074E+02 -0.17287406768E+02  0.58066095504E+02  0.00000000000E+00 0.  1.
         11    1    1    2    0    0 -0.18253203280E+02 -0.72478254845E+02  0.32317265197E+02  0.81429002727E+02  0.00000000000E+00 0. -1.
</event>
<event>
 7    1  0.4862957E-009  0.9174382E+02  0.7561462E-02  0.1298683E+00
          2   -1    0    0  501    0  0.00000000000E+00  0.00000000000E+00  0.52773586659E+03  0.52773586659E+03  0.00000000000E+00 0. -1.
         -2   -1    0    0    0  501 -0.00000000000E+00 -0.00000000000E+00 -0.29768624411E+02  0.29768624411E+02  0.00000000000E+00 0.  1.
         25    2    1    2    0    0 -0.42450234512E+02 -0.93221064920E+00  0.37960576127E+03  0.40193614922E+03  0.12509693296E+03 0.  0.
          5    1    3    3  502    0  0.27596523705E+02 -0.42165804942E+02  0.13624655490E+03  0.14532762762E+03  0.41800000000E+01 0.  1.
         -5    1    3    3    0  502 -0.70046758217E+02  0.41233594292E+02  0.24335920637E+03  0.25660852160E+03  0.41800000000E+01 0.  1.
        -11    1    1    2    0    0  0.23884604470E+01 -0.97758236820E+01 -0.13785405933E+02  0.17067773396E+02  0.00000000000E+00 0.  1.
         11    1    1    2    0    0  0.40061774065E+02  0.10708034331E+02  0.13214688684E+03  0.13850056838E+03  0.00000000000E+00 0. -1.
</event>
<event>
 7    1  0.2732144E-009  0.1648924E+03  0.7561462E-02  0.1183281E+00
         -1   -1    0    0    0  501 -0.00000000000E+00  0.00000000000E+00  0.41375221879E+02  0.41375221879E+02  0.00000000000E+00 0.  1.
          1   -1    0    0  501    0  0.00000000000E+00 -0.00000000000E+00 -0.87632500234E+03  0.87632500234E+03  0.00000000000E+00 0. -1.
         25    2    1    2    0    0  0.40683023704E+02  0.13743208734E+03 -0.58693177442E+03  0.61699281498E+03  0.12509412000E+03 0.  0.
          5    1    3    3  502    0  0.80456564180E+02  0.65486256478E+02 -0.38924633368E+03  0.40285467502E+03  0.41800000000E+01 0.  1.
         -5    1    3    3    0  502 -0.39773540476E+02  0.71945830866E+02 -0.19768544074E+03  0.21413813995E+03  0.41800000000E+01 0.  1.
        -11    1    1    2    0    0 -0.23794094119E+02 -0.96022527878E+02 -0.23365812284E+03  0.25373727189E+03  0.00000000000E+00 0.  1.
         11    1    1    2    0    0 -0.16888929585E+02 -0.41409559466E+02 -0.14359883199E+02  0.46970137355E+02  0.00000000000E+00 0. -1.
</event>
<event>
 7    1  0.2732144E-009  0.1448287E+03  0.7561462E-02  0.1206975E+00
         -1   -1    0    0    0  501 -0.00000000000E+00  0.00000000000E+00  0.17426946146E+02  0.17426946146E+02  0.00000000000E+00 0.  1.
          1   -1    0    0  501    0  0.00000000000E+00 -0.00000000000E+00 -0.13157325055E+04  0.13157325055E+04  0.00000000000E+00 0. -1.
         25    2    1    2    0    0  0.46469725271E+02 -0.89751382380E+02 -0.83409887980E+03  0.84946030471E+03  0.12508845665E+03 0.  0.
          5    1    3    3  502    0  0.28791097131E+01 -0.10872209438E+03 -0.48160738731E+03  0.49375290479E+03  0.41800000000E+01 0.  1.
         -5    1    3    3    0  502  0.43590615558E+02  0.18970711995E+02 -0.35249149249E+03  0.35570739992E+03  0.41800000000E+01 0.  1.
        -11    1    1    2    0    0  0.15131490044E+02  0.64946661430E+02 -0.18342012956E+03  0.19516653081E+03  0.00000000000E+00 0.  1.
         11    1    1    2    0    0 -0.61601215315E+02  0.24804720951E+02 -0.28078654998E+03  0.28853261611E+03  0.00000000000E+00 0. -1.
</event>
<event>
 7    1  0.2732144E-009  0.1079668E+03  0.7561462E-02  0.1264382E+00
          2   -1    0    0  501    0  0.00000000000E+00  0.00000000000E+00  0.41329093214E+03  0.41329093214E+03  0.00000000000E+00 0. -1.
         -2   -1    0    0    0  501 -0.00000000000E+00 -0.00000000000E+00 -0.46779973357E+02  0.46779973357E+02  0.00000000000E+00 0.  1.
         25    2    1    2    0    0  0.16984534205E+02  0.50262380110E+02  0.84356159759E+02  0.15992793129E+03  0.12508477230E+03 0.  0.
          5    1    3    3  502    0 -0.11655100674E+02 -0.30419906271E+02  0.63835909988E+02  0.71789329801E+02  0.41800000000E+01 0.  1.
         -5    1    3    3    0  502  0.28639634879E+02  0.80682286381E+02  0.20520249771E+02  0.88138601489E+02  0.41800000000E+01 0.  1.
        -11    1    1    2    0    0 -0.10748612051E+02 -0.73004760015E+02  0.16666635623E+03  0.18227150612E+03  0.00000000000E+00 0.  1.
         11    1    1    2    0    0 -0.62359221543E+01  0.22742379905E+02  0.11548844279E+03  0.11787146808E+03  0.00000000000E+00 0. -1.
</event>
<event>
 7    1  0.2732144E-009  0.1222453E+03  0.7561462E-02  0.1239438E+00
         -2   -1    0    0    0  501 -0.00000000000E+00  0.00000000000E+00  0.10662622873E+03  0.10662622873E+03  0.00000000000E+00 0.  1.
          2   -1    0    0  501    0  0.00000000000E+00 -0.00000000000E+00 -0.18134752976E+03  0.18134752976E+03  0.00000000000E+00 0. -1.
         25    2    1    2    0    0 -0.12196204881E+02 -0.75395699102E+02 -0.82720312483E+02  0.16829485116E+03  0.12508896024E+03 0.  0.
          5    1    3    3  502    0 -0.53167855104E+02 -0.73055671889E+01 -0.69049183431E+02  0.87552579978E+02  0.41800000000E+01 0. -1.
         -5    1    3    3    0  502  0.40971650223E+02 -0.68090131913E+02 -0.13671129052E+02  0.80742271181E+02  0.41800000000E+01 0. -1.
        -11    1    1    2    0    0  0.40870439506E+02  0.13793563431E+02  0.24701623616E+02  0.49707398109E+02  0.00000000000E+00 0.  1.
         11    1    1    2    0    0 -0.28674234625E+02  0.61602135672E+02 -0.16702612161E+02  0.69971509228E+02  0.00000000000E+00 0. -1.
</event>
<event>
 7    1  0.2732144E-009  0.1140536E+03  0.7561462E-02  0.1253242E+00
         -2   -1    0    0    0  501 -0.00000000000E+00  0.00000000000E+00  0.69599277314E+02  0.69599277314E+02  0.00000000000E+00 0.  1.
          2   -1    0    0  501    0  0.00000000000E+00 -0.00000000000E+00 -0.25880903939E+03  0.25880903939E+03  0.00000000000E+00 0. -1.
         25    2    1    2    0    0  0.15158342224E+01 -0.52647032142E+02 -0.17621509071E+03  0.22242539111E+03  0.12508912290E+03 0.  0.
          5    1    3    3  502    0 -0.43017593706E+02 -0.64144328807E+02 -0.61676802735E+02  0.98926784452E+02  0.41800000000E+01 0. -1.
         -5    1    3    3    0  502  0.44533427928E+02  0.11497296665E+02 -0.11453828798E+03  0.12349860666E+03  0.41800000000E+01 0. -1.
        -11    1    1    2    0    0  0.31434140722E+01  0.78371505463E+02 -0.47815031327E+01  0.78580129121E+02  0.00000000000E+00 0.  1.
         11    1    1    2    0    0 -0.46592482946E+01 -0.25724473321E+02 -0.82131682367E+01  0.27402796477E+02  0.00000000000E+00 0. -1.
</event>
<event>
 7    1  0.2732144E-009  0.1889882E+03  0.7561462E-02  0.1159377E+00
         -1   -1    0    0    0  501 -0.00000000000E+00  0.00000000000E+00  0.13113211836E+03  0.13113211836E+03  0.00000000000E+00 0.  1.
          1   -1    0    0  501    0  0.00000000000E+00 -0.00000000000E+00 -0.49778094424E+03  0.49778094424E+03  0.00000000000E+00 0. -1.
         25    2    1    2    0    0  0.37437288073E+02  0.16236137230E+03  0.85885454720E+01  0.20851258578E+03  0.12506386193E+03 0.  0.
          5    1    3    3  502    0 -0.34739500202E+02  0.21757050059E+02  0.27120225210E+02  0.49327285725E+02  0.41800000000E+01 0.  1.
         -5    1    3    3    0  502  0.72176788275E+02  0.14060432224E+03 -0.18531679738E+02  0.15918530005E+03  0.41800000000E+01 0.  1.
        -11    1    1    2    0    0 -0.45046459985E+02 -0.55237002016E+02 -0.22286004301E+03  0.23398057338E+03  0.00000000000E+00 0. -1.
         11    1    1    2    0    0  0.76091719119E+01 -0.10712437029E+03 -0.15237732835E+03  0.18641990345E+03  0.00000000000E+00 0.  1.
</event>
<event>
 7    1  0.2732144E-009  0.1409782E+03  0.7561462E-02  0.1212019E+00
         -2   -1    0    0    0  501 -0.00000000000E+00  0.00000000000E+00  0.52955890101E+02  0.52955890101E+02  0.00000000000E+00 0.  1.
          2   -1    0    0  501    0  0.00000000000E+00 -0.00000000000E+00 -0.46949939394E+03  0.46949939394E+03  0.00000000000E+00 0. -1.
         25    2    1    2    0    0  0.97115030590E+02 -0.22031029699E+02 -0.13485186754E+03  0.20916746154E+03  0.12509718364E+03 0.  0.
          5    1    3    3  502    0  0.23921749696E+02  0.41809188693E+02 -0.74621789813E+01  0.48922539619E+02  0.41800000000E+01 0.  1.
         -5    1    3    3    0  502  0.73193280894E+02 -0.63840218392E+02 -0.12738968856E+03  0.16024492193E+03  0.41800000000E+01 0.  1.
        -11    1    1    2    0    0  0.18245418330E+02 -0.26095117811E+01 -0.50131867232E+02  0.53412629162E+02  0.00000000000E+00 0. -1.
         11    1    1    2    0    0 -0.11536044892E+03  0.24640541480E+02 -0.23155976906E+03  0.25987519333E+03  0.00000000000E+00 0.  1.
</event>
<event>
 7    1  0.2732144E-009  0.2738654E+03  0.7561462E-02  0.1099088E+00
          1   -1    0    0  501    0  0.00000000000E+00  0.00000000000E+00  0.97037855612E+03  0.97037855612E+03  0.00000000000E+00 0. -1.
         -1   -1    0    0    0  501 -0.00000000000E+00 -0.00000000000E+00 -0.90344113328E+02  0.90344113328E+02  0.00000000000E+00 0.  1.
         25    2    1    2    0    0  0.11688819587E+03 -0.23170689805E+03  0.61048382073E+03  0.67504767399E+03  0.12509168575E+03 0.  0.
          5    1    3    3  502    0  0.54623309398E+02 -0.11355789576E+02  0.84195488484E+02  0.10108913180E+03  0.41800000000E+01 0. -1.
         -5    1    3    3    0  502  0.62264886473E+02 -0.22035110848E+03  0.52628833225E+03  0.57395854219E+03  0.41800000000E+01 0. -1.
        -11    1    1    2    0    0 -0.85589968000E+02  0.20296065758E+03  0.26237467378E+03  0.34257720383E+03  0.00000000000E+00 0. -1.
         11    1    1    2    0    0 -0.31298227871E+02  0.28746240474E+02  0.71759482849E+01  0.43097791626E+02  0.00000000000E+00 0.  1.
</event>
<event>
 7    1  0.2732144E-009  0.1649259E+03  0.7561462E-02  0.1183245E+00
          1   -1    0    0  501    0  0.00000000000E+00  0.00000000000E+00  0.40741105289E+03  0.40741105289E+03  0.00000000000E+00 0. -1.
         -1   -1    0    0    0  501 -0.00000000000E+00 -0.00000000000E+00 -0.74991862015E+02  0.74991862015E+02  0.00000000000E+00 0.  1.
         25    2    1    2    0    0  0.13231243907E+03  0.21094141738E+01  0.21165968517E+03  0.27920707032E+03  0.12508291104E+03 0.  0.
          5    1    3    3  502    0  0.10502444951E+03  0.46662933281E+02  0.87708658601E+02  0.14463002984E+03  0.41800000000E+01 0.  1.
         -5    1    3    3    0  502  0.27287989555E+02 -0.44553519107E+02  0.12395102657E+03  0.13457704048E+03  0.41800000000E+01 0.  1.
        -11    1    1    2    0    0 -0.94024291300E+01  0.33241647093E+02  0.35216649304E+02  0.49331786540E+02  0.00000000000E+00 0. -1.
         11    1    1    2    0    0 -0.12291000994E+03 -0.35351061267E+02  0.85542856401E+02  0.15386405804E+03  0.00000000000E+00 0.  1.
</event>
<event>
 7    1  0.2732144E-009  0.1157900E+03  0.7561462E-02  0.1250208E+00
          4   -1    0    0  501    0  0.00000000000E+00  0.00000000000E+00  0.77947876724E+02  0.77947876724E+02  0.00000000000E+00 0. -1.
         -4   -1    0    0    0  501 -0.00000000000E+00 -0.00000000000E+00 -0.18982403947E+03  0.18982403947E+03  0.00000000000E+00 0.  1.
         25    2    1    2    0    0 -0.38236638009E+01 -0.48041079195E+02 -0.30492704318E+02  0.13747217741E+03  0.12508488658E+03 0.  0.
          5    1    3    3  502    0  0.43898402361E+01 -0.90434327965E+02 -0.21912207773E+02  0.93248354523E+02  0.41800000000E+01 0. -1.
         -5    1    3    3    0  502 -0.82135040370E+01  0.42393248770E+02 -0.85804965455E+01  0.44223822888E+02  0.41800000000E+01 0. -1.
        -11    1    1    2    0    0 -0.24584914155E+02  0.61420192735E+02 -0.71425142928E+02  0.97357121578E+02  0.00000000000E+00 0.  1.
         11    1    1    2    0    0  0.28408577956E+02 -0.13379113540E+02 -0.99583154969E+01  0.32942617202E+02  0.00000000000E+00 0. -1.
</event>
<event>
 7    1  0.4877004E-009  0.9181569E+02  0.7561462E-02  0.1298513E+00
         -2   -1    0    0    0  501 -0.00000000000E+00  0.00000000000E+00  0.13866855689E+03  0.13866855689E+03  0.00000000000E+00 0.  1.
          2   -1    0    0  501    0  0.00000000000E+00 -0.00000000000E+00 -0.10086931870E+03  0.10086931870E+03  0.00000000000E+00 0. -1.
         25    2    1    2    0    0  0.44731358787E+01 -0.40179021160E+02  0.46765111801E+02  0.13953074656E+03  0.12508993112E+03 0.  0.
          5    1    3    3  502    0  0.40101878772E+02  0.51754652303E+01  0.66914622373E+02  0.78294222064E+02  0.41800000000E+01 0. -1.
         -5    1    3    3    0  502 -0.35628742893E+02 -0.45354486391E+02 -0.20149510572E+02  0.61236524495E+02  0.41800000000E+01 0. -1.
        -11    1    1    2    0    0  0.35116990120E+02  0.14668086661E+02  0.21696802372E+02  0.43807613431E+02  0.00000000000E+00 0.  1.
         11    1    1    2    0    0 -0.39590125999E+02  0.25510934500E+02 -0.30662675984E+02  0.56199515604E+02  0.00000000000E+00 0. -1.
</event>
<event>
 7    1  0.2732144E-009  0.1658568E+03  0.7561462E-02  0.1182239E+00
          1   -1    0    0  501    0  0.00000000000E+00  0.00000000000E+00  0.17056873105E+03  0.17056873105E+03  0.00000000000E+00 0. -1.
         -1   -1    0    0    0  501 -0.00000000000E+00 -0.00000000000E+00 -0.16880094181E+03  0.16880094181E+03  0.00000000000E+00 0.  1.
         25    2    1    2    0    0  0.10773129539E+03  0.66531024587E+02 -0.21809019202E+02  0.17932587176E+03  0.12509886380E+03 0.  0.
          5    1    3    3  502    0  0.44316728761E+02  0.95399889049E+02 -0.28889535571E+02  0.10916587811E+03  0.41800000000E+01 0. -1.
         -5    1    3    3    0  502  0.63414566628E+02 -0.28868864463E+02  0.70805163697E+01  0.70159993644E+02  0.41800000000E+01 0. -1.
        -11    1    1    2    0    0 -0.23673962726E+02  0.23575976677E+02  0.14687139902E+02  0.36496510325E+02  0.00000000000E+00 0.  1.
         11    1    1    2    0    0 -0.84057332663E+02 -0.90107001263E+02  0.88896685460E+01  0.12354729078E+03  0.00000000000E+00 0. -1.
</event>
<event>
 7    1  0.2732144E-009  0.3296582E+03  0.7561462E-02  0.1071288E+00
          2   -1    0    0  501    0  0.00000000000E+00  0.00000000000E+00  0.11530270045E+03  0.11530270045E+03  0.00000000000E+00 0. -1.
         -2   -1    0    0    0  501 -0.00000000000E+00 -0.00000000000E+00 -0.10124398656E+04  0.10124398656E+04  0.00000000000E+00 0.  1.
         25    2    1    2    0    0  0.17389465528E+03 -0.26896568416E+03 -0.53514983418E+03  0.63609330509E+03  0.12508979722E+03 0.  0.
          5    1    3    3  502    0  0.11507637442E+03 -0.91662833036E+02 -0.16264743300E+03  0.21935429508E+03  0.41800000000E+01 0.  1.
         -5    1    3    3    0  502  0.58818280868E+02 -0.17730285112E+03 -0.37250240118E+03  0.41673901002E+03  0.41800000000E+01 0.  1.
        -11    1    1    2    0    0 -0.51062846979E+02  0.37870034081E+02 -0.11704057801E+03  0.13319178174E+03  0.00000000000E+00 0.  1.
         11    1    1    2    0    0 -0.12283180830E+03  0.23109565008E+03 -0.24494675295E+03  0.35845747921E+03  0.00000000000E+00 0. -1.
</event>
<event>
 7    1  0.2732144E-009  0.1714601E+03  0.7561462E-02  0.1176334E+00
          2   -1    0    0  501    0  0.00000000000E+00  0.00000000000E+00  0.27581813928E+03  0.27581813928E+03  0.00000000000E+00 0. -1.
         -2   -1    0    0    0  501 -0.00000000000E+00 -0.00000000000E+00 -0.34619604891E+03  0.34619604891E+03  0.00000000000E+00 0.  1.
         25    2    1    2    0    0 -0.54644868027E+02 -0.15106677578E+03 -0.28030386484E+03  0.34644728206E+03  0.12509288651E+03 0.  0.
          5    1    3    3  502    0  0.15339524804E+02 -0.72197009537E+02 -0.20182420396E+03  0.21493764424E+03  0.41800000000E+01 0.  1.
         -5    1    3    3    0  502 -0.69984392830E+02 -0.78869766246E+02 -0.78479660882E+02  0.13150963782E+03  0.41800000000E+01 0.  1.
        -11    1    1    2    0    0  0.57482961848E+02  0.12911434198E+03  0.21035854381E+03  0.25342754618E+03  0.00000000000E+00 0. -1.
         11    1    1    2    0    0 -0.28380938217E+01  0.21952433799E+02 -0.43258860379E+00  0.22139359953E+02  0.00000000000E+00 0.  1.
</event>
<event>
 7    1  0.2732144E-009  0.1624952E+03  0.7561462E-02  0.1185908E+00
          1   -1    0    0  501    0  0.00000000000E+00  0.00000000000E+00  0.17103825216E+04  0.17103825216E+04  0.00000000000E+00 0. -1.
         -1   -1    0    0    0  501 -0.00000000000E+00 -0.00000000000E+00 -0.17096021092E+02  0.17096021092E+02  0.00000000000E+00 0.  1.
         25    2    1    2    0    0  0.11643046754E+03  0.49221498739E+02  0.10748861789E+04  0.10894979775E+04  0.12508691330E+03 0.  0.
          5    1    3    3  502    0  0.46752250345E+02  0.79431963145E+02  0.40876090169E+03  0.41904433755E+03  0.41800000000E+01 0. -1.
         -5    1    3    3    0  502  0.69678217197E+02 -0.30210464406E+02  0.66612527717E+03  0.67045364000E+03  0.41800000000E+01 0. -1.
        -11    1    1    2    0    0 -0.10979394055E+03 -0.73086486317E+02  0.50901788146E+03  0.52582843924E+03  0.00000000000E+00 0.  1.
         11    1    1    2    0    0 -0.66365269957E+01  0.23864987579E+02  0.10938244015E+03  0.11215212586E+03  0.00000000000E+00 0. -1.
</event>
<event>
 7    1  0.2732144E-009  0.1964280E+03  0.7561462E-02  0.1152788E+00
          3   -1    0    0  501    0  0.00000000000E+00  0.00000000000E+00  0.66085803958E+03  0.66085803958E+03  0.00000000000E+00 0. -1.
         -3   -1    0    0    0  501 -0.00000000000E+00 -0.00000000000E+00 -0.76508762759E+02  0.76508762759E+02  0.00000000000E+00 0.  1.
         25    2    1    2    0    0  0.19205235337E+03  0.13367494705E+02  0.23566135020E+03  0.32900586710E+03  0.12508314139E+03 0.  0.
          5    1    3    3  502    0  0.14286372317E+02 -0.52505308540E+01  0.10841994877E+03  0.10956288696E+03  0.41800000000E+01 0.  1.
         -5    1    3    3    0  502  0.17776598105E+03  0.18618025559E+02  0.12724140143E+03  0.21944298014E+03  0.41800000000E+01 0.  1.
        -11    1    1    2    0    0 -0.13082587238E+03 -0.31237648467E+02  0.15912372576E+03  0.20835440880E+03  0.00000000000E+00 0. -1.
         11    1    1    2    0    0 -0.61226480983E+02  0.17870153762E+02  0.18956420086E+03  0.20000652644E+03  0.00000000000E+00 0.  1.
</event>
<event>
 7    1  0.2732144E-009  0.1420727E+03  0.7561462E-02  0.1210567E+00
         -2   -1    0    0    0  501 -0.00000000000E+00  0.00000000000E+00  0.95038272332E+02  0.95038272332E+02  0.00000000000E+00 0.  1.
          2   -1    0    0  501    0  0.00000000000E+00 -0.00000000000E+00 -0.33034475921E+03  0.33034475921E+03  0.00000000000E+00 0. -1.
         25    2    1    2    0    0 -0.18320175517E+02 -0.13696068345E+03 -0.14786437477E+03  0.23791777680E+03  0.12508851885E+03 0.  0.
          5    1    3    3  502    0 -0.23811929794E+02 -0.49787691028E+02 -0.13949331487E+03  0.15007224751E+03  0.41800000000E+01 0. -1.
         -5    1    3    3    0  502  0.54917542779E+01 -0.87172992418E+02 -0.83710598972E+01  0.87845529288E+02  0.41800000000E+01 0. -1.
        -11    1    1    2    0    0 -0.74459471215E+01  0.15586855106E+02 -0.57204015391E+02  0.59755263847E+02  0.00000000000E+00 0. -1.
         11    1    1    2    0    0  0.25766122638E+02  0.12137382834E+03 -0.30238096716E+02  0.12770999090E+03  0.00000000000E+00 0.  1.
</event>
<event>
 7    1  0.2732144E-009  0.1211578E+03  0.7561462E-02  0.1241199E+00
         -2   -1    0    0    0  501 -0.00000000000E+00  0.00000000000E+00  0.27267991903E+03  0.27267991903E+03  0.00000000000E+00 0.  1.
          2   -1    0    0  501    0  0.00000000000E+00 -0.00000000000E+00 -0.13647315251E+03  0.13647315251E+03  0.00000000000E+00 0. -1.
         25    2    1    2    0    0 -0.39061760552E+02 -0.52582961747E+02 -0.82744759401E+02  0.16366097361E+03  0.12508968810E+03 0.  0.
          5    1    3    3  502    0 -0.68207329834E+02  0.10100612327E+02 -0.57738151275E+02  0.90030154533E+02  0.41800000000E+01 0. -1.
         -5    1    3    3    0  502  0.29145569282E+02 -0.62683574074E+02 -0.25006608126E+02  0.73630819074E+02  0.41800000000E+01 0. -1.
        -11    1    1    2    0    0 -0.23001806238E+02  0.30298165510E+02  0.42069505607E+02  0.56717768164E+02  0.00000000000E+00 0. -1.
         11    1    1    2    0    0  0.62063566791E+02  0.22284796238E+02  0.17688202032E+03  0.18877432976E+03  0.00000000000E+00 0.  1.
</event>
<event>
 7    1  0.4058514E-009  0.1893780E+03  0.7561462E-02  0.1159024E+00
         -1   -1    0    0    0  501 -0.00000000000E+00  0.00000000000E+00  0.28403244589E+03  0.28403244589E+03  0.00000000000E+00 0.  1.
          1   -1    0    0  501    0  0.00000000000E+00 -0.00000000000E+00 -0.16305280055E+03  0.16305280055E+03  0.00000000000E+00 0. -1.
         25    2    1    2    0    0 -0.12909712490E+03  0.12976743837E+03  0.94208803673E+02  0.24089124273E+03  0.12509051289E+03 0.  0.
          5    1    3    3  502    0 -0.57583104668E+02  0.57236677490E+02 -0.24028443969E+02  0.84774345842E+02  0.41800000000E+01 0. -1.
         -5    1    3    3    0  502 -0.71514020236E+02  0.72530760879E+02  0.11823724764E+03  0.15611689689E+03  0.41800000000E+01 0. -1.
        -11    1    1    2    0    0  0.69250799728E+02 -0.11439937209E+03 -0.10326063340E+02  0.13412500580E+03  0.00000000000E+00 0. -1.
         11    1    1    2    0    0  0.59846325176E+02 -0.15368066277E+02  0.37096905009E+02  0.72068997908E+02  0.00000000000E+00 0.  1.
</event>
<event>
 7    1  0.2732144E-009  0.7273136E+02  0.7561462E-02  0.1351044E+00
          2   -1    0    0  501    0  0.00000000000E+00  0.00000000000E+00  0.55673510311E+03  0.55673510311E+03  0.00000000000E+00 0. -1.
         -2   -1    0    0    0  501 -0.00000000000E+00 -0.00000000000E+00 -0.23493179192E+02  0.23493179192E+02  0.00000000000E+00 0.  1.
         25    2    1    2    0    0 -0.97822180293E+01 -0.33131167323E+02  0.27849327209E+03  0.30724399901E+03  0.12508799420E+03 0.  0.
          5    1    3    3  502    0  0.10848089408E+02 -0.24424267510E+02  0.28277503618E+03  0.28406587154E+03  0.41800000000E+01 0.  1.
         -5    1    3    3    0  502 -0.20630307438E+02 -0.87068998128E+01 -0.42817640925E+01  0.23178127471E+02  0.41800000000E+01 0.  1.
        -11    1    1    2    0    0 -0.16376831916E+02 -0.26140060556E+02  0.11294671407E+03  0.11708314827E+03  0.00000000000E+00 0. -1.
         11    1    1    2    0    0  0.26159049945E+02  0.59271227879E+02  0.14180193776E+03  0.15590113502E+03  0.00000000000E+00 0.  1.
</event>
<event>
 7    1  0.2732144E-009  0.1066777E+03  0.7561462E-02  0.1266849E+00
         -4   -1    0    0    0  501 -0.00000000000E+00  0.00000000000E+00  0.45286967057E+03  0.45286967057E+03  0.00000000000E+00 0.  1.
          4   -1    0    0  501    0  0.00000000000E+00 -0.00000000000E+00 -0.37103305830E+02  0.37103305830E+02  0.00000000000E+00 0. -1.
         25    2    1    2    0    0 -0.31058624238E+02 -0.52786880992E+02  0.31883098629E+03  0.34792537824E+03  0.12509107904E+03 0.  0.
          5    1    3    3  502    0  0.32178429863E+02 -0.28689808601E+02  0.33798309176E+02  0.54939553777E+02  0.41800000000E+01 0.  1.
         -5    1    3    3    0  502 -0.63237054101E+02 -0.24097072391E+02  0.28503267712E+03  0.29298582446E+03  0.41800000000E+01 0.  1.
        -11    1    1    2    0    0 -0.48191170207E+01 -0.20277670305E+02  0.30696412727E+02  0.37103605703E+02  0.00000000000E+00 0.  1.
         11    1    1    2    0    0  0.35877741259E+02  0.73064551297E+02  0.66238965716E+02  0.10494399246E+03  0.00000000000E+00 0. -1.
</event>
<event>
 7    1  0.2732144E-009  0.1339150E+03  0.7561462E-02  0.1221760E+00
          2   -1    0    0  501    0  0.00000000000E+00  0.00000000000E+00  0.10687436744E+04  0.10687436744E+04  0.00000000000E+00 0. -1.
         -2   -1    0    0    0  501 -0.00000000000E+00 -0.00000000000E+00 -0.24704930188E+02  0.24704930188E+02  0.00000000000E+00 0.  1.
         25    2    1    2    0    0 -0.10658325129E+03  0.53941559403E+02  0.61642747106E+03  0.64023399608E+03  0.12508821434E+03 0.  0.
          5    1    3    3  502    0 -0.53000079835E+02  0.24760873300E+02  0.53598369295E+03  0.53918280835E+03  0.41800000000E+01 0.  1.
         -5    1    3    3    0  502 -0.53583171454E+02  0.29180686103E+02  0.80443778113E+02  0.10105118773E+03  0.41800000000E+01 0.  1.
        -11    1    1    2    0    0  0.12203940061E+03 -0.44421399589E+02  0.34506727821E+03  0.36869811843E+03  0.00000000000E+00 0.  1.
         11    1    1    2    0    0 -0.15456149325E+02 -0.95201598138E+01  0.82543994960E+02  0.84516490100E+02  0.00000000000E+00 0. -1.
</event>
<event>
 7    1  0.2732144E-009  0.1579638E+03  0.7561462E-02  0.1191015E+00
         -2   -1    0    0    0  501 -0.00000000000E+00  0.00000000000E+00  0.35571074891E+02  0.35571074891E+02  0.00000000000E+00 0.  1.
          2   -1    0    0  501    0  0.00000000000E+00 -0.00000000000E+00 -0.73473809441E+03  0.73473809441E+03  0.00000000000E+00 0. -1.
         25    2    1    2    0    0 -0.83430132181E+02 -0.84986608775E+02 -0.35841985200E+03  0.39786428838E+03  0.12509153061E+03 0.  0.
          5    1    3    3  502    0 -0.11388244492E+03 -0.75959923394E+02 -0.31837243100E+03  0.34657985869E+03  0.41800000000E+01 0. -1.
         -5    1    3    3    0  502  0.30452312742E+02 -0.90266853817E+01 -0.40047420996E+02  0.51284429691E+02  0.41800000000E+01 0. -1.
        -11    1    1    2    0    0  0.10080255855E+03  0.62824199826E+02 -0.23921821748E+03  0.26708311715E+03  0.00000000000E+00 0.  1.
         11    1    1    2    0    0 -0.17372426371E+02  0.22162408950E+02 -0.10152895004E+03  0.10536176377E+03  0.00000000000E+00 0. -1.
</event>
<event>
 7    1  0.2732144E-009  0.1936399E+03  0.7561462E-02  0.1155219E+00
         -2   -1    0    0    0  501 -0.00000000000E+00  0.00000000000E+00  0.11316595563E+04  0.11316595563E+04  0.00000000000E+00 0. -1.
          2   -1    0    0  501    0  0.00000000000E+00 -0.00000000000E+00 -0.38038974211E+02  0.38038974211E+02  0.00000000000E+00 0.  1.
         25    2    1    2    0    0  0.14549142796E+03  0.98618753801E+02  0.61824444862E+03  0.65479831114E+03  0.12506484643E+03 0.  0.
          5    1    3    3  502    0 -0.16024486110E+02  0.28642978566E+02  0.17045430077E+03  0.17363566865E+03  0.41800000000E+01 0. -1.
         -5    1    3    3    0  502  0.16151591407E+03  0.69975775235E+02  0.44779014785E+03  0.48116264249E+03  0.41800000000E+01 0. -1.
        -11    1    1    2    0    0 -0.90615586815E+02 -0.77790399502E+02  0.41000871500E+03  0.42704762873E+03  0.00000000000E+00 0. -1.
         11    1    1    2    0    0 -0.54875841144E+02 -0.20828354299E+02  0.65367418453E+02  0.87852590624E+02  0.00000000000E+00 0.  1.
</event>
<event>
 7    1  0.2732144E-009  0.1125386E+03  0.7561462E-02  0.1255940E+00
         -1   -1    0    0    0  501 -0.00000000000E+00  0.00000000000E+00  0.88602348734E+02  0.88602348734E+02  0.00000000000E+00 0.  1.
          1   -1    0    0  501    0  0.00000000000E+00 -0.00000000000E+00 -0.17685377559E+03  0.17685377559E+03  0.00000000000E+00 0. -1.
         25    2    1    2    0    0 -0.31277288123E+02 -0.32547079512E+02 -0.96231320941E+02  0.16415494313E+03  0.12509515213E+03 0.  0.
          5    1    3    3  502    0 -0.74834893245E+02 -0.43576531874E+02 -0.73322565288E+02  0.11354667039E+03  0.41800000000E+01 0.  1.
         -5    1    3    3    0  502  0.43557605122E+02  0.11029452362E+02 -0.22908755653E+02  0.50608272732E+02  0.41800000000E+01 0.  1.
        -11    1    1    2    0    0 -0.14439405027E+02 -0.19315781617E+02 -0.15053956678E+02  0.28429165458E+02  0.00000000000E+00 0. -1.
         11    1    1    2    0    0  0.45716693150E+02  0.51862861129E+02  0.23033850762E+02  0.72872015740E+02  0.00000000000E+00 0.  1.
</event>
<event>
 7    1  0.3382846E-009  0.8512919E+02  0.7561462E-02  0.1315095E+00
          2   -1    0    0  501    0  0.00000000000E+00  0.00000000000E+00  0.40210988418E+02  0.40210988418E+02  0.00000000000E+00 0. -1.
         -2   -1    0    0    0  501 -0.00000000000E+00 -0.00000000000E+00 -0.36684365478E+03  0.36684365478E+03  0.00000000000E+00 0.  1.
         25    2    1    2    0    0  0.10660555004E+02  0.52541235647E+02 -0.16291894610E+03  0.21228590755E+03  0.12509394338E+03 0.  0.
          5    1    3    3  502    0 -0.31358464237E+02  0.49423558054E+02 -0.18108072396E+02  0.61411855988E+02  0.41800000000E+01 0. -1.
         -5    1    3    3    0  502  0.42019019241E+02  0.31176775938E+01 -0.14481087371E+03  0.15087405156E+03  0.41800000000E+01 0. -1.
        -11    1    1    2    0    0 -0.25165263412E+02 -0.47722875577E+02 -0.16991486329E+03  0.17827457503E+03  0.00000000000E+00 0.  1.
         11    1    1    2    0    0  0.14504708408E+02 -0.48183600699E+01  0.62011430242E+01  0.16494160620E+02  0.00000000000E+00 0. -1.
</event>
<event>
 7    1  0.2732144E-009  0.1099992E+03  0.7561462E-02  0.1260571E+00
          4   -1    0    0  501    0  0.00000000000E+00  0.00000000000E+00  0.29634437002E+02  0.29634437002E+02  0.00000000000E+00 0. -1.
         -4   -1    0    0    0  501 -0.00000000000E+00 -0.00000000000E+00 -0.46468953322E+03  0.46468953322E+03  0.00000000000E+00 0.  1.
         25    2    1    2    0    0 -0.28425029386E+02  0.80676403701E+01 -0.32518829923E+03  0.34966741091E+03  0.12508716631E+03 0.  0.
          5    1    3    3  502    0 -0.39666989450E+02 -0.52928575290E+02 -0.16123814851E+03  0.17432761419E+03  0.41800000000E+01 0. -1.
         -5    1    3    3    0  502  0.11241960063E+02  0.60996215660E+02 -0.16395015072E+03  0.17533979672E+03  0.41800000000E+01 0. -1.
        -11    1    1    2    0    0  0.46795581324E+02  0.25500778585E+02 -0.79948625896E+02  0.96082771206E+02  0.00000000000E+00 0. -1.
         11    1    1    2    0    0 -0.18370551938E+02 -0.33568418956E+02 -0.29918171085E+02  0.48573788104E+02  0.00000000000E+00 0.  1.
</event>
<event>
 7    1  0.2732144E-009  0.1678186E+03  0.7561462E-02  0.1180142E+00
          2   -1    0    0  501    0  0.00000000000E+00  0.00000000000E+00  0.15679863720E+04  0.15679863720E+04  0.00000000000E+00 0. -1.
         -2   -1    0    0    0  501 -0.00000000000E+00 -0.00000000000E+00 -0.18734026050E+02  0.18734026050E+02  0.00000000000E+00 0.  1.
         25    2    1    2    0    0  0.11238840916E+03 -0.68744322851E+02  0.75422236333E+03  0.77579268634E+03  0.12508390142E+03 0.  0.
          5    1    3    3  502    0  0.11438078768E+03 -0.95305847817E+02  0.69411742266E+03  0.70991734593E+03  0.41800000000E+01 0.  1.
         -5    1    3    3    0  502 -0.19923785160E+01  0.26561524966E+02  0.60104940666E+02  0.65875340403E+02  0.41800000000E+01 0.  1.
        -11    1    1    2    0    0 -0.12563042307E+03  0.46723465612E+02  0.67450428424E+03  0.68769332910E+03  0.00000000000E+00 0.  1.
         11    1    1    2    0    0  0.13242013905E+02  0.22020857239E+02  0.12052569836E+03  0.12323438258E+03  0.00000000000E+00 0. -1.
</event>
<event>
 7    1  0.2851903E-009  0.1267635E+03  0.7561462E-02  0.1232339E+00
          1   -1    0    0  501    0  0.00000000000E+00  0.00000000000E+00  0.45591710758E+03  0.45591710758E+03  0.00000000000E+00 0. -1.
         -1   -1    0    0    0  501 -0.00000000000E+00 -0.00000000000E+00 -0.37576657659E+02  0.37576657659E+02  0.00000000000E+00 0.  1.
         25    2    1    2    0    0  0.48809888405E+02 -0.46566685335E+02  0.28087895877E+03  0.31478751317E+03  0.12508927844E+03 0.  0.
          5    1    3    3  502    0 -0.30081763808E+02 -0.53274908932E+02  0.14557672528E+03  0.15796576774E+03  0.41800000000E+01 0.  1.
         -5    1    3    3    0  502  0.78891652213E+02  0.67082235964E+01  0.13530223349E+03  0.15682174543E+03  0.41800000000E+01 0.  1.
        -11    1    1    2    0    0 -0.40496648723E+02 -0.20463211305E+02  0.42462354868E+02  0.62143166605E+02  0.00000000000E+00 0.  1.
         11    1    1    2    0    0 -0.83132396814E+01  0.67029896640E+02  0.94999136287E+02  0.11656308546E+03  0.00000000000E+00 0. -1.
</event>
<event>
 7    1  0.2732144E-009  0.9882842E+02  0.7561462E-02  0.1282779E+00
         -1   -1    0    0    0  501 -0.00000000000E+00  0.00000000000E+00  0.46115666586E+02  0.46115666586E+02  0.00000000000E+00 0. -1.
          1   -1    0    0  501    0  0.00000000000E+00 -0.00000000000E+00 -0.46633630315E+03  0.46633630315E+03  0.00000000000E+00 0.  1.
         25    2    1    2    0    0 -0.77891238761E+02  0.50939107664E+02 -0.25041496952E+03  0.29498732551E+03  0.12509207604E+03 0.  0.
          5    1    3    3  502    0 -0.60416454794E+02  0.14067538441E+02 -0.24599857518E+03  0.25373374833E+03  0.41800000000E+01 0.  1.
         -5    1    3    3    0  502 -0.17474783967E+02  0.36871569222E+02 -0.44163943353E+01  0.41253577185E+02  0.41800000000E+01 0.  1.
        -11    1    1    2    0    0  0.30401864089E+02 -0.29502755108E+02 -0.27283079419E+01  0.42451496597E+02  0.00000000000E+00 0. -1.
         11    1    1    2    0    0  0.47489374672E+02 -0.21436352556E+02 -0.16707735910E+03  0.17501314763E+03  0.00000000000E+00 0.  1.
</event>
<event>
 7    1  0.2732144E-009  0.1232498E+03  0.7561462E-02  0.1237830E+00
          2   -1    0    0  501    0  0.00000000000E+00  0.00000000000E+00  0.24803155845E+03  0.24803155845E+03  0.00000000000E+00 0. -1.
         -2   -1    0    0    0  501 -0.00000000000E+00 -0.00000000000E+00 -0.68179398359E+02  0.68179398359E+02  0.00000000000E+00 0.  1.
         25    2    1    2    0    0  0.43082278823E+02 -0.53850098983E+02  0.73039692630E+02  0.16043106590E+03  0.12508962505E+03 0.  0.
          5    1    3    3  502    0 -0.38909996166E+02 -0.26714549787E+02  0.21620086116E+00  0.47383268300E+02  0.41800000000E+01 0.  1.
         -5    1    3    3    0  502  0.81992274989E+02 -0.27135549197E+02  0.72823491769E+02  0.11304779760E+03  0.41800000000E+01 0.  1.
        -11    1    1    2    0    0 -0.35807177695E+02 -0.18245761384E+02  0.46853133978E+02  0.61727448890E+02  0.00000000000E+00 0.  1.
         11    1    1    2    0    0 -0.72751011282E+01  0.72095860367E+02  0.59959333482E+02  0.94052442021E+02  0.00000000000E+00 0. -1.
</event>
<event>
 7    1  0.2732144E-009  0.1896315E+03  0.7561462E-02  0.1158794E+00
          1   -1    0    0  501    0  0.00000000000E+00  0.00000000000E+00  0.13212638551E+04  0.13212638551E+04  0.00000000000E+00 0. -1.
         -1   -1    0    0    0  501 -0.00000000000E+00 -0.00000000000E+00 -0.31739992214E+02  0.31739992214E+02  0.00000000000E+00 0.  1.
         25    2    1    2    0    0  0.11194348280E+03  0.12195681913E+03  0.85022487929E+03  0.87517694567E+03  0.12509009469E+03 0.  0.
          5    1    3    3  502    0  0.12876542069E+03  0.58828918015E+02  0.60602905599E+03  0.62235846927E+03  0.41800000000E+01 0.  1.
         -5    1    3    3    0  502 -0.16821937890E+02  0.63127901114E+02  0.24419582330E+03  0.25281847640E+03  0.41800000000E+01 0.  1.
        -11    1    1    2    0    0 -0.53766119779E+02 -0.25454908355E+02  0.25469375515E+03  0.26154857467E+03  0.00000000000E+00 0.  1.
         11    1    1    2    0    0 -0.58177363021E+02 -0.96501910775E+02  0.18460522840E+03  0.21627832694E+03  0.00000000000E+00 0. -1.
</event>
<event>
 7    1  0.2732144E-009  0.1575833E+03  0.7561462E-02  0.1191453E+00
         -2   -1    0    0    0  501 -0.00000000000E+00  0.00000000000E+00  0.27523119977E+02  0.27523119977E+02  0.00000000000E+00 0.  1.
          2   -1    0    0  501    0  0.00000000000E+00 -0.00000000000E+00 -0.96525139114E+03  0.96525139114E+03  0.00000000000E+00 0. -1.
         25    2    1    2    0    0 -0.10861263200E+03  0.47666712022E+02 -0.49365744979E+03  0.52289118427E+03  0.12509473848E+03 0.  0.
          5    1    3    3  502    0 -0.11632590180E+03  0.78453963402E+02 -0.40074718183E+03  0.42462043751E+03  0.41800000000E+01 0. -1.
         -5    1    3    3    0  502  0.77132697955E+01 -0.30787251380E+02 -0.92910267958E+02  0.98270746769E+02  0.41800000000E+01 0. -1.
        -11    1    1    2    0    0  0.29500155004E+02 -0.55936119874E+02 -0.11402135429E+03  0.13038396330E+03  0.00000000000E+00 0.  1.
         11    1    1    2    0    0  0.79112476998E+02  0.82694078519E+01 -0.33004946708E+03  0.33949936354E+03  0.00000000000E+00 0. -1.
</event>
<event>
 7    1  0.2732144E-009  0.9636228E+02  0.7561462E-02  0.1288137E+00
         -1   -1    0    0    0  501 -0.00000000000E+00  0.00000000000E+00  0.55018817799E+02  0.55018817799E+02  0.00000000000E+00 0.  1.
          1   -1    0    0  501    0  0.00000000000E+00 -0.00000000000E+00 -0.31189433291E+03  0.31189433291E+03  0.00000000000E+00 0. -1.
         25    2    1    2    0    0  0.62259089386E+02 -0.30150590236E+02 -0.17787335704E+03  0.22819520244E+03  0.12509543146E+03 0.  0.
          5    1    3    3  502    0  0.79119008751E+02 -0.12001661237E+02 -0.18539460754E+03  0.20197150869E+03  0.41800000000E+01 0.  1.
         -5    1    3    3    0  502 -0.16859919365E+02 -0.18148928999E+02  0.75212505032E+01  0.26223693751E+02  0.41800000000E+01 0.  1.
        -11    1    1    2    0    0 -0.48118129749E+02  0.45762999300E+02 -0.92375639705E+02  0.11376671449E+03  0.00000000000E+00 0. -1.
         11    1    1    2    0    0 -0.14140959637E+02 -0.15612409064E+02  0.13373481627E+02  0.24951233778E+02  0.00000000000E+00 0.  1.
</event>
<event>
 7    1  0.2732144E-009  0.1189001E+03  0.7561462E-02  0.1244923E+00
         -2   -1    0    0    0  501 -0.00000000000E+00  0.00000000000E+00  0.12278529878E+03  0.12278529878E+03  0.00000000000E+00 0. -1.
          2   -1    0    0  501    0  0.00000000000E+00 -0.00000000000E+00 -0.14727843954E+03  0.14727843954E+03  0.00000000000E+00 0.  1.
         25    2    1    2    0    0  0.55307353872E+02  0.40588227506E+02  0.26010165766E+02  0.14501878290E+03  0.12509041156E+03 0.  0.
          5    1    3    3  502    0  0.23653187324E+02  0.74776407342E+02 -0.18236445176E+02  0.80628932141E+02  0.41800000000E+01 0.  1.
         -5    1    3    3    0  502  0.31654166548E+02 -0.34188179837E+02  0.44246610941E+02  0.64389850754E+02  0.41800000000E+01 0.  1.
        -11    1    1    2    0    0 -0.49965079522E+02 -0.68095572275E+02 -0.27602959010E+02  0.88856285547E+02  0.00000000000E+00 0. -1.
         11    1    1    2    0    0 -0.53422743495E+01  0.27507344769E+02 -0.22900347510E+02  0.36188669878E+02  0.00000000000E+00 0.  1.
</event>
<event>
 7    1  0.2732144E-009  0.8812072E+02  0.7561462E-02  0.1307468E+00
         -2   -1    0    0    0  501 -0.00000000000E+00  0.00000000000E+00  0.17298483885E+02  0.17298483885E+02  0.00000000000E+00 0.  1.
          2   -1    0    0  501    0  0.00000000000E+00 -0.00000000000E+00 -0.73462023003E+03  0.73462023003E+03  0.00000000000E+00 0. -1.
         25    2    1    2    0    0  0.50844647469E+01 -0.14159377642E+02 -0.51185769925E+03  0.52713691853E+03  0.12509471146E+03 0.  0.
          5    1    3    3  502    0  0.37730406414E+02  0.28334681537E+02 -0.88492739878E+02  0.10037367761E+03  0.41800000000E+01 0. -1.
         -5    1    3    3    0  502 -0.32645941667E+02 -0.42494059179E+02 -0.42336495937E+03  0.42676324092E+03  0.41800000000E+01 0. -1.
        -11    1    1    2    0    0  0.31048715360E+02  0.22120272495E+02 -0.40101481427E+02  0.55330443640E+02  0.00000000000E+00 0.  1.
         11    1    1    2    0    0 -0.36133180106E+02 -0.79608948525E+01 -0.16536256547E+03  0.16945135175E+03  0.00000000000E+00 0. -1.
</event>
<event>
 7    1  0.2732144E-009  0.1196738E+03  0.7561462E-02  0.1243636E+00
         -2   -1    0    0    0  501 -0.00000000000E+00  0.00000000000E+00  0.37180122739E+02  0.37180122739E+02  0.00000000000E+00 0.  1.
          2   -1    0    0  501    0  0.00000000000E+00 -0.00000000000E+00 -0.62354812039E+03  0.62354812039E+03  0.00000000000E+00 0. -1.
         25    2    1    2    0    0 -0.57360503239E+02 -0.92284644849E+02 -0.25312207163E+03  0.30253137707E+03  0.12509103870E+03 0.  0.
          5    1    3    3  502    0 -0.44500609186E+02 -0.48471765590E+02 -0.24774077888E+03  0.25636454942E+03  0.41800000000E+01 0.  1.
         -5    1    3    3    0  502 -0.12859894053E+02 -0.43812879259E+02 -0.53812927426E+01  0.46166827654E+02  0.41800000000E+01 0.  1.
        -11    1    1    2    0    0  0.61917140282E+02  0.37083953322E+02 -0.14496131610E+03  0.16193435404E+03  0.00000000000E+00 0. -1.
         11    1    1    2    0    0 -0.45566370432E+01  0.55200691527E+02 -0.18828460993E+03  0.19626251201E+03  0.00000000000E+00 0.  1.
</event>
<event>
 7    1  0.2732144E-009  0.2305329E+03  0.7561462E-02  0.1126265E+00
          3   -1    0    0  501    0  0.00000000000E+00  0.00000000000E+00  0.45349985313E+03  0.45349985313E+03  0.00000000000E+00 0. -1.
         -3   -1    0    0    0  501 -0.00000000000E+00 -0.00000000000E+00 -0.16081952254E+03  0.16081952254E+03  0.00000000000E+00 0.  1.
         25    2    1    2    0    0 -0.21861156912E+03 -0.40870217774E+02  0.28706274525E+02  0.25677456829E+03  0.12509091041E+03 0.  0.
          5    1    3    3  502    0 -0.10107446046E+03 -0.61347828548E+02 -0.32397293353E+02  0.12266482642E+03  0.41800000000E+01 0. -1.
         -5    1    3    3    0  502 -0.11753710866E+03  0.20477610774E+02  0.61103567878E+02  0.13410974186E+03  0.41800000000E+01 0. -1.
        -11    1    1    2    0    0  0.88599213680E+02  0.61779791356E+01  0.42647286170E+02  0.98522987717E+02  0.00000000000E+00 0.  1.
         11    1    1    2    0    0  0.13001235544E+03  0.34692238638E+02  0.22132676989E+03  0.25902181966E+03  0.00000000000E+00 0. -1.
</event>
<event>
 7    1  0.2732144E-009  0.1643190E+03  0.7561462E-02  0.1183905E+00
          1   -1    0    0  501    0  0.00000000000E+00  0.00000000000E+00  0.15267209781E+04  0.15267209781E+04  0.00000000000E+00 0. -1.
         -1   -1    0    0    0  501 -0.00000000000E+00 -0.00000000000E+00 -0.19202896053E+02  0.19202896053E+02  0.00000000000E+00 0.  1.
         25    2    1    2    0    0  0.41177668933E+02  0.11763483498E+03  0.10044058060E+04  0.10198093790E+04  0.12508633648E+03 0.  0.
          5    1    3    3  502    0 -0.22694362659E+02  0.10806345916E+03  0.57042339080E+03  0.58102759183E+03  0.41800000000E+01 0.  1.
         -5    1    3    3    0  502  0.63872031591E+02  0.95713758183E+01  0.43398241523E+03  0.43878178721E+03  0.41800000000E+01 0.  1.
        -11    1    1    2    0    0  0.21359680223E+02 -0.74361518380E+02  0.27375305130E+03  0.28447601736E+03  0.00000000000E+00 0. -1.
         11    1    1    2    0    0 -0.62537349155E+02 -0.43273316597E+02  0.22935922468E+03  0.24163847772E+03  0.00000000000E+00 0.  1.
</event>
<event>
 7    1  0.2732144E-009  0.1800880E+03  0.7561462E-02  0.1167718E+00
         -1   -1    0    0    0  501 -0.00000000000E+00  0.00000000000E+00  0.11026101746E+03  0.11026101746E+03  0.00000000000E+00 0.  1.
          1   -1    0    0  501    0  0.00000000000E+00 -0.00000000000E+00 -0.36893347605E+03  0.36893347605E+03  0.00000000000E+00 0. -1.
         25    2    1    2    0    0 -0.11654741527E+03 -0.92163773256E+02 -0.23210408347E+03  0.30265002775E+03  0.12508905878E+03 0.  0.
          5    1    3    3  502    0  0.19576137294E+02 -0.30006943461E+02 -0.15295641750E+02  0.39179980395E+02  0.41800000000E+01 0.  1.
         -5    1    3    3    0  502 -0.13612355256E+03 -0.62156829795E+02 -0.21680844172E+03  0.26347004735E+03  0.41800000000E+01 0.  1.
        -11    1    1    2    0    0  0.63384291526E+02 -0.50682450554E+01 -0.12976061588E+02  0.64897100818E+02  0.00000000000E+00 0.  1.
         11    1    1    2    0    0  0.53163123739E+02  0.97232018311E+02 -0.13592313533E+02  0.11164736494E+03  0.00000000000E+00 0. -1.
</event>
<event>
 7    1  0.2732144E-009  0.2271221E+03  0.7561462E-02  0.1128682E+00
          2   -1    0    0  501    0  0.00000000000E+00  0.00000000000E+00  0.11178581458E+04  0.11178581458E+04  0.00000000000E+00 0. -1.
         -2   -1    0    0    0  501 -0.00000000000E+00 -0.00000000000E+00 -0.10994675884E+03  0.10994675884E+03  0.00000000000E+00 0.  1.
         25    2    1    2    0    0 -0.16118280426E+03  0.15675480909E+03  0.94138958656E+03  0.97591705414E+03  0.12509107210E+03 0.  0.
          5    1    3    3  502    0 -0.91402020430E+02  0.89703515293E+02  0.75565134084E+03  0.76643817188E+03  0.41800000000E+01 0. -1.
         -5    1    3    3    0  502 -0.69780783834E+02  0.67051293796E+02  0.18573824572E+03  0.20947888226E+03  0.41800000000E+01 0. -1.
        -11    1    1    2    0    0  0.15798978059E+03 -0.13664782526E+03  0.31317704883E+02  0.21122073184E+03  0.00000000000E+00 0.  1.
         11    1    1    2    0    0  0.31930236768E+01 -0.20106983830E+02  0.35204095474E+02  0.40667118622E+02  0.00000000000E+00 0. -1.
</event>
<event>
 7    1  0.2732144E-009  0.1051629E+03  0.7561462E-02  0.1269799E+00
          4   -1    0    0  501    0  0.00000000000E+00  0.00000000000E+00  0.14978050506E+03  0.14978050506E+03  0.00000000000E+00 0. -1.
         -4   -1    0    0    0  501 -0.00000000000E+00 -0.00000000000E+00 -0.14205237698E+03  0.14205237698E+03  0.00000000000E+00 0.  1.
         25    2    1    2    0    0 -0.55882875195E+02 -0.33828028410E+02  0.84511949375E+02  0.16448996756E+03  0.12508976215E+03 0.  0.
          5    1    3    3  502    0  0.18075565676E+02  0.12971962456E+02 -0.18512511390E+02  0.29243518298E+02  0.41800000000E+01 0.  1.
         -5    1    3    3    0  502 -0.73958440871E+02 -0.46799990866E+02  0.10302446077E+03  0.13524644926E+03  0.41800000000E+01 0.  1.
        -11    1    1    2    0    0  0.74213135103E+02  0.34240822824E+02 -0.70574515279E+02  0.10798511738E+03  0.00000000000E+00 0.  1.
         11    1    1    2    0    0 -0.18330259909E+02 -0.41279441424E+00 -0.62093060180E+01  0.19357797106E+02  0.00000000000E+00 0. -1.
</event>
<event>
 7    1  0.2732144E-009  0.1157959E+03  0.7561462E-02  0.1250198E+00
         -1   -1    0    0    0  501 -0.00000000000E+00  0.00000000000E+00  0.22324828916E+03  0.22324828916E+03  0.00000000000E+00 0.  1.
          1   -1    0    0  501    0  0.00000000000E+00 -0.00000000000E+00 -0.87474509277E+02  0.87474509277E+02  0.00000000000E+00 0. -1.
         25    2    1    2    0    0 -0.13517575046E+02  0.84988007073E+02  0.72665855940E+02  0.16832708232E+03  0.12509194155E+03 0.  0.
          5    1    3    3  502    0 -0.58235302720E+02  0.18644960436E+02  0.62554296950E+02  0.87575667279E+02  0.41800000000E+01 0.  1.
         -5    1    3    3    0  502  0.44717727674E+02  0.66343046637E+02  0.10111558990E+02  0.80751415038E+02  0.41800000000E+01 0.  1.
        -11    1    1    2    0    0  0.19334866969E+02 -0.36087010476E+02 -0.20175786673E+02  0.45641776627E+02  0.00000000000E+00 0. -1.
         11    1    1    2    0    0 -0.58172919229E+01 -0.48900996596E+02  0.83283710613E+02  0.96753939490E+02  0.00000000000E+00 0.  1.
</event>
<event>
 7    1  0.2732144E-009  0.1192546E+03  0.7561462E-02  0.1244332E+00
         -2   -1    0    0    0  501 -0.00000000000E+00  0.00000000000E+00  0.46461413879E+03  0.46461413879E+03  0.00000000000E+00 0.  1.
          2   -1    0    0  501    0  0.00000000000E+00 -0.00000000000E+00 -0.40671247936E+02  0.40671247936E+02  0.00000000000E+00 0. -1.
         25    2    1    2    0    0  0.77811804753E+02  0.29155976230E+02  0.25309738645E+03  0.29429913121E+03  0.12509573810E+03 0.  0.
          5    1    3    3  502    0  0.16835391638E+02 -0.38722054704E+02  0.26602026100E+02  0.50079617857E+02  0.41800000000E+01 0.  1.
         -5    1    3    3    0  502  0.60976413115E+02  0.67878030933E+02  0.22649536035E+03  0.24421951335E+03  0.41800000000E+01 0.  1.
        -11    1    1    2    0    0 -0.73251231552E+02  0.19729417592E+01  0.56894481046E+02  0.92771856705E+02  0.00000000000E+00 0. -1.
         11    1    1    2    0    0 -0.45605732006E+01 -0.31128917989E+02  0.11395102336E+03  0.11821439881E+03  0.00000000000E+00 0.  1.
</event>
<event>
 7    1  0.2732144E-009  0.1172085E+03  0.7561462E-02  0.1247775E+00
          1   -1    0    0  501    0  0.00000000000E+00  0.00000000000E+00  0.21127018649E+03  0.21127018649E+03  0.00000000000E+00 0. -1.
         -1   -1    0    0    0  501 -0.00000000000E+00 -0.00000000000E+00 -0.69356696893E+02  0.69356696893E+02  0.00000000000E+00 0.  1.
         25    2    1    2    0    0 -0.21300803211E+02  0.48822537306E+02  0.96430495454E+02  0.16668392577E+03  0.12508927328E+03 0.  0.
          5    1    3    3  502    0 -0.61824796492E+02 -0.56567198381E+01  0.22370312792E+02  0.66122668087E+02  0.41800000000E+01 0. -1.
         -5    1    3    3    0  502  0.40523993281E+02  0.54479257144E+02  0.74060182662E+02  0.10056125768E+03  0.41800000000E+01 0. -1.
        -11    1    1    2    0    0  0.14968045577E+02  0.25503331813E+02  0.90436252822E+01  0.30923283788E+02  0.00000000000E+00 0.  1.
         11    1    1    2    0    0  0.63327576339E+01 -0.74325869119E+02  0.36439368860E+02  0.83019673828E+02  0.00000000000E+00 0. -1.
</event>
<event>
 7    1  0.2732144E-009  0.7604396E+02  0.7561462E-02  0.1340668E+00
         -1   -1    0    0    0  501 -0.00000000000E+00  0.00000000000E+00  0.15834379412E+02  0.15834379412E+02  0.00000000000E+00 0.  1.
          1   -1    0    0  501    0  0.00000000000E+00 -0.00000000000E+00 -0.17171544018E+04  0.17171544018E+04  0.00000000000E+00 0. -1.
         25    2    1    2    0    0 -0.18065180401E+02  0.50212898852E+02 -0.14764304489E+04  0.14826805799E+04  0.12508855038E+03 0.  0.
          5    1    3    3  502    0  0.14110445883E+01  0.56499154674E+02 -0.14364935456E+04  0.14376109782E+04  0.41800000000E+01 0.  1.
         -5    1    3    3    0  502 -0.19476224989E+02 -0.62862558217E+01 -0.39936903330E+02  0.45069601726E+02  0.41800000000E+01 0.  1.
        -11    1    1    2    0    0  0.31145205347E+02 -0.10739845216E+02 -0.14754232611E+02  0.36097859650E+02  0.00000000000E+00 0.  1.
         11    1    1    2    0    0 -0.13080024946E+02 -0.39473053636E+02 -0.21013534086E+03  0.21421034171E+03  0.00000000000E+00 0. -1.
</event>
<event>
 7    1  0.2732144E-009  0.9159802E+02  0.7561462E-02  0.1299027E+00
          3   -1    0    0  501    0  0.00000000000E+00  0.00000000000E+00  0.98863216626E+02  0.98863216626E+02  0.00000000000E+00 0. -1.
         -3   -1    0    0    0  501 -0.00000000000E+00 -0.00000000000E+00 -0.13584088248E+03  0.13584088248E+03  0.00000000000E+00 0.  1.
         25    2    1    2    0    0 -0.71032661989E+01  0.24958357304E+02  0.10314421342E+02  0.12816630870E+03  0.12508732713E+03 0.  0.
          5    1    3    3  502    0 -0.54014046102E+02  0.45903970261E+02 -0.11971888126E+02  0.72010347641E+02  0.41800000000E+01 0.  1.
         -5    1    3    3    0  502  0.46910779903E+02 -0.20945612958E+02  0.22286309468E+02  0.56155961064E+02  0.41800000000E+01 0.  1.
        -11    1    1    2    0    0  0.25927862970E+02 -0.31423878334E+02 -0.67073050077E+02  0.78476163606E+02  0.00000000000E+00 0.  1.
         11    1    1    2    0    0 -0.18824596771E+02  0.64655210299E+01  0.19780962883E+02  0.28061626794E+02  0.00000000000E+00 0. -1.
</event>
<event>
 7    1  0.2732144E-009  0.6769743E+02  0.7561462E-02  0.1368103E+00
         -1   -1    0    0    0  501 -0.00000000000E+00  0.00000000000E+00  0.11516592540E+03  0.11516592540E+03  0.00000000000E+00 0.  1.
          1   -1    0    0  501    0  0.00000000000E+00 -0.00000000000E+00 -0.14411077763E+03  0.14411077763E+03  0.00000000000E+00 0. -1.
         25    2    1    2    0    0  0.19901669140E+02  0.30372713158E+02 -0.71126474022E+02  0.14840782300E+03  0.12508928205E+03 0.  0.
          5    1    3    3  502    0  0.19612298312E+02  0.20103745116E+02  0.33089906211E+02  0.43602948361E+02  0.41800000000E+01 0. -1.
         -5    1    3    3    0  502  0.28937082805E+00  0.10268968042E+02 -0.10421638023E+03  0.10480487464E+03  0.41800000000E+01 0. -1.
        -11    1    1    2    0    0 -0.38899216733E+02  0.18792705291E+02 -0.25320467190E+00  0.43201608155E+02  0.00000000000E+00 0. -1.
         11    1    1    2    0    0  0.18997547593E+02 -0.49165418449E+02  0.42434826460E+02  0.67667271871E+02  0.00000000000E+00 0.  1.
</event>
<event>
 7    1  0.2732144E-009  0.8841578E+02  0.7561462E-02  0.1306734E+00
          1   -1    0    0  501    0  0.00000000000E+00  0.00000000000E+00  0.32530617919E+03  0.32530617919E+03  0.00000000000E+00 0. -1.
         -1   -1    0    0    0  501 -0.00000000000E+00 -0.00000000000E+00 -0.46723771508E+02  0.46723771508E+02  0.00000000000E+00 0.  1.
         25    2    1    2    0    0 -0.48243478843E+02 -0.18958276364E+02  0.19285788638E+03  0.23564647179E+03  0.12509294878E+03 0.  0.
          5    1    3    3  502    0 -0.18976212742E+02  0.18171772879E+02  0.18576092046E+03  0.18765634002E+03  0.41800000000E+01 0. -1.
         -5    1    3    3    0  502 -0.29267266101E+02 -0.37130049242E+02  0.70969659211E+01  0.47990131768E+02  0.41800000000E+01 0. -1.
        -11    1    1    2    0    0  0.38352574120E+02  0.54067606546E+02  0.70752544587E+02  0.96954363413E+02  0.00000000000E+00 0. -1.
         11    1    1    2    0    0  0.98909047226E+01 -0.35109330183E+02  0.14971976714E+02  0.39429115496E+02  0.00000000000E+00 0.  1.
</event>
<event>
 7    1  0.2732144E-009  0.1416072E+03  0.7561462E-02  0.1211183E+00
         -2   -1    0    0    0  501 -0.00000000000E+00  0.00000000000E+00  0.58981682318E+02  0.58981682318E+02  0.00000000000E+00 0.  1.
          2   -1    0    0  501    0  0.00000000000E+00 -0.00000000000E+00 -0.36369887722E+03  0.36369887722E+03  0.00000000000E+00 0. -1.
         25    2    1    2    0    0  0.20089071432E+02 -0.91316100840E+02 -0.20728318511E+03  0.25953061672E+03  0.12509045177E+03 0.  0.
          5    1    3    3  502    0  0.71184484505E+02 -0.42677065611E+02 -0.13436548909E+03  0.15798772048E+03  0.41800000000E+01 0.  1.
         -5    1    3    3    0  502 -0.51095413073E+02 -0.48639035229E+02 -0.72917696022E+02  0.10154289625E+03  0.41800000000E+01 0.  1.
        -11    1    1    2    0    0 -0.55655886936E+01 -0.18167604535E+02 -0.64796160971E+01  0.20075434162E+02  0.00000000000E+00 0.  1.
         11    1    1    2    0    0 -0.14523482739E+02  0.10948370537E+03 -0.90954393690E+02  0.14307450865E+03  0.00000000000E+00 0. -1.
</event>
<event>
 7    1  0.2732144E-009  0.9048182E+02  0.7561462E-02  0.1301689E+00
          2   -1    0    0  501    0  0.00000000000E+00  0.00000000000E+00  0.32631073657E+03  0.32631073657E+03  0.00000000000E+00 0.  1.
         -2   -1    0    0    0  501 -0.00000000000E+00 -0.00000000000E+00 -0.33388772025E+02  0.33388772025E+02  0.00000000000E+00 0. -1.
         25    2    1    2    0    0 -0.19924499168E+02 -0.37549960389E+02  0.19977200205E+03  0.23950826507E+03  0.12509344923E+03 0.  0.
          5    1    3    3  502    0 -0.58747854537E+02 -0.58875126136E+02  0.99109238566E+02  0.12945155256E+03  0.41800000000E+01 0.  1.
         -5    1    3    3    0  502  0.38823355369E+02  0.21325165746E+02  0.10066276349E+03  0.11005671251E+03  0.41800000000E+01 0.  1.
        -11    1    1    2    0    0  0.23967390046E+02  0.11056002913E+02  0.35055295465E+01  0.26626297592E+02  0.00000000000E+00 0. -1.
         11    1    1    2    0    0 -0.40428908784E+01  0.26493957476E+02  0.89644432948E+02  0.93564945935E+02  0.00000000000E+00 0.  1.
</event>
<event>
 7    1  0.2732144E-009  0.2094000E+03  0.7561462E-02  0.1142042E+00
         -2   -1    0    0    0  501 -0.00000000000E+00  0.00000000000E+00  0.55972687312E+02  0.55972687312E+02  0.00000000000E+00 0.  1.
          2   -1    0    0  501    0  0.00000000000E+00 -0.00000000000E+00 -0.98755346491E+03  0.98755346491E+03  0.00000000000E+00 0. -1.
         25    2    1    2    0    0 -0.19910307975E+03 -0.58437753535E+02 -0.51234949926E+03  0.56675008422E+03  0.12508653471E+03 0.  0.
          5    1    3    3  502    0 -0.53532187392E+02 -0.14955194018E+02 -0.35064723334E+02  0.65851045076E+02  0.41800000000E+01 0.  1.
         -5    1    3    3    0  502 -0.14557089236E+03 -0.43482559517E+02 -0.47728477593E+03  0.50089903915E+03  0.41800000000E+01 0.  1.
        -11    1    1    2    0    0  0.15586919376E+03  0.28406408972E+02 -0.22264238481E+03  0.27326134221E+03  0.00000000000E+00 0.  1.
         11    1    1    2    0    0  0.43233885991E+02  0.30031344563E+02 -0.19658889352E+03  0.20351472578E+03  0.00000000000E+00 0. -1.
</event>
<event>
 7    1  0.2732144E-009  0.1919596E+03  0.7561462E-02  0.1156706E+00
         -1   -1    0    0    0  501 -0.00000000000E+00  0.00000000000E+00  0.14756415474E+03  0.14756415474E+03  0.00000000000E+00 0.  1.
          1   -1    0    0  501    0  0.00000000000E+00 -0.00000000000E+00 -0.38052824589E+03  0.38052824589E+03  0.00000000000E+00 0. -1.
         25    2    1    2    0    0 -0.16738047372E+03  0.38203446211E+02 -0.25683723030E+03  0.33329991033E+03  0.12509093123E+03 0.  0.
          5    1    3    3  502    0 -0.96450470996E+02 -0.33307585665E+02 -0.79927700122E+02  0.12968422520E+03  0.41800000000E+01 0.  1.
         -5    1    3    3    0  502 -0.70930002720E+02  0.71511031875E+02 -0.17690953018E+03  0.20361568514E+03  0.41800000000E+01 0.  1.
        -11    1    1    2    0    0  0.62680360577E+02 -0.43266431552E+02  0.44139277452E+02  0.88028901591E+02  0.00000000000E+00 0.  1.
         11    1    1    2    0    0  0.10470011314E+03  0.50629853410E+01 -0.20266138292E+02  0.10676358870E+03  0.00000000000E+00 0. -1.
</event>
<event>
 7    1  0.2732144E-009  0.1208896E+03  0.7561462E-02  0.1241637E+00
         -1   -1    0    0    0  501 -0.00000000000E+00  0.00000000000E+00  0.37090793054E+02  0.37090793054E+02  0.00000000000E+00 0.  1.
          1   -1    0    0  501    0  0.00000000000E+00 -0.00000000000E+00 -0.46612506600E+03  0.46612506600E+03  0.00000000000E+00 0. -1.
         25    2    1    2    0    0 -0.54296711616E+02  0.35463827124E+02 -0.30635706798E+03  0.33720948435E+03  0.12509903000E+03 0.  0.
          5    1    3    3  502    0 -0.29017098577E+02 -0.40427564516E+02 -0.59485710633E+02  0.77668540298E+02  0.41800000000E+01 0. -1.
         -5    1    3    3    0  502 -0.25279613039E+02  0.75891391640E+02 -0.24687135735E+03  0.25954094405E+03  0.41800000000E+01 0. -1.
        -11    1    1    2    0    0  0.44422118082E+02  0.24662271753E+02 -0.52288253179E+02  0.72908254974E+02  0.00000000000E+00 0.  1.
         11    1    1    2    0    0  0.98745935338E+01 -0.60126098877E+02 -0.70388951784E+02  0.93098119728E+02  0.00000000000E+00 0. -1.
</event>
<event>
 7    1  0.2732144E-009  0.1044892E+03  0.7561462E-02  0.1271129E+00
         -2   -1    0    0    0  501 -0.00000000000E+00  0.00000000000E+00  0.22138859544E+02  0.22138859544E+02  0.00000000000E+00 0.  1.
          2   -1    0    0  501    0  0.00000000000E+00 -0.00000000000E+00 -0.53779702225E+03  0.53779702225E+03  0.00000000000E+00 0. -1.
         25    2    1    2    0    0  0.13859250005E+02  0.69077341175E+01 -0.25732864200E+03  0.28654366666E+03  0.12509775100E+03 0.  0.
          5    1    3    3  502    0  0.63708266847E+02 -0.19471062839E+02 -0.16851652235E+03  0.18125439652E+03  0.41800000000E+01 0.  1.
         -5    1    3    3    0  502 -0.49849016843E+02  0.26378796957E+02 -0.88812119655E+02  0.10528927014E+03  0.41800000000E+01 0.  1.
        -11    1    1    2    0    0 -0.16860163082E+02  0.37527322644E+02 -0.85006194464E+02  0.94438435720E+02  0.00000000000E+00 0.  1.
         11    1    1    2    0    0  0.30009130776E+01 -0.44435056762E+02 -0.17332332624E+03  0.17895377942E+03  0.00000000000E+00 0. -1.
</event>
<event>
 7    1  0.2732144E-009  0.1551482E+03  0.7561462E-02  0.1194286E+00
          1   -1    0    0  501    0  0.00000000000E+00  0.00000000000E+00  0.35741270778E+03  0.35741270778E+03  0.00000000000E+00 0. -1.
         -1   -1    0    0    0  501 -0.00000000000E+00 -0.00000000000E+00 -0.99274632744E+02  0.99274632744E+02  0.00000000000E+00 0.  1.
         25    2    1    2    0    0 -0.11551425149E+03  0.98868331983E+02  0.15042436820E+03  0.24777748252E+03  0.12509077077E+03 0.  0.
          5    1    3    3  502    0 -0.83955994804E+02  0.93624615924E+02  0.16888732779E+03  0.21060526978E+03  0.41800000000E+01 0. -1.
         -5    1    3    3    0  502 -0.31558256682E+02  0.52437160595E+01 -0.18462959596E+02  0.37172212739E+02  0.41800000000E+01 0. -1.
        -11    1    1    2    0    0  0.96564413447E+02 -0.85951474141E+02  0.36847167898E+02  0.13442490704E+03  0.00000000000E+00 0.  1.
         11    1    1    2    0    0  0.18949838039E+02 -0.12916857842E+02  0.70866538938E+02  0.74484950958E+02  0.00000000000E+00 0. -1.
</event>
<event>
 7    1  0.2732144E-009  0.1739478E+03  0.7561462E-02  0.1173792E+00
          1   -1    0    0  501    0  0.00000000000E+00  0.00000000000E+00  0.28145994918E+03  0.28145994918E+03  0.00000000000E+00 0. -1.
         -1   -1    0    0    0  501 -0.00000000000E+00 -0.00000000000E+00 -0.12754682260E+03  0.12754682260E+03  0.00000000000E+00 0.  1.
         25    2    1    2    0    0  0.14775757483E+03  0.31893041368E+02  0.12039476815E+03  0.23020098874E+03  0.12509247784E+03 0.  0.
          5    1    3    3  502    0  0.14455029501E+03  0.63435027497E+02  0.11980630538E+03  0.19821658283E+03  0.41800000000E+01 0.  1.
         -5    1    3    3    0  502  0.32072798211E+01 -0.31541986129E+02  0.58846276942E+00  0.31984405907E+02  0.41800000000E+01 0.  1.
        -11    1    1    2    0    0 -0.24645849260E+02 -0.24374732504E+02 -0.24552679751E+02  0.42477989046E+02  0.00000000000E+00 0.  1.
         11    1    1    2    0    0 -0.12311172557E+03 -0.75183088638E+01  0.58071038179E+02  0.13632779400E+03  0.00000000000E+00 0. -1.
</event>
<event>
 7    1  0.2732144E-009  0.9434586E+02  0.7561462E-02  0.1292656E+00
         -1   -1    0    0    0  501 -0.00000000000E+00  0.00000000000E+00  0.27305282138E+03  0.27305282138E+03  0.00000000000E+00 0.  1.
          1   -1    0    0  501    0  0.00000000000E+00 -0.00000000000E+00 -0.57743884420E+02  0.57743884420E+02  0.00000000000E+00 0. -1.
         25    2    1    2    0    0 -0.26374532899E+02  0.54286200730E+02  0.91813976825E+02  0.16649421403E+03  0.12509160400E+03 0.  0.
          5    1    3    3  502    0 -0.46317197554E+02  0.67313467435E+02  0.10938702017E+03  0.13659933481E+03  0.41800000000E+01 0.  1.
         -5    1    3    3    0  502  0.19942664655E+02 -0.13027266705E+02 -0.17573043349E+02  0.29894879225E+02  0.41800000000E+01 0.  1.
        -11    1    1    2    0    0  0.36816626888E+02 -0.60292771289E+02  0.13189072032E+03  0.14961899743E+03  0.00000000000E+00 0.  1.
         11    1    1    2    0    0 -0.10442093989E+02  0.60065705587E+01 -0.83957601883E+01  0.14683494335E+02  0.00000000000E+00 0. -1.
</event>
<event>
 7    1  0.2732144E-009  0.1101953E+03  0.7561462E-02  0.1260209E+00
         -2   -1    0    0    0  501 -0.00000000000E+00  0.00000000000E+00  0.38464193190E+02  0.38464193190E+02  0.00000000000E+00 0.  1.
          2   -1    0    0  501    0  0.00000000000E+00 -0.00000000000E+00 -0.34369562270E+03  0.34369562270E+03  0.00000000000E+00 0. -1.
         25    2    1    2    0    0 -0.14787756334E+02  0.30155210475E+02 -0.12998095445E+03  0.18349310388E+03  0.12508659479E+03 0.  0.
          5    1    3    3  502    0  0.13699043360E+02 -0.45352228893E+02 -0.36681387840E+02  0.60062343181E+02  0.41800000000E+01 0.  1.
         -5    1    3    3    0  502 -0.28486799694E+02  0.75507439368E+02 -0.93299566607E+02  0.12343076070E+03  0.41800000000E+01 0.  1.
        -11    1    1    2    0    0 -0.92476875742E+01  0.27789655910E+02 -0.39999181450E+02  0.49575389234E+02  0.00000000000E+00 0.  1.
         11    1    1    2    0    0  0.24035443909E+02 -0.57944866385E+02 -0.13525129361E+03  0.14909132278E+03  0.00000000000E+00 0. -1.
</event>
<event>
 7    1  0.2732144E-009  0.9241905E+02  0.7561462E-02  0.1297097E+00
          3   -1    0    0  501    0  0.00000000000E+00  0.00000000000E+00  0.17097750970E+03  0.17097750970E+03  0.00000000000E+00 0. -1.
         -3   -1    0    0    0  501 -0.00000000000E+00 -0.00000000000E+00 -0.79314616811E+02  0.79314616811E+02  0.00000000000E+00 0.  1.
         25    2    1    2    0    0 -0.29260204849E+02 -0.38385628742E+02  0.73934125245E+02  0.15311788471E+03  0.12509682515E+03 0.  0.
          5    1    3    3  502    0  0.70609954137E+01  0.35866281758E+02  0.58224190241E+02  0.68875079329E+02  0.41800000000E+01 0.  1.
         -5    1    3    3    0  502 -0.36321200263E+02 -0.74251910500E+02  0.15709935004E+02  0.84242805385E+02  0.41800000000E+01 0.  1.
        -11    1    1    2    0    0 -0.95860763666E+01  0.20259644518E+02  0.42222752004E+02  0.47802791162E+02  0.00000000000E+00 0. -1.
         11    1    1    2    0    0  0.38846281216E+02  0.18125984224E+02 -0.24493984357E+02  0.49371450638E+02  0.00000000000E+00 0.  1.
</event>
<event>
 7    1  0.2732144E-009  0.1016614E+03  0.7561462E-02  0.1276841E+00
          2   -1    0    0  501    0  0.00000000000E+00  0.00000000000E+00  0.11738971848E+04  0.11738971848E+04  0.00000000000E+00 0. -1.
         -2   -1    0    0    0  501 -0.00000000000E+00 -0.00000000000E+00 -0.11766081629E+02  0.11766081629E+02  0.00000000000E+00 0.  1.
         25    2    1    2    0    0 -0.27519403028E+02  0.35244409874E+02  0.69476168917E+03  0.70734810596E+03  0.12509217515E+03 0.  0.
          5    1    3    3  502    0 -0.21517067175E+02  0.66224151213E+02  0.64163022374E+03  0.64541106189E+03  0.41800000000E+01 0. -1.
         -5    1    3    3    0  502 -0.60023358531E+01 -0.30979741339E+02  0.53131465431E+02  0.61937044069E+02  0.41800000000E+01 0. -1.
        -11    1    1    2    0    0  0.24217772049E+02  0.28786051660E+02  0.17009566668E+03  0.17420583537E+03  0.00000000000E+00 0.  1.
         11    1    1    2    0    0  0.33016309791E+01 -0.64030461534E+02  0.29727374727E+03  0.30410932506E+03  0.00000000000E+00 0. -1.
</event>
<event>
 7    1  0.2732144E-009  0.1683357E+03  0.7561462E-02  0.1179595E+00
          2   -1    0    0  501    0  0.00000000000E+00  0.00000000000E+00  0.36120052121E+03  0.36120052121E+03  0.00000000000E+00 0. -1.
         -2   -1    0    0    0  501 -0.00000000000E+00 -0.00000000000E+00 -0.11153423394E+03  0.11153423394E+03  0.00000000000E+00 0.  1.
         25    2    1    2    0    0 -0.13919847916E+03  0.41613329029E+02  0.23065488163E+03  0.29992836586E+03  0.12508982562E+03 0.  0.
          5    1    3    3  502    0  0.23588670574E+02  0.58867546874E+01  0.35972727644E+02  0.43618674835E+02  0.41800000000E+01 0.  1.
         -5    1    3    3    0  502 -0.16278714973E+03  0.35726574342E+02  0.19468215398E+03  0.25630969102E+03  0.41800000000E+01 0.  1.
        -11    1    1    2    0    0  0.53082248850E+02 -0.16350320466E+02 -0.37255753757E+02  0.66880859073E+02  0.00000000000E+00 0.  1.
         11    1    1    2    0    0  0.86116230308E+02 -0.25263008563E+02  0.56267159399E+02  0.10592553021E+03  0.00000000000E+00 0. -1.
</event>
<event>
 7    1  0.2732144E-009  0.1059454E+03  0.7561462E-02  0.1268268E+00
         -1   -1    0    0    0  501 -0.00000000000E+00  0.00000000000E+00  0.20853348601E+02  0.20853348601E+02  0.00000000000E+00 0.  1.
          1   -1    0    0  501    0  0.00000000000E+00 -0.00000000000E+00 -0.12461715329E+04  0.12461715329E+04  0.00000000000E+00 0. -1.
         25    2    1    2    0    0 -0.92718851720E+02  0.30527438743E+02 -0.92717755108E+03  0.94065630189E+03  0.12508939636E+03 0.  0.
          5    1    3    3  502    0 -0.11433272521E+02 -0.40040554862E+01 -0.42470252029E+01  0.13500437176E+02  0.41800000000E+01 0.  1.
         -5    1    3    3    0  502 -0.81285579199E+02  0.34531494229E+02 -0.92293052588E+03  0.92715586471E+03  0.41800000000E+01 0.  1.
        -11    1    1    2    0    0  0.59538653016E+02  0.77082506186E+01 -0.24782231295E+03  0.25499052360E+03  0.00000000000E+00 0. -1.
         11    1    1    2    0    0  0.33180198704E+02 -0.38235689362E+02 -0.50318320318E+02  0.71378056058E+02  0.00000000000E+00 0.  1.
</event>
<event>
 7    1  0.2732144E-009  0.6890968E+02  0.7561462E-02  0.1363840E+00
         -2   -1    0    0    0  501 -0.00000000000E+00  0.00000000000E+00  0.45984944469E+02  0.45984944469E+02  0.00000000000E+00 0.  1.
          2   -1    0    0  501    0  0.00000000000E+00 -0.00000000000E+00 -0.34765362057E+03  0.34765362057E+03  0.00000000000E+00 0. -1.
         25    2    1    2    0    0  0.63642338102E+01  0.17266654713E+02 -0.26310750664E+03  0.29191059159E+03  0.12509033772E+03 0.  0.
          5    1    3    3  502    0  0.29839998095E+02  0.83879955808E+01 -0.39712994831E+01  0.31528202863E+02  0.41800000000E+01 0. -1.
         -5    1    3    3    0  502 -0.23475764285E+02  0.88786591320E+01 -0.25913620716E+03  0.26038238872E+03  0.41800000000E+01 0. -1.
        -11    1    1    2    0    0 -0.40003649508E+02 -0.24196517219E+02  0.41319676739E+01  0.46934385863E+02  0.00000000000E+00 0.  1.
         11    1    1    2    0    0  0.33639415698E+02  0.69298625058E+01 -0.42693137135E+02  0.54793587593E+02  0.00000000000E+00 0. -1.
</event>
<event>
 7    1  0.2732144E-009  0.9410583E+02  0.7561462E-02  0.1293203E+00
         -1   -1    0    0    0  501 -0.00000000000E+00  0.00000000000E+00  0.56481643747E+02  0.56481643747E+02  0.00000000000E+00 0.  1.
          1   -1    0    0  501    0  0.00000000000E+00 -0.00000000000E+00 -0.23166096734E+03  0.23166096734E+03  0.00000000000E+00 0. -1.
         25    2    1    2    0    0  0.64804424170E+01 -0.29693119983E+02 -0.65282113844E+02  0.14433398986E+03  0.12508744434E+03 0.  0.
          5    1    3    3  502    0  0.14082999684E+02  0.44143577176E+02 -0.50258887580E+02  0.68486600637E+02  0.41800000000E+01 0.  1.
         -5    1    3    3    0  502 -0.76025572667E+01 -0.73836697159E+02 -0.15023226263E+02  0.75847389222E+02  0.41800000000E+01 0.  1.
        -11    1    1    2    0    0  0.25009943250E+02  0.25252468052E+02 -0.71513554421E+01  0.36253638283E+02  0.00000000000E+00 0.  1.
         11    1    1    2    0    0 -0.31490385667E+02  0.44406519312E+01 -0.10274585431E+03  0.10755498295E+03  0.00000000000E+00 0. -1.
</event>
<event>
 7    1  0.2732144E-009  0.1090810E+03  0.7561462E-02  0.1262281E+00
         -2   -1    0    0    0  501 -0.00000000000E+00  0.00000000000E+00  0.22890969391E+02  0.22890969391E+02  0.00000000000E+00 0.  1.
          2   -1    0    0  501    0  0.00000000000E+00 -0.00000000000E+00 -0.68280817751E+03  0.68280817751E+03  0.00000000000E+00 0. -1.
         25    2    1    2    0    0  0.53239316279E+02 -0.29622747869E+02 -0.40899716759E+03  0.43201260312E+03  0.12507707292E+03 0.  0.
          5    1    3    3  502    0 -0.43140348590E+01  0.27241851454E+02 -0.19150702375E+02  0.33837127077E+02  0.41800000000E+01 0. -1.
         -5    1    3    3    0  502  0.57553351138E+02 -0.56864599322E+02 -0.38984646521E+03  0.39817547604E+03  0.41800000000E+01 0. -1.
        -11    1    1    2    0    0 -0.72598967190E+02  0.44218647785E+02 -0.19229048214E+03  0.21024159525E+03  0.00000000000E+00 0.  1.
         11    1    1    2    0    0  0.19359650911E+02 -0.14595899916E+02 -0.58629558387E+02  0.63444948533E+02  0.00000000000E+00 0. -1.
</event>
<event>
 7    1  0.2732144E-009  0.6709881E+02  0.7561462E-02  0.1370246E+00
          2   -1    0    0  501    0  0.00000000000E+00  0.00000000000E+00  0.15184928719E+03  0.15184928719E+03  0.00000000000E+00 0.  1.
         -2   -1    0    0    0  501 -0.00000000000E+00 -0.00000000000E+00 -0.10851982774E+03  0.10851982774E+03  0.00000000000E+00 0. -1.
         25    2    1    2    0    0  0.46040388764E+00 -0.14210488973E+01  0.94822125615E+02  0.15697662494E+03  0.12509274128E+03 0.  0.
          5    1    3    3  502    0  0.22572967934E+02  0.57607143551E+01  0.12008196788E+03  0.12239230417E+03  0.41800000000E+01 0. -1.
         -5    1    3    3    0  502 -0.22112564046E+02 -0.71817632524E+01 -0.25259842263E+02  0.34584320772E+02  0.41800000000E+01 0. -1.
        -11    1    1    2    0    0 -0.26394536641E+02  0.35402958330E+02 -0.13433197068E+02  0.46157250854E+02  0.00000000000E+00 0.  1.
         11    1    1    2    0    0  0.25934132753E+02 -0.33981909432E+02 -0.38059469100E+02  0.57235239132E+02  0.00000000000E+00 0. -1.
</event>
<event>
 7    1  0.2732144E-009  0.1462515E+03  0.7561462E-02  0.1205156E+00
         -2   -1    0    0    0  501 -0.00000000000E+00  0.00000000000E+00  0.29294970574E+02  0.29294970574E+02  0.00000000000E+00 0.  1.
          2   -1    0    0  501    0  0.00000000000E+00 -0.00000000000E+00 -0.77803787789E+03  0.77803787789E+03  0.00000000000E+00 0. -1.
         25    2    1    2    0    0 -0.10306249625E+03 -0.87573600050E+01 -0.45888531072E+03  0.48674643348E+03  0.12509113727E+03 0.  0.
          5    1    3    3  502    0 -0.49816822944E+02 -0.63601247252E+02 -0.29451755936E+03  0.30542576786E+03  0.41800000000E+01 0.  1.
         -5    1    3    3    0  502 -0.53245673303E+02  0.54843887247E+02 -0.16436775136E+03  0.18132066562E+03  0.41800000000E+01 0.  1.
        -11    1    1    2    0    0  0.58343503449E+02  0.48004401923E+02 -0.18815930283E+03  0.20276170802E+03  0.00000000000E+00 0. -1.
         11    1    1    2    0    0  0.44718992798E+02 -0.39247041918E+02 -0.10169829377E+03  0.11782470696E+03  0.00000000000E+00 0.  1.
</event>
<event>
 7    1  0.2732144E-009  0.1047951E+03  0.7561462E-02  0.1270524E+00
         -2   -1    0    0    0  501 -0.00000000000E+00  0.00000000000E+00  0.10242024144E+03  0.10242024144E+03  0.00000000000E+00 0.  1.
          2   -1    0    0  501    0  0.00000000000E+00 -0.00000000000E+00 -0.15559284572E+03  0.15559284572E+03  0.00000000000E+00 0. -1.
         25    2    1    2    0    0  0.60970176589E+02 -0.54492184760E+01 -0.10133604627E+02  0.13963374355E+03  0.12509131056E+03 0.  0.
          5    1    3    3  502    0  0.77978744683E+02 -0.22760044001E+02  0.34739338796E+02  0.88447714980E+02  0.41800000000E+01 0. -1.
         -5    1    3    3    0  502 -0.17008568094E+02  0.17310825525E+02 -0.44872943423E+02  0.51186028566E+02  0.41800000000E+01 0. -1.
        -11    1    1    2    0    0 -0.22231227672E+02  0.43796429792E+02 -0.30609040136E+00  0.49116681867E+02  0.00000000000E+00 0.  1.
         11    1    1    2    0    0 -0.38738948918E+02 -0.38347211316E+02 -0.42732909249E+02  0.69262661743E+02  0.00000000000E+00 0. -1.
</event>
<event>
 7    1  0.2732144E-009  0.2656831E+03  0.7561462E-02  0.1103776E+00
         -2   -1    0    0    0  501 -0.00000000000E+00  0.00000000000E+00  0.27647839796E+03  0.27647839796E+03  0.00000000000E+00 0. -1.
          2   -1    0    0  501    0  0.00000000000E+00 -0.00000000000E+00 -0.29884045044E+03  0.29884045044E+03  0.00000000000E+00 0.  1.
         25    2    1    2    0    0  0.22701111968E+03 -0.80214985791E+02  0.92513374569E+02  0.28666328046E+03  0.12509444227E+03 0.  0.
          5    1    3    3  502    0 -0.13037754363E+02 -0.16545738531E+02 -0.37305431018E+00  0.21479200914E+02  0.41800000000E+01 0. -1.
         -5    1    3    3    0  502  0.24004887404E+03 -0.63669247259E+02  0.92886428879E+02  0.26518407954E+03  0.41800000000E+01 0. -1.
        -11    1    1    2    0    0 -0.99655885697E+02 -0.17246741418E+02 -0.66911069128E+02  0.12126762476E+03  0.00000000000E+00 0.  1.
         11    1    1    2    0    0 -0.12735523398E+03  0.97461727209E+02 -0.47964357919E+02  0.16738794318E+03  0.00000000000E+00 0. -1.
</event>
<event>
 7    1  0.2741817E-009  0.1181014E+03  0.7561462E-02  0.1246262E+00
          2   -1    0    0  501    0  0.00000000000E+00  0.00000000000E+00  0.59508555791E+03  0.59508555791E+03  0.00000000000E+00 0. -1.
         -2   -1    0    0    0  501 -0.00000000000E+00 -0.00000000000E+00 -0.28902188688E+02  0.28902188688E+02  0.00000000000E+00 0.  1.
         25    2    1    2    0    0  0.65467544724E+02 -0.32708616936E+02  0.30898408221E+03  0.34128306877E+03  0.12508843645E+03 0.  0.
          5    1    3    3  502    0 -0.32039048881E+02 -0.32711274686E+02  0.78268626401E+02  0.90774326896E+02  0.41800000000E+01 0. -1.
         -5    1    3    3    0  502  0.97506593605E+02  0.26577499225E-02  0.23071545581E+03  0.25050874187E+03  0.41800000000E+01 0. -1.
        -11    1    1    2    0    0 -0.17267756942E+02  0.40291349169E+02  0.37606784165E+02  0.57756717902E+02  0.00000000000E+00 0.  1.
         11    1    1    2    0    0 -0.48199787782E+02 -0.75827322323E+01  0.21959250284E+03  0.22494795993E+03  0.00000000000E+00 0. -1.
</event>
<event>
 7    1  0.2732144E-009  0.1892219E+03  0.7561462E-02  0.1159165E+00
          1   -1    0    0  501    0  0.00000000000E+00  0.00000000000E+00  0.34238913043E+03  0.34238913043E+03  0.00000000000E+00 0. -1.
         -1   -1    0    0    0  501 -0.00000000000E+00 -0.00000000000E+00 -0.11622322694E+03  0.11622322694E+03  0.00000000000E+00 0.  1.
         25    2    1    2    0    0 -0.13504242243E+03  0.84508564188E+02  0.59614624126E+02  0.21112874331E+03  0.12507313687E+03 0.  0.
          5    1    3    3  502    0 -0.20702240027E+02 -0.32126877059E+02  0.45612121816E+01  0.38716870073E+02  0.41800000000E+01 0.  1.
         -5    1    3    3    0  502 -0.11434018241E+03  0.11663544125E+03  0.55053411944E+02  0.17241187324E+03  0.41800000000E+01 0.  1.
        -11    1    1    2    0    0  0.53990414464E+02 -0.78582205052E+02  0.57006704963E+02  0.11108506747E+03  0.00000000000E+00 0. -1.
         11    1    1    2    0    0  0.81052007970E+02 -0.59263591362E+01  0.10954457441E+03  0.13639854659E+03  0.00000000000E+00 0.  1.
</event>
<event>
 7    1  0.2732144E-009  0.1330790E+03  0.7561462E-02  0.1222957E+00
          1   -1    0    0  501    0  0.00000000000E+00  0.00000000000E+00  0.11812013630E+04  0.11812013630E+04  0.00000000000E+00 0. -1.
         -1   -1    0    0    0  501 -0.00000000000E+00 -0.00000000000E+00 -0.21852230190E+02  0.21852230190E+02  0.00000000000E+00 0.  1.
         25    2    1    2    0    0  0.78396298716E+02  0.66812521471E+02  0.83796409621E+03  0.85348790882E+03  0.12509153161E+03 0.  0.
          5    1    3    3  502    0  0.12185317815E+02  0.83720400187E+02  0.32010187851E+03  0.33111972518E+03  0.41800000000E+01 0.  1.
         -5    1    3    3    0  502  0.66210980901E+02 -0.16907878715E+02  0.51786221770E+03  0.52236818364E+03  0.41800000000E+01 0.  1.
        -11    1    1    2    0    0 -0.28200991958E+02 -0.54409842600E+02  0.26926049006E+03  0.27614658865E+03  0.00000000000E+00 0. -1.
         11    1    1    2    0    0 -0.50195306758E+02 -0.12402678872E+02  0.52124546532E+02  0.73419095710E+02  0.00000000000E+00 0.  1.
</event>
<event>
 7    1  0.2732144E-009  0.1259514E+03  0.7561462E-02  0.1233590E+00
         -2   -1    0    0    0  501 -0.00000000000E+00  0.00000000000E+00  0.58743544891E+02  0.58743544891E+02  0.00000000000E+00 0.  1.
          2   -1    0    0  501    0  0.00000000000E+00 -0.00000000000E+00 -0.30992751124E+03  0.30992751124E+03  0.00000000000E+00 0. -1.
         25    2    1    2    0    0  0.40372643791E+02 -0.70540592832E+02 -0.16312254298E+03  0.22107408646E+03  0.12513537498E+03 0.  0.
          5    1    3    3  502    0  0.65536714726E+02  0.46501270480E+01 -0.99597628425E+02  0.11938946623E+03  0.41800000000E+01 0. -1.
         -5    1    3    3    0  502 -0.25164070935E+02 -0.75190719880E+02 -0.63524914550E+02  0.10168462023E+03  0.41800000000E+01 0. -1.
        -11    1    1    2    0    0 -0.58967216241E+02  0.41209266283E+02 -0.86947522379E+02  0.11285037823E+03  0.00000000000E+00 0.  1.
         11    1    1    2    0    0  0.18594572450E+02  0.29331326549E+02 -0.11139009964E+01  0.34746591447E+02  0.00000000000E+00 0. -1.
</event>
<event>
 7    1  0.2732144E-009  0.8216589E+02  0.7561462E-02  0.1323015E+00
          1   -1    0    0  501    0  0.00000000000E+00  0.00000000000E+00  0.95002452550E+02  0.95002452550E+02  0.00000000000E+00 0. -1.
         -1   -1    0    0    0  501 -0.00000000000E+00 -0.00000000000E+00 -0.12710562591E+03  0.12710562591E+03  0.00000000000E+00 0.  1.
         25    2    1    2    0    0 -0.32859042009E+01  0.11646157411E+02 -0.33537196594E+02  0.13007158545E+03  0.12508974234E+03 0.  0.
          5    1    3    3  502    0  0.51891290326E+02  0.37247047351E+02 -0.23982311497E+02  0.68356947070E+02  0.41800000000E+01 0. -1.
         -5    1    3    3    0  502 -0.55177194527E+02 -0.25600889939E+02 -0.95548850969E+01  0.61714638383E+02  0.41800000000E+01 0. -1.
        -11    1    1    2    0    0  0.20079535242E+02 -0.25222417945E+01 -0.40875299073E+02  0.45610739015E+02  0.00000000000E+00 0.  1.
         11    1    1    2    0    0 -0.16793631041E+02 -0.91239156168E+01  0.42309322306E+02  0.46425753992E+02  0.00000000000E+00 0. -1.
</event>
<event>
 7    1  0.2732144E-009  0.9365156E+02  0.7561462E-02  0.1294242E+00
          2   -1    0    0  501    0  0.00000000000E+00  0.00000000000E+00  0.36023873564E+02  0.36023873564E+02  0.00000000000E+00 0. -1.
         -2   -1    0    0    0  501 -0.00000000000E+00 -0.00000000000E+00 -0.42774091333E+03  0.42774091333E+03  0.00000000000E+00 0.  1.
         25    2    1    2    0    0  0.32556583829E+02  0.45038785670E+02 -0.26889016094E+03  0.30172515128E+03  0.12509086658E+03 0.  0.
          5    1    3    3  502    0  0.40642821508E+02 -0.21692721012E+02 -0.20039571017E+03  0.20566556868E+03  0.41800000000E+01 0. -1.
         -5    1    3    3    0  502 -0.80862376786E+01  0.66731506682E+02 -0.68494450771E+02  0.96059582605E+02  0.41800000000E+01 0. -1.
        -11    1    1    2    0    0 -0.16064738201E+02  0.81457512908E+01  0.81107900835E+01  0.19753834902E+02  0.00000000000E+00 0.  1.
         11    1    1    2    0    0 -0.16491845628E+02 -0.53184536961E+02 -0.13093766890E+03  0.14228580070E+03  0.00000000000E+00 0. -1.
</event>
<event>
 7    1  0.2732144E-009  0.1221045E+03  0.7561462E-02  0.1239665E+00
         -1   -1    0    0    0  501 -0.00000000000E+00  0.00000000000E+00  0.13897593153E+03  0.13897593153E+03  0.00000000000E+00 0.  1.
          1   -1    0    0  501    0  0.00000000000E+00 -0.00000000000E+00 -0.13176117098E+03  0.13176117098E+03  0.00000000000E+00 0. -1.
         25    2    1    2    0    0  0.33033341833E+02  0.72789790525E+02 -0.78374623634E+01  0.14865514891E+03  0.12508945680E+03 0.  0.
          5    1    3    3  502    0  0.70379910341E+02  0.56475005384E+02 -0.37774816997E+02  0.97914080765E+02  0.41800000000E+01 0.  1.
         -5    1    3    3    0  502 -0.37346568509E+02  0.16314785141E+02  0.29937354634E+02  0.50741068141E+02  0.41800000000E+01 0.  1.
        -11    1    1    2    0    0  0.22253287252E+02 -0.97370745050E+00  0.21841143874E+02  0.31196032848E+02  0.00000000000E+00 0.  1.
         11    1    1    2    0    0 -0.55286629084E+02 -0.71816083075E+02 -0.67889209569E+01  0.90885920755E+02  0.00000000000E+00 0. -1.
</event>
<event>
 7    1  0.2732144E-009  0.8763828E+02  0.7561462E-02  0.1308674E+00
         -4   -1    0    0    0  501 -0.00000000000E+00  0.00000000000E+00  0.31289493732E+03  0.31289493732E+03  0.00000000000E+00 0.  1.
          4   -1    0    0  501    0  0.00000000000E+00 -0.00000000000E+00 -0.46361383931E+02  0.46361383931E+02  0.00000000000E+00 0. -1.
         25    2    1    2    0    0 -0.37070366408E+02 -0.28747694999E+02  0.17546655432E+03  0.22054906622E+03  0.12511089838E+03 0.  0.
          5    1    3    3  502    0 -0.21620638688E+02 -0.74265148953E+02  0.69313624521E+02  0.10394525151E+03  0.41800000000E+01 0.  1.
         -5    1    3    3    0  502 -0.15449727720E+02  0.45517453954E+02  0.10615292980E+03  0.11660381471E+03  0.41800000000E+01 0.  1.
        -11    1    1    2    0    0  0.26242091486E+02  0.28490776093E+02  0.11015138488E+03  0.11676343297E+03  0.00000000000E+00 0.  1.
         11    1    1    2    0    0  0.10828274923E+02  0.25691890649E+00 -0.19084385807E+02  0.21943822064E+02  0.00000000000E+00 0. -1.
</event>
<event>
 7    1  0.2732144E-009  0.1361217E+03  0.7561462E-02  0.1218645E+00
          1   -1    0    0  501    0  0.00000000000E+00  0.00000000000E+00  0.29533556065E+03  0.29533556065E+03  0.00000000000E+00 0. -1.
         -1   -1    0    0    0  501 -0.00000000000E+00 -0.00000000000E+00 -0.77717890439E+02  0.77717890439E+02  0.00000000000E+00 0.  1.
         25    2    1    2    0    0  0.70501535841E+02 -0.66302911261E+02  0.16751086924E+03  0.23037914279E+03  0.12509242791E+03 0.  0.
          5    1    3    3  502    0  0.42180482192E+02  0.23706859592E+02  0.10884903983E+03  0.11919225706E+03  0.41800000000E+01 0. -1.
         -5    1    3    3    0  502  0.28321053649E+02 -0.90009770853E+02  0.58661829408E+02  0.11118688573E+03  0.41800000000E+01 0. -1.
        -11    1    1    2    0    0 -0.48758909280E+02 -0.10094860572E+02  0.20466547982E+01  0.49834990118E+02  0.00000000000E+00 0.  1.
         11    1    1    2    0    0 -0.21742626561E+02  0.76397771833E+02  0.48060146170E+02  0.92839318183E+02  0.00000000000E+00 0. -1.
</event>
<event>
 7    1  0.2732144E-009  0.1149427E+03  0.7561462E-02  0.1251681E+00
          2   -1    0    0  501    0  0.00000000000E+00  0.00000000000E+00  0.22078357028E+03  0.22078357028E+03  0.00000000000E+00 0. -1.
         -2   -1    0    0    0  501 -0.00000000000E+00 -0.00000000000E+00 -0.88209997305E+02  0.88209997305E+02  0.00000000000E+00 0.  1.
         25    2    1    2    0    0  0.39893508028E+02  0.72305855437E+02  0.10796737035E+03  0.18472744699E+03  0.12509055879E+03 0.  0.
          5    1    3    3  502    0 -0.30042875170E+02  0.47567701338E+01 -0.95404564922E+01  0.32151110723E+02  0.41800000000E+01 0.  1.
         -5    1    3    3    0  502  0.69936383199E+02  0.67549085303E+02  0.11750782684E+03  0.15257633627E+03  0.41800000000E+01 0.  1.
        -11    1    1    2    0    0 -0.26623516805E+02  0.16973349652E+01 -0.23045743484E+02  0.35253352830E+02  0.00000000000E+00 0.  1.
         11    1    1    2    0    0 -0.13269991224E+02 -0.74003190402E+02  0.47651946108E+02  0.89012767762E+02  0.00000000000E+00 0. -1.
</event>
<event>
 7    1  0.2732144E-009  0.2566943E+03  0.7561462E-02  0.1109146E+00
         -1   -1    0    0    0  501 -0.00000000000E+00  0.00000000000E+00  0.79445198731E+02  0.79445198731E+02  0.00000000000E+00 0.  1.
          1   -1    0    0  501    0  0.00000000000E+00 -0.00000000000E+00 -0.10736752062E+04  0.10736752062E+04  0.00000000000E+00 0. -1.
         25    2    1    2    0    0 -0.24190548125E+02 -0.23935739203E+03 -0.26265853177E+03  0.37750880573E+03  0.12508497256E+03 0.  0.
          5    1    3    3  502    0 -0.77797287765E-01 -0.23909647624E+03 -0.20538824936E+03  0.31522838765E+03  0.41800000000E+01 0. -1.
         -5    1    3    3    0  502 -0.24112750837E+02 -0.26091578583E+00 -0.57270282405E+02  0.62280418084E+02  0.41800000000E+01 0. -1.
        -11    1    1    2    0    0 -0.20664866074E+02  0.12919779513E+03 -0.47709055980E+03  0.49470648794E+03  0.00000000000E+00 0.  1.
         11    1    1    2    0    0  0.44855414199E+02  0.11015959690E+03 -0.25448091586E+03  0.28090511122E+03  0.00000000000E+00 0. -1.
</event>
<event>
 7    1  0.2732144E-009  0.1149723E+03  0.7561462E-02  0.1251629E+00
         -2   -1    0    0    0  501 -0.00000000000E+00  0.00000000000E+00  0.23748250259E+02  0.23748250259E+02  0.00000000000E+00 0.  1.
          2   -1    0    0  501    0  0.00000000000E+00 -0.00000000000E+00 -0.95058003108E+03  0.95058003108E+03  0.00000000000E+00 0. -1.
         25    2    1    2    0    0  0.56663460543E+01  0.85089698956E+02 -0.68821705569E+03  0.70467215291E+03  0.12509101882E+03 0.  0.
          5    1    3    3  502    0  0.51879887787E+02  0.83166930684E+02 -0.35781150548E+03  0.37101860731E+03  0.41800000000E+01 0.  1.
         -5    1    3    3    0  502 -0.46213541733E+02  0.19227682718E+01 -0.33040555022E+03  0.33365354560E+03  0.41800000000E+01 0.  1.
        -11    1    1    2    0    0 -0.94686932288E+00 -0.47178399555E+02 -0.26482500070E+02  0.54111188824E+02  0.00000000000E+00 0.  1.
         11    1    1    2    0    0 -0.47194767314E+01 -0.37911299401E+02 -0.21213222505E+03  0.21554493961E+03  0.00000000000E+00 0. -1.
</event>
<event>
 7    1  0.2732144E-009  0.7654233E+02  0.7561462E-02  0.1339160E+00
         -2   -1    0    0    0  501 -0.00000000000E+00  0.00000000000E+00  0.56620329725E+03  0.56620329725E+03  0.00000000000E+00 0.  1.
          2   -1    0    0  501    0  0.00000000000E+00 -0.00000000000E+00 -0.25704696259E+02  0.25704696259E+02  0.00000000000E+00 0. -1.
         25    2    1    2    0    0  0.33859757877E+02  0.50658158061E-01  0.39868362114E+03  0.41921573805E+03  0.12508684781E+03 0.  0.
          5    1    3    3  502    0  0.61556316704E+02  0.12525521200E+02  0.94871376570E+02  0.11386008651E+03  0.41800000000E+01 0.  1.
         -5    1    3    3    0  502 -0.27696558828E+02 -0.12474863042E+02  0.30381224457E+03  0.30535565154E+03  0.41800000000E+01 0.  1.
        -11    1    1    2    0    0 -0.22804950540E+02  0.23931935198E+02  0.14249138758E+03  0.14627576295E+03  0.00000000000E+00 0.  1.
         11    1    1    2    0    0 -0.11054807337E+02 -0.23982593356E+02 -0.67640772424E+00  0.26416492514E+02  0.00000000000E+00 0. -1.
</event>
<event>
 7    1  0.2732144E-009  0.1172877E+03  0.7561462E-02  0.1247640E+00
         -1   -1    0    0    0  501 -0.00000000000E+00  0.00000000000E+00  0.26332897341E+02  0.26332897341E+02  0.00000000000E+00 0.  1.
          1   -1    0    0  501    0  0.00000000000E+00 -0.00000000000E+00 -0.81550077644E+03  0.81550077644E+03  0.00000000000E+00 0. -1.
         25    2    1    2    0    0 -0.51690473446E+02  0.50690626598E+02 -0.41403265722E+03  0.43853259208E+03  0.12508536443E+03 0.  0.
          5    1    3    3  502    0  0.12266273977E+02  0.31108973351E+02 -0.32677726848E+03  0.32851040363E+03  0.41800000000E+01 0.  1.
         -5    1    3    3    0  502 -0.63956747423E+02  0.19581653247E+02 -0.87255388743E+02  0.11002218844E+03  0.41800000000E+01 0.  1.
        -11    1    1    2    0    0 -0.34328328372E+02 -0.29511140744E+02 -0.55523280528E+02  0.71639208800E+02  0.00000000000E+00 0.  1.
         11    1    1    2    0    0  0.86018801818E+02 -0.21179485854E+02 -0.31961194135E+03  0.33166187291E+03  0.00000000000E+00 0. -1.
</event>
<event>
 7    1  0.2732144E-009  0.1233227E+03  0.7561462E-02  0.1237714E+00
          2   -1    0    0  501    0  0.00000000000E+00  0.00000000000E+00  0.63198722522E+03  0.63198722522E+03  0.00000000000E+00 0. -1.
         -2   -1    0    0    0  501 -0.00000000000E+00 -0.00000000000E+00 -0.25552533260E+02  0.25552533260E+02  0.00000000000E+00 0.  1.
         25    2    1    2    0    0  0.18154017042E+02 -0.56075022899E+02  0.28421421153E+03  0.31606827253E+03  0.12508980110E+03 0.  0.
          5    1    3    3  502    0 -0.33565622422E+02 -0.72777515032E+02  0.20268251579E+03  0.21799287215E+03  0.41800000000E+01 0. -1.
         -5    1    3    3    0  502  0.51719639464E+02  0.16702492133E+02  0.81531695736E+02  0.98075400378E+02  0.41800000000E+01 0. -1.
        -11    1    1    2    0    0 -0.43730039633E+02  0.70168138970E+02  0.25798488555E+03  0.27090973638E+03  0.00000000000E+00 0. -1.
         11    1    1    2    0    0  0.25576022591E+02 -0.14093116070E+02  0.64235594878E+02  0.70561749564E+02  0.00000000000E+00 0.  1.
</event>
<event>
 6    1  0.2732144E-009  0.8929839E+02  0.7561462E-02  0.1304560E+00
         -2   -1    0    0    0  501 -0.00000000000E+00  0.00000000000E+00  0.10138927109E+03  0.10138927109E+03  0.00000000000E+00 0.  1.
          2   -1    0    0  501    0  0.00000000000E+00 -0.00000000000E+00 -0.26230162954E+03  0.26230162954E+03  0.00000000000E+00 0. -1.
          5    1    1    2  502    0 -0.46484191331E+02 -0.10026349511E+02 -0.37457360167E+02  0.60678117629E+02  0.41800000000E+01 0.  1.
         -5    1    1    2    0  502  0.67010153019E+01 -0.52708409470E+02  0.70903443556E+02  0.88700906100E+02  0.41800000000E+01 0.  1.
        -11    1    1    2    0    0  0.18690740474E+02  0.10984045942E+02 -0.11634561579E+03  0.11834819542E+03  0.00000000000E+00 0. -1.
         11    1    1    2    0    0  0.21092435556E+02  0.51750713039E+02 -0.78012826049E+02  0.95963681494E+02  0.00000000000E+00 0.  1.
</event>
<event>
 7    1  0.2732144E-009  0.1228302E+03  0.7561462E-02  0.1238500E+00
          1   -1    0    0  501    0  0.00000000000E+00  0.00000000000E+00  0.12217920133E+03  0.12217920133E+03  0.00000000000E+00 0. -1.
         -1   -1    0    0    0  501 -0.00000000000E+00 -0.00000000000E+00 -0.24083678122E+03  0.24083678122E+03  0.00000000000E+00 0.  1.
         25    2    1    2    0    0 -0.29825613626E+02 -0.96030287999E+02  0.27535587712E+02  0.16284123092E+03  0.12509066494E+03 0.  0.
          5    1    3    3  502    0 -0.17655661967E+02  0.20602599735E+02 -0.22287804627E+02  0.35361110707E+02  0.41800000000E+01 0. -1.
         -5    1    3    3    0  502 -0.12169951659E+02 -0.11663288773E+03  0.49823392339E+02  0.12748012021E+03  0.41800000000E+01 0. -1.
        -11    1    1    2    0    0  0.18945397865E+02  0.47648880819E+02 -0.14133296915E+03  0.15034743800E+03  0.00000000000E+00 0.  1.
         11    1    1    2    0    0  0.10880215761E+02  0.48381407180E+02 -0.48601984474E+01  0.49827313641E+02  0.00000000000E+00 0. -1.
</event>
<event>
 7    1  0.2732144E-009  0.1057407E+03  0.7561462E-02  0.1268667E+00
         -1   -1    0    0    0  501 -0.00000000000E+00  0.00000000000E+00  0.10889943841E+03  0.10889943841E+03  0.00000000000E+00 0.  1.
          1   -1    0    0  501    0  0.00000000000E+00 -0.00000000000E+00 -0.14380078421E+03  0.14380078421E+03  0.00000000000E+00 0. -1.
         25    2    1    2    0    0  0.50634773586E+01 -0.58865390525E+02 -0.40445416408E+02  0.14413377959E+03  0.12509173316E+03 0.  0.
          5    1    3    3  502    0  0.25405255401E+02 -0.78232500008E+02  0.13223943898E+02  0.83415203361E+02  0.41800000000E+01 0.  1.
         -5    1    3    3    0  502 -0.20341778042E+02  0.19367109483E+02 -0.53669360306E+02  0.60718576230E+02  0.41800000000E+01 0.  1.
        -11    1    1    2    0    0  0.38006355221E+02  0.33986083084E+02  0.22891636755E+02  0.55888853217E+02  0.00000000000E+00 0.  1.
         11    1    1    2    0    0 -0.43069832579E+02  0.24879307441E+02 -0.17347566141E+02  0.52677589810E+02  0.00000000000E+00 0. -1.
</event>
<event>
 7    1  0.2732144E-009  0.1243890E+03  0.7561462E-02  0.1236027E+00
         -2   -1    0    0    0  501 -0.00000000000E+00  0.00000000000E+00  0.12293431265E+03  0.12293431265E+03  0.00000000000E+00 0.  1.
          2   -1    0    0  501    0  0.00000000000E+00 -0.00000000000E+00 -0.29966452862E+03  0.29966452862E+03  0.00000000000E+00 0. -1.
         25    2    1    2    0    0  0.25918576445E+02  0.10062763214E+03 -0.22317682763E+03  0.27613720951E+03  0.12508464785E+03 0.  0.
          5    1    3    3  502    0  0.13109452697E+01 -0.14977926373E+02  0.71917836754E+01  0.17182869620E+02  0.41800000000E+01 0.  1.
         -5    1    3    3    0  502  0.24607631176E+02  0.11560555851E+03 -0.23036861131E+03  0.25895433989E+03  0.41800000000E+01 0.  1.
        -11    1    1    2    0    0 -0.20849195940E+02 -0.83064903761E+01  0.49075767618E+02  0.53964041000E+02  0.00000000000E+00 0.  1.
         11    1    1    2    0    0 -0.50693805057E+01 -0.92321141761E+02 -0.26291559578E+01  0.92497590757E+02  0.00000000000E+00 0. -1.
</event>
<event>
 7    1  0.2838126E-009  0.1116223E+03  0.7561462E-02  0.1257595E+00
         -2   -1    0    0    0  501 -0.00000000000E+00  0.00000000000E+00  0.78533796309E+02  0.78533796309E+02  0.00000000000E+00 0.  1.
          2   -1    0    0  501    0  0.00000000000E+00 -0.00000000000E+00 -0.21306415962E+03  0.21306415962E+03  0.00000000000E+00 0. -1.
         25    2    1    2    0    0 -0.28718351940E-02  0.69796309564E+02 -0.83923298853E+02  0.16601356897E+03  0.12508341279E+03 0.  0.
          5    1    3    3  502    0  0.46242882303E+02  0.76703919738E+02 -0.30068681399E+02  0.94570045299E+02  0.41800000000E+01 0. -1.
         -5    1    3    3    0  502 -0.46245754138E+02 -0.69076101740E+01 -0.53854617453E+02  0.71443523675E+02  0.41800000000E+01 0. -1.
        -11    1    1    2    0    0 -0.24878740092E+02 -0.45515629595E+02 -0.68945005506E+02  0.86278838832E+02  0.00000000000E+00 0. -1.
         11    1    1    2    0    0  0.24881611927E+02 -0.24280679970E+02  0.18337941043E+02  0.39305548127E+02  0.00000000000E+00 0.  1.
</event>
<event>
 7    1  0.2732144E-009  0.8462321E+02  0.7561462E-02  0.1316421E+00
         -3   -1    0    0    0  501 -0.00000000000E+00  0.00000000000E+00  0.16066134499E+03  0.16066134499E+03  0.00000000000E+00 0.  1.
          3   -1    0    0  501    0  0.00000000000E+00 -0.00000000000E+00 -0.77547885054E+02  0.77547885054E+02  0.00000000000E+00 0. -1.
         25    2    1    2    0    0  0.18923723207E+02 -0.63750475573E+01  0.61939111891E+02  0.14100547934E+03  0.12508934043E+03 0.  0.
          5    1    3    3  502    0  0.58462586508E+02 -0.57753361771E+01 -0.91001766810E+01  0.59594581505E+02  0.41800000000E+01 0. -1.
         -5    1    3    3    0  502 -0.39538863301E+02 -0.59971138019E+00  0.71039288572E+02  0.81410897831E+02  0.41800000000E+01 0. -1.
        -11    1    1    2    0    0  0.14938990159E+02 -0.21873846610E+02  0.41033023687E+02  0.48840020735E+02  0.00000000000E+00 0.  1.
         11    1    1    2    0    0 -0.33862713366E+02  0.28248894167E+02 -0.19858675645E+02  0.48363729969E+02  0.00000000000E+00 0. -1.
</event>
<event>
 7    1  0.2732144E-009  0.1096466E+03  0.7561462E-02  0.1261226E+00
         -2   -1    0    0    0  501 -0.00000000000E+00  0.00000000000E+00  0.20812793399E+02  0.20812793399E+02  0.00000000000E+00 0.  1.
          2   -1    0    0  501    0  0.00000000000E+00 -0.00000000000E+00 -0.67760855755E+03  0.67760855755E+03  0.00000000000E+00 0. -1.
         25    2    1    2    0    0  0.12507750130E+02 -0.24918118305E+02 -0.48868752286E+03  0.50521238523E+03  0.12508678090E+03 0.  0.
          5    1    3    3  502    0  0.14880154035E+02  0.50280149364E+02 -0.21500855655E+03  0.22134964240E+03  0.41800000000E+01 0.  1.
         -5    1    3    3    0  502 -0.23724039055E+01 -0.75198267670E+02 -0.27367896631E+03  0.28386274282E+03  0.41800000000E+01 0.  1.
        -11    1    1    2    0    0 -0.17399913268E+02  0.56634909317E+02 -0.80836642054E+02  0.10022391248E+03  0.00000000000E+00 0.  1.
         11    1    1    2    0    0  0.48921631376E+01 -0.31716791012E+02 -0.87271599242E+02  0.92985053243E+02  0.00000000000E+00 0. -1.
</event>
<event>
 7    1  0.2732144E-009  0.9391610E+02  0.7561462E-02  0.1293636E+00
         -1   -1    0    0    0  501 -0.00000000000E+00  0.00000000000E+00  0.14011538429E+02  0.14011538429E+02  0.00000000000E+00 0.  1.
          1   -1    0    0  501    0  0.00000000000E+00 -0.00000000000E+00 -0.85004276025E+03  0.85004276025E+03  0.00000000000E+00 0. -1.
         25    2    1    2    0    0  0.71732501324E+01  0.34122318719E+02 -0.54957302971E+03  0.56470662862E+03  0.12508906134E+03 0.  0.
          5    1    3    3  502    0 -0.44600970410E+02  0.28501319305E+02 -0.11113527946E+03  0.12316693755E+03  0.41800000000E+01 0. -1.
         -5    1    3    3    0  502  0.51774220542E+02  0.56209994147E+01 -0.43843775025E+03  0.44153969107E+03  0.41800000000E+01 0. -1.
        -11    1    1    2    0    0 -0.33593085209E+02  0.63219038197E+01 -0.74709122491E+02  0.82157865266E+02  0.00000000000E+00 0.  1.
         11    1    1    2    0    0  0.26419835076E+02 -0.40444222539E+02 -0.21174906962E+03  0.21718980479E+03  0.00000000000E+00 0. -1.
</event>
<event>
 7    1  0.2732144E-009  0.1225732E+03  0.7561462E-02  0.1238911E+00
         -2   -1    0    0    0  501 -0.00000000000E+00  0.00000000000E+00  0.23114420177E+02  0.23114420177E+02  0.00000000000E+00 0.  1.
          2   -1    0    0  501    0  0.00000000000E+00 -0.00000000000E+00 -0.81197347699E+03  0.81197347699E+03  0.00000000000E+00 0. -1.
         25    2    1    2    0    0 -0.13176904789E+02 -0.13315978421E+02 -0.48521465706E+03  0.50143526339E+03  0.12511240485E+03 0.  0.
          5    1    3    3  502    0  0.54434065878E+02 -0.11410337910E+02 -0.16641573093E+03  0.17551333636E+03  0.41800000000E+01 0. -1.
         -5    1    3    3    0  502 -0.67610970667E+02 -0.19056405116E+01 -0.31879892613E+03  0.32592192703E+03  0.41800000000E+01 0. -1.
        -11    1    1    2    0    0  0.61458285708E+02 -0.18021184269E+02 -0.23743502338E+03  0.24592127662E+03  0.00000000000E+00 0. -1.
         11    1    1    2    0    0 -0.48281380919E+02  0.31337162691E+02 -0.66209376374E+02  0.87731357158E+02  0.00000000000E+00 0.  1.
</event>
<event>
 7    1  0.2732144E-009  0.1105957E+03  0.7561462E-02  0.1259471E+00
          2   -1    0    0  501    0  0.00000000000E+00  0.00000000000E+00  0.89900067755E+02  0.89900067755E+02  0.00000000000E+00 0. -1.
         -2   -1    0    0    0  501 -0.00000000000E+00 -0.00000000000E+00 -0.19234551558E+03  0.19234551558E+03  0.00000000000E+00 0.  1.
         25    2    1    2    0    0  0.35392341551E+02 -0.67827481868E+02 -0.63219430019E+02  0.15967846632E+03  0.12508929266E+03 0.  0.
          5    1    3    3  502    0  0.64170550922E+02 -0.86874414341E+02 -0.62610936759E+02  0.12491046904E+03  0.41800000000E+01 0. -1.
         -5    1    3    3    0  502 -0.28778209371E+02  0.19046932473E+02 -0.60849325930E+00  0.34767997286E+02  0.41800000000E+01 0. -1.
        -11    1    1    2    0    0 -0.18313148481E+02  0.51720193552E+02 -0.66740520397E+02  0.86398188009E+02  0.00000000000E+00 0.  1.
         11    1    1    2    0    0 -0.17079193070E+02  0.16107288316E+02  0.27514502588E+02  0.36168929007E+02  0.00000000000E+00 0. -1.
</event>
<event>
 7    1  0.2732144E-009  0.3716946E+03  0.7561462E-02  0.1054047E+00
         -1   -1    0    0    0  501 -0.00000000000E+00  0.00000000000E+00  0.13862166309E+04  0.13862166309E+04  0.00000000000E+00 0.  1.
          1   -1    0    0  501    0  0.00000000000E+00 -0.00000000000E+00 -0.10418205217E+03  0.10418205217E+03  0.00000000000E+00 0. -1.
         25    2    1    2    0    0  0.17002087548E+03 -0.32165934674E+03  0.64824327737E+03  0.75381622226E+03  0.12509083437E+03 0.  0.
          5    1    3    3  502    0 -0.15373810023E+02 -0.27095248247E+02  0.25821278550E+02  0.40678216998E+02  0.41800000000E+01 0.  1.
         -5    1    3    3    0  502  0.18539468550E+03 -0.29456409850E+03  0.62242199882E+03  0.71313800526E+03  0.41800000000E+01 0.  1.
        -11    1    1    2    0    0 -0.78693235984E+02  0.14233756719E+03  0.37503939739E+03  0.40878742400E+03  0.00000000000E+00 0.  1.
         11    1    1    2    0    0 -0.91327639492E+02  0.17932177955E+03  0.25875190399E+03  0.32779503684E+03  0.00000000000E+00 0. -1.
</event>
<event>
 7    1  0.2732144E-009  0.1587072E+03  0.7561462E-02  0.1190164E+00
          4   -1    0    0  501    0  0.00000000000E+00  0.00000000000E+00  0.76315393472E+02  0.76315393472E+02  0.00000000000E+00 0.  1.
         -4   -1    0    0    0  501 -0.00000000000E+00 -0.00000000000E+00 -0.44568660018E+03  0.44568660018E+03  0.00000000000E+00 0. -1.
         25    2    1    2    0    0  0.14260948406E+03 -0.20881581092E+02 -0.14164453861E+03  0.23766227141E+03  0.12508666821E+03 0.  0.
          5    1    3    3  502    0  0.90501091409E+01  0.80631218923E+01 -0.90939926844E+02  0.91839322213E+02  0.41800000000E+01 0. -1.
         -5    1    3    3    0  502  0.13355937492E+03 -0.28944702985E+02 -0.50704611762E+02  0.14582294920E+03  0.41800000000E+01 0. -1.
        -11    1    1    2    0    0 -0.11330830886E+03 -0.22498497665E+02 -0.13345223014E+03  0.17650624064E+03  0.00000000000E+00 0.  1.
         11    1    1    2    0    0 -0.29301175199E+02  0.43380078757E+02 -0.94274437957E+02  0.10783348160E+03  0.00000000000E+00 0. -1.
</event>
<event>
 7    1  0.2732144E-009  0.1184478E+03  0.7561462E-02  0.1245680E+00
         -1   -1    0    0    0  501 -0.00000000000E+00  0.00000000000E+00  0.36474509918E+02  0.36474509918E+02  0.00000000000E+00 0.  1.
          1   -1    0    0  501    0  0.00000000000E+00 -0.00000000000E+00 -0.57487879837E+03  0.57487879837E+03  0.00000000000E+00 0. -1.
         25    2    1    2    0    0 -0.78123022634E+02 -0.41752667295E+02 -0.36534651972E+03  0.39619740226E+03  0.12509120749E+03 0.  0.
          5    1    3    3  502    0 -0.10884278155E+03 -0.23127998964E+02 -0.31578880853E+03  0.33484578454E+03  0.41800000000E+01 0. -1.
         -5    1    3    3    0  502  0.30719758912E+02 -0.18624668331E+02 -0.49557711190E+02  0.61351617717E+02  0.41800000000E+01 0. -1.
        -11    1    1    2    0    0  0.53724855318E+02  0.34788300440E+02 -0.31488674332E+02  0.71331076941E+02  0.00000000000E+00 0.  1.
         11    1    1    2    0    0  0.24398167317E+02  0.69643668545E+01 -0.14156909440E+03  0.14382482909E+03  0.00000000000E+00 0. -1.
</event>
<event>
 7    1  0.2732144E-009  0.1474455E+03  0.7561462E-02  0.1203648E+00
          2   -1    0    0  501    0  0.00000000000E+00  0.00000000000E+00  0.13958671450E+04  0.13958671450E+04  0.00000000000E+00 0. -1.
         -2   -1    0    0    0  501 -0.00000000000E+00 -0.00000000000E+00 -0.16099895825E+02  0.16099895825E+02  0.00000000000E+00 0.  1.
         25    2    1    2    0    0 -0.80448229696E+02 -0.66404105142E+02  0.75720675902E+03  0.77452655800E+03  0.12509152773E+03 0.  0.
          5    1    3    3  502    0  0.31201555899E+02 -0.45298593650E+01  0.22347366381E+03  0.22572551370E+03  0.41800000000E+01 0. -1.
         -5    1    3    3    0  502 -0.11164978560E+03 -0.61874245777E+02  0.53373309520E+03  0.54880104430E+03  0.41800000000E+01 0. -1.
        -11    1    1    2    0    0  0.86416025603E+01  0.62885973403E+02  0.24453513043E+03  0.25263957125E+03  0.00000000000E+00 0.  1.
         11    1    1    2    0    0  0.71806627136E+02  0.35181317395E+01  0.37802535973E+03  0.38480091157E+03  0.00000000000E+00 0. -1.
</event>
<event>
 7    1  0.2732144E-009  0.1255773E+03  0.7561462E-02  0.1234170E+00
          2   -1    0    0  501    0  0.00000000000E+00  0.00000000000E+00  0.35602126979E+02  0.35602126979E+02  0.00000000000E+00 0.  1.
         -2   -1    0    0    0  501 -0.00000000000E+00 -0.00000000000E+00 -0.85466397944E+03  0.85466397944E+03  0.00000000000E+00 0. -1.
         25    2    1    2    0    0 -0.35371339315E+02  0.88527146044E+02 -0.68376555296E+03  0.70162089755E+03  0.12509342602E+03 0.  0.
          5    1    3    3  502    0 -0.79158889231E+02  0.71305191102E+02 -0.53553119263E+03  0.54604183970E+03  0.41800000000E+01 0.  1.
         -5    1    3    3    0  502  0.43787549916E+02  0.17221954943E+02 -0.14823436033E+03  0.15557905785E+03  0.41800000000E+01 0.  1.
        -11    1    1    2    0    0 -0.41307095700E+00 -0.19856463350E+02 -0.10274433089E+03  0.10464629613E+03  0.00000000000E+00 0. -1.
         11    1    1    2    0    0  0.35784410272E+02 -0.68670682695E+02 -0.32551968610E+02  0.83998912735E+02  0.00000000000E+00 0.  1.
</event>
<event>
 7    1  0.2732144E-009  0.1017015E+03  0.7561462E-02  0.1276758E+00
         -1   -1    0    0    0  501 -0.00000000000E+00  0.00000000000E+00  0.12489688777E+03  0.12489688777E+03  0.00000000000E+00 0.  1.
          1   -1    0    0  501    0  0.00000000000E+00 -0.00000000000E+00 -0.12796881543E+03  0.12796881543E+03  0.00000000000E+00 0. -1.
         25    2    1    2    0    0 -0.54964418783E+02  0.38501806823E+02  0.10268516773E+02  0.14231802915E+03  0.12508198321E+03 0.  0.
          5    1    3    3  502    0  0.28611960707E+02  0.29177233059E+01 -0.30970609134E+02  0.42471265991E+02  0.41800000000E+01 0. -1.
         -5    1    3    3    0  502 -0.83576379490E+02  0.35584083517E+02  0.41239125906E+02  0.99846763162E+02  0.41800000000E+01 0. -1.
        -11    1    1    2    0    0  0.51201872205E+02 -0.69952308308E+01  0.27730271663E+02  0.58647531390E+02  0.00000000000E+00 0.  1.
         11    1    1    2    0    0  0.37625465783E+01 -0.31506575992E+02 -0.41070716097E+02  0.51900142661E+02  0.00000000000E+00 0. -1.
</event>
<event>
 7    1  0.2732144E-009  0.1228848E+03  0.7561462E-02  0.1238412E+00
          2   -1    0    0  501    0  0.00000000000E+00  0.00000000000E+00  0.44866458818E+03  0.44866458818E+03  0.00000000000E+00 0.  1.
         -2   -1    0    0    0  501 -0.00000000000E+00 -0.00000000000E+00 -0.55819127263E+02  0.55819127263E+02  0.00000000000E+00 0. -1.
         25    2    1    2    0    0 -0.47537039561E+02 -0.97330205153E+02  0.14880712428E+03  0.22253767511E+03  0.12508604096E+03 0.  0.
          5    1    3    3  502    0 -0.22842790967E+02 -0.72736604759E+01  0.12325429322E+03  0.12563356412E+03  0.41800000000E+01 0.  1.
         -5    1    3    3    0  502 -0.24694248595E+02 -0.90056544677E+02  0.25552831059E+02  0.96904110996E+02  0.41800000000E+01 0.  1.
        -11    1    1    2    0    0  0.10217984296E+02 -0.10018555448E+02  0.18653716509E+01  0.14431156146E+02  0.00000000000E+00 0. -1.
         11    1    1    2    0    0  0.37319055266E+02  0.10734876060E+03  0.24217296499E+03  0.26751488419E+03  0.00000000000E+00 0.  1.
</event>
<event>
 7    1  0.2732144E-009  0.9375698E+02  0.7561462E-02  0.1294000E+00
          1   -1    0    0  501    0  0.00000000000E+00  0.00000000000E+00  0.94669172425E+02  0.94669172425E+02  0.00000000000E+00 0. -1.
         -1   -1    0    0    0  501 -0.00000000000E+00 -0.00000000000E+00 -0.18681248006E+03  0.18681248006E+03  0.00000000000E+00 0.  1.
         25    2    1    2    0    0 -0.13641623545E+02  0.11075683277E+02  0.28317630204E+02  0.12945481062E+03  0.12509154711E+03 0.  0.
          5    1    3    3  502    0  0.53440933272E+01 -0.40165600615E+02 -0.29114348725E+02  0.50069476810E+02  0.41800000000E+01 0. -1.
         -5    1    3    3    0  502 -0.18985716872E+02  0.51241283893E+02  0.57431978929E+02  0.79385333808E+02  0.41800000000E+01 0. -1.
        -11    1    1    2    0    0 -0.18391603105E+02  0.32826720310E+02 -0.59071440985E+02  0.70037702498E+02  0.00000000000E+00 0.  1.
         11    1    1    2    0    0  0.32033226649E+02 -0.43902403587E+02 -0.61389496851E+02  0.81989139366E+02  0.00000000000E+00 0. -1.
</event>
<event>
 7    1  0.2732144E-009  0.1209656E+03  0.7561462E-02  0.1241513E+00
         -2   -1    0    0    0  501 -0.00000000000E+00  0.00000000000E+00  0.61677990646E+03  0.61677990646E+03  0.00000000000E+00 0.  1.
          2   -1    0    0  501    0  0.00000000000E+00 -0.00000000000E+00 -0.26169206019E+02  0.26169206019E+02  0.00000000000E+00 0. -1.
         25    2    1    2    0    0  0.43780825924E+02  0.30551696408E+02  0.23368924997E+03  0.27037558944E+03  0.12506848901E+03 0.  0.
          5    1    3    3  502    0 -0.17914088515E+02 -0.38874146175E+02  0.75292347281E+02  0.86709421445E+02  0.41800000000E+01 0. -1.
         -5    1    3    3    0  502  0.61694914439E+02  0.69425842582E+02  0.15839690269E+03  0.18366616800E+03  0.41800000000E+01 0. -1.
        -11    1    1    2    0    0 -0.63940139630E+02 -0.47470123193E+02  0.28769264000E+03  0.29851098667E+03  0.00000000000E+00 0. -1.
         11    1    1    2    0    0  0.20159313705E+02  0.16918426785E+02  0.69228810464E+02  0.74062536361E+02  0.00000000000E+00 0.  1.
</event>
<event>
 7    1  0.2732144E-009  0.1589781E+03  0.7561462E-02  0.1189855E+00
          1   -1    0    0  501    0  0.00000000000E+00  0.00000000000E+00  0.34993483877E+03  0.34993483877E+03  0.00000000000E+00 0. -1.
         -1   -1    0    0    0  501 -0.00000000000E+00 -0.00000000000E+00 -0.77688221906E+02  0.77688221906E+02  0.00000000000E+00 0.  1.
         25    2    1    2    0    0 -0.12166804386E+03 -0.43602260631E+01  0.17947525534E+03  0.25035746529E+03  0.12508144818E+03 0.  0.
          5    1    3    3  502    0 -0.88035010925E+01  0.48732916800E+02  0.48361818133E+02  0.69345055083E+02  0.41800000000E+01 0. -1.
         -5    1    3    3    0  502 -0.11286454277E+03 -0.53093142863E+02  0.13111343721E+03  0.18101241021E+03  0.41800000000E+01 0. -1.
        -11    1    1    2    0    0  0.13246769041E+03  0.56182072544E+01  0.98315327324E+02  0.16506107003E+03  0.00000000000E+00 0. -1.
         11    1    1    2    0    0 -0.10799646545E+02 -0.12579811913E+01 -0.55439658028E+01  0.12204525349E+02  0.00000000000E+00 0.  1.
</event>
<event>
 7    1  0.2919471E-009  0.2074731E+03  0.7561462E-02  0.1143583E+00
          2   -1    0    0  501    0  0.00000000000E+00  0.00000000000E+00  0.44107911234E+03  0.44107911234E+03  0.00000000000E+00 0. -1.
         -2   -1    0    0    0  501 -0.00000000000E+00 -0.00000000000E+00 -0.15924763924E+03  0.15924763924E+03  0.00000000000E+00 0.  1.
         25    2    1    2    0    0  0.17842917709E+03 -0.74826788403E+02  0.30819803812E+03  0.38479387909E+03  0.12507709297E+03 0.  0.
          5    1    3    3  502    0  0.51921053191E+02 -0.72728546653E+02  0.19674766875E+03  0.21613041161E+03  0.41800000000E+01 0. -1.
         -5    1    3    3    0  502  0.12650812389E+03 -0.20982417499E+01  0.11145036936E+03  0.16866346748E+03  0.41800000000E+01 0. -1.
        -11    1    1    2    0    0 -0.12226706480E+03  0.27199472267E+02  0.22356140444E+02  0.12723538597E+03  0.00000000000E+00 0. -1.
         11    1    1    2    0    0 -0.56162112281E+02  0.47627316136E+02 -0.48722705462E+02  0.88297486520E+02  0.00000000000E+00 0.  1.
</event>
<event>
 7    1  0.2732144E-009  0.1840209E+03  0.7561462E-02  0.1163967E+00
          2   -1    0    0  501    0  0.00000000000E+00  0.00000000000E+00  0.15737899778E+03  0.15737899778E+03  0.00000000000E+00 0.  1.
         -2   -1    0    0    0  501 -0.00000000000E+00 -0.00000000000E+00 -0.23980918640E+03  0.23980918640E+03  0.00000000000E+00 0. -1.
         25    2    1    2    0    0 -0.11496219816E+03  0.10842361853E+03 -0.10657973407E+02  0.20182507664E+03  0.12509109122E+03 0.  0.
          5    1    3    3  502    0 -0.12463902404E+03  0.55696501648E+02  0.22834199912E+02  0.13847692839E+03  0.41800000000E+01 0.  1.
         -5    1    3    3    0  502  0.96768258780E+01  0.52727116884E+02 -0.33492173319E+02  0.63348148257E+02  0.41800000000E+01 0.  1.
        -11    1    1    2    0    0 -0.11731801848E+02 -0.20011850522E+02  0.35832112516E+01  0.23472297263E+02  0.00000000000E+00 0.  1.
         11    1    1    2    0    0  0.12669400001E+03 -0.88411768010E+02 -0.75355426468E+02  0.17189081028E+03  0.00000000000E+00 0. -1.
</event>
<event>
 7    1  0.2732144E-009  0.1340769E+03  0.7561462E-02  0.1221529E+00
          1   -1    0    0  501    0  0.00000000000E+00  0.00000000000E+00  0.10592731534E+04  0.10592731534E+04  0.00000000000E+00 0. -1.
         -1   -1    0    0    0  501 -0.00000000000E+00 -0.00000000000E+00 -0.19797662907E+02  0.19797662907E+02  0.00000000000E+00 0.  1.
         25    2    1    2    0    0 -0.73888371599E+02  0.53544054923E+02  0.68039758384E+03  0.69779293174E+03  0.12509055206E+03 0.  0.
          5    1    3    3  502    0  0.32554043869E+02  0.30461021665E+02  0.23716134661E+03  0.24135164457E+03  0.41800000000E+01 0. -1.
         -5    1    3    3    0  502 -0.10644241547E+03  0.23083033259E+02  0.44323623723E+03  0.45644128717E+03  0.41800000000E+01 0. -1.
        -11    1    1    2    0    0  0.34051850423E+02  0.13305924310E+02  0.46457963414E+02  0.59117835748E+02  0.00000000000E+00 0.  1.
         11    1    1    2    0    0  0.39836521176E+02 -0.66849979234E+02  0.31261994319E+03  0.32216004877E+03  0.00000000000E+00 0. -1.
</event>
<event>
 7    1  0.2732144E-009  0.2658490E+03  0.7561462E-02  0.1103679E+00
         -2   -1    0    0    0  501 -0.00000000000E+00  0.00000000000E+00  0.14670499511E+03  0.14670499511E+03  0.00000000000E+00 0.  1.
          2   -1    0    0  501    0  0.00000000000E+00 -0.00000000000E+00 -0.49956789607E+03  0.49956789607E+03  0.00000000000E+00 0. -1.
         25    2    1    2    0    0  0.20918887789E+03 -0.13175541416E+03 -0.16341517209E+03  0.32166967084E+03  0.12508949947E+03 0.  0.
          5    1    3    3  502    0  0.49998621631E+02  0.14714710793E+02 -0.66499557231E+02  0.84593429950E+02  0.41800000000E+01 0.  1.
         -5    1    3    3    0  502  0.15919025626E+03 -0.14647012496E+03 -0.96915614857E+02  0.23707624089E+03  0.41800000000E+01 0.  1.
        -11    1    1    2    0    0 -0.16264106944E+03  0.14139960866E+03 -0.16293091430E+03  0.27017114878E+03  0.00000000000E+00 0.  1.
         11    1    1    2    0    0 -0.46547808456E+02 -0.96441944981E+01 -0.26516814570E+02  0.54432071562E+02  0.00000000000E+00 0. -1.
</event>
<event>
 7    1  0.2732144E-009  0.1057933E+03  0.7561462E-02  0.1268564E+00
          2   -1    0    0  501    0  0.00000000000E+00  0.00000000000E+00  0.26420464716E+03  0.26420464716E+03  0.00000000000E+00 0. -1.
         -2   -1    0    0    0  501 -0.00000000000E+00 -0.00000000000E+00 -0.81804560611E+02  0.81804560611E+02  0.00000000000E+00 0.  1.
         25    2    1    2    0    0  0.54368923329E+02 -0.73733338880E+02  0.61713129972E+02  0.16687833195E+03  0.12508909695E+03 0.  0.
          5    1    3    3  502    0  0.24757239921E+02 -0.29574410228E+02 -0.37679351294E+02  0.54081166618E+02  0.41800000000E+01 0. -1.
         -5    1    3    3    0  502  0.29611683408E+02 -0.44158928651E+02  0.99392481265E+02  0.11279716533E+03  0.41800000000E+01 0. -1.
        -11    1    1    2    0    0 -0.19479422853E+02 -0.14692752162E+02  0.63901695975E+02  0.68401400785E+02  0.00000000000E+00 0. -1.
         11    1    1    2    0    0 -0.34889500476E+02  0.88426091042E+02  0.56785260598E+02  0.11072947504E+03  0.00000000000E+00 0.  1.
</event>
<event>
 7    1  0.2732144E-009  0.2529913E+03  0.7561462E-02  0.1111429E+00
          1   -1    0    0  501    0  0.00000000000E+00  0.00000000000E+00  0.30159570580E+03  0.30159570580E+03  0.00000000000E+00 0. -1.
         -1   -1    0    0    0  501 -0.00000000000E+00 -0.00000000000E+00 -0.24407283491E+03  0.24407283491E+03  0.00000000000E+00 0.  1.
         25    2    1    2    0    0  0.45566948255E+02  0.22920818449E+03  0.11448534132E+03  0.28874070004E+03  0.12510619439E+03 0.  0.
          5    1    3    3  502    0 -0.33451875639E+02  0.29747311372E+02  0.43920957006E+02  0.62852632260E+02  0.41800000000E+01 0. -1.
         -5    1    3    3    0  502  0.79018823894E+02  0.19946087312E+03  0.70564384311E+02  0.22588806778E+03  0.41800000000E+01 0. -1.
        -11    1    1    2    0    0 -0.56902946796E+01 -0.19141117044E+03 -0.24357735689E+02  0.19303863580E+03  0.00000000000E+00 0.  1.
         11    1    1    2    0    0 -0.39876653576E+02 -0.37797014046E+02 -0.32604734741E+02  0.63889204869E+02  0.00000000000E+00 0. -1.
</event>
<event>
 7    1  0.2732144E-009  0.1043091E+03  0.7561462E-02  0.1271487E+00
         -2   -1    0    0    0  501 -0.00000000000E+00  0.00000000000E+00  0.61144649670E+03  0.61144649670E+03  0.00000000000E+00 0.  1.
          2   -1    0    0  501    0  0.00000000000E+00 -0.00000000000E+00 -0.25513779885E+02  0.25513779885E+02  0.00000000000E+00 0. -1.
         25    2    1    2    0    0 -0.16071232793E+02 -0.59533191971E+02  0.29378960400E+03  0.32521094109E+03  0.12508932536E+03 0.  0.
          5    1    3    3  502    0 -0.69802208360E+02 -0.22657769402E+02  0.17120640959E+03  0.18631916137E+03  0.41800000000E+01 0.  1.
         -5    1    3    3    0  502  0.53730975567E+02 -0.36875422569E+02  0.12258319441E+03  0.13889177973E+03  0.41800000000E+01 0.  1.
        -11    1    1    2    0    0  0.32406219239E+01  0.56543171133E+02  0.29311750835E+03  0.29853895145E+03  0.00000000000E+00 0.  1.
         11    1    1    2    0    0  0.12830610869E+02  0.29900208386E+01 -0.97439553260E+00  0.13210384042E+02  0.00000000000E+00 0. -1.
</event>
<event>
 7    1  0.2732144E-009  0.1944416E+03  0.7561462E-02  0.1154515E+00
          2   -1    0    0  501    0  0.00000000000E+00  0.00000000000E+00  0.85414102133E+03  0.85414102133E+03  0.00000000000E+00 0. -1.
         -2   -1    0    0    0  501 -0.00000000000E+00 -0.00000000000E+00 -0.55047950046E+02  0.55047950046E+02  0.00000000000E+00 0.  1.
         25    2    1    2    0    0  0.18763680100E+03 -0.88465179267E+01  0.40990909886E+03  0.46793153359E+03  0.12509444766E+03 0.  0.
          5    1    3    3  502    0  0.21280449195E+02  0.15809974242E+02  0.22573498499E+01  0.26932894976E+02  0.41800000000E+01 0.  1.
         -5    1    3    3    0  502  0.16635635181E+03 -0.24656492169E+02  0.40765174901E+03  0.44099863862E+03  0.41800000000E+01 0.  1.
        -11    1    1    2    0    0 -0.59074084500E+02 -0.19423139802E+02  0.58665384854E+02  0.85490544502E+02  0.00000000000E+00 0.  1.
         11    1    1    2    0    0 -0.12856271650E+03  0.28269657729E+02  0.33051858758E+03  0.35576689329E+03  0.00000000000E+00 0. -1.
</event>
<event>
 7    1  0.2732144E-009  0.1182067E+03  0.7561462E-02  0.1246085E+00
          2   -1    0    0  501    0  0.00000000000E+00  0.00000000000E+00  0.20561369353E+03  0.20561369353E+03  0.00000000000E+00 0. -1.
         -2   -1    0    0    0  501 -0.00000000000E+00 -0.00000000000E+00 -0.12909230534E+03  0.12909230534E+03  0.00000000000E+00 0.  1.
         25    2    1    2    0    0  0.39108586338E+01  0.72852991715E+02  0.13208744540E+03  0.19597708847E+03  0.12504828169E+03 0.  0.
          5    1    3    3  502    0 -0.23945808792E+02  0.99910874106E+02  0.77058591830E+02  0.12849546100E+03  0.41800000000E+01 0. -1.
         -5    1    3    3    0  502  0.27856667425E+02 -0.27057882391E+02  0.55028853572E+02  0.67481627463E+02  0.41800000000E+01 0. -1.
        -11    1    1    2    0    0 -0.16378276485E+02  0.38456896753E+01  0.22822224907E+02  0.28352975495E+02  0.00000000000E+00 0. -1.
         11    1    1    2    0    0  0.12467417852E+02 -0.76698681390E+02 -0.78388282118E+02  0.11037593491E+03  0.00000000000E+00 0.  1.
</event>
<event>
 7    1  0.2732144E-009  0.1100038E+03  0.7561462E-02  0.1260563E+00
          1   -1    0    0  501    0  0.00000000000E+00  0.00000000000E+00  0.27774931710E+03  0.27774931710E+03  0.00000000000E+00 0. -1.
         -1   -1    0    0    0  501 -0.00000000000E+00 -0.00000000000E+00 -0.58627723141E+02  0.58627723141E+02  0.00000000000E+00 0.  1.
         25    2    1    2    0    0  0.53871069039E+02 -0.39925697717E+02  0.13043258258E+03  0.19276009499E+03  0.12509053602E+03 0.  0.
          5    1    3    3  502    0 -0.19063844644E+02 -0.60569843330E+02  0.42169697041E+02  0.76340630350E+02  0.41800000000E+01 0.  1.
         -5    1    3    3    0  502  0.72934913683E+02  0.20644145613E+02  0.88262885543E+02  0.11641946464E+03  0.41800000000E+01 0.  1.
        -11    1    1    2    0    0 -0.11458868308E+02  0.36095710354E+02  0.93387105446E+02  0.10077379338E+03  0.00000000000E+00 0. -1.
         11    1    1    2    0    0 -0.42412200731E+02  0.38299873631E+01 -0.46980940752E+01  0.42843151868E+02  0.00000000000E+00 0.  1.
</event>
<event>
 7    1  0.2732144E-009  0.2388607E+03  0.7561462E-02  0.1120554E+00
         -2   -1    0    0    0  501 -0.00000000000E+00  0.00000000000E+00  0.35660808877E+03  0.35660808877E+03  0.00000000000E+00 0.  1.
          2   -1    0    0  501    0  0.00000000000E+00 -0.00000000000E+00 -0.18090515849E+03  0.18090515849E+03  0.00000000000E+00 0. -1.
         25    2    1    2    0    0 -0.38227216192E+02 -0.22580399369E+03  0.10628169464E+03  0.28176811854E+03  0.12509480560E+03 0.  0.
          5    1    3    3  502    0  0.13744314288E+02 -0.58699683023E+02  0.86620384840E+02  0.10561781304E+03  0.41800000000E+01 0.  1.
         -5    1    3    3    0  502 -0.51971530480E+02 -0.16710431067E+03  0.19661309799E+02  0.17615030550E+03  0.41800000000E+01 0.  1.
        -11    1    1    2    0    0  0.84618337011E+01  0.20669562258E+03  0.74781339433E+02  0.21997029743E+03  0.00000000000E+00 0.  1.
         11    1    1    2    0    0  0.29765382490E+02  0.19108371114E+02 -0.53601037900E+01  0.35774831294E+02  0.00000000000E+00 0. -1.
</event>
<event>
 7    1  0.2732144E-009  0.1435740E+03  0.7561462E-02  0.1208599E+00
          2   -1    0    0  501    0  0.00000000000E+00  0.00000000000E+00  0.95637462104E+03  0.95637462104E+03  0.00000000000E+00 0. -1.
         -2   -1    0    0    0  501 -0.00000000000E+00 -0.00000000000E+00 -0.28539204406E+02  0.28539204406E+02  0.00000000000E+00 0.  1.
         25    2    1    2    0    0  0.11739161553E+03 -0.28341800675E+02  0.41719591140E+03  0.45197687803E+03  0.12508645299E+03 0.  0.
          5    1    3    3  502    0  0.43293604738E+01 -0.25258336623E+02  0.76345676970E+01  0.27064477734E+02  0.41800000000E+01 0.  1.
         -5    1    3    3    0  502  0.11306225506E+03 -0.30834640515E+01  0.40956134370E+03  0.42491240029E+03  0.41800000000E+01 0.  1.
        -11    1    1    2    0    0 -0.17119443085E+02 -0.28122979387E+02  0.17628238433E+03  0.17933057834E+03  0.00000000000E+00 0. -1.
         11    1    1    2    0    0 -0.10027217245E+03  0.56464780062E+02  0.33435712091E+03  0.35360636909E+03  0.00000000000E+00 0.  1.
</event>
<event>
 7    1  0.2732144E-009  0.8245394E+02  0.7561462E-02  0.1322228E+00
         -1   -1    0    0    0  501 -0.00000000000E+00  0.00000000000E+00  0.38673725558E+03  0.38673725558E+03  0.00000000000E+00 0.  1.
          1   -1    0    0  501    0  0.00000000000E+00 -0.00000000000E+00 -0.38130115031E+02  0.38130115031E+02  0.00000000000E+00 0. -1.
         25    2    1    2    0    0 -0.40218641439E+02 -0.29522552509E+02  0.15801590119E+03  0.20761841628E+03  0.12508901441E+03 0.  0.
          5    1    3    3  502    0 -0.26376959029E+02 -0.54944556969E+02  0.16734456113E+02  0.63341635040E+02  0.41800000000E+01 0.  1.
         -5    1    3    3    0  502 -0.13841682409E+02  0.25422004460E+02  0.14128144507E+03  0.14427678124E+03  0.41800000000E+01 0.  1.
        -11    1    1    2    0    0  0.20257673461E+01 -0.15442245011E+02 -0.21120489364E+01  0.15717105810E+02  0.00000000000E+00 0. -1.
         11    1    1    2    0    0  0.38192874093E+02  0.44964797520E+02  0.19270328830E+03  0.20153184852E+03  0.00000000000E+00 0.  1.
</event>
<event>
 7    1  0.2732144E-009  0.1114008E+03  0.7561462E-02  0.1257998E+00
          2   -1    0    0  501    0  0.00000000000E+00  0.00000000000E+00  0.30160390616E+03  0.30160390616E+03  0.00000000000E+00 0. -1.
         -2   -1    0    0    0  501 -0.00000000000E+00 -0.00000000000E+00 -0.77015492964E+02  0.77015492964E+02  0.00000000000E+00 0.  1.
         25    2    1    2    0    0 -0.39147898453E+02 -0.80772697134E+02  0.18815283438E+03  0.24311465591E+03  0.12508581165E+03 0.  0.
          5    1    3    3  502    0  0.37720411315E+01 -0.12053813595E+02  0.15484367155E+03  0.15541414909E+03  0.41800000000E+01 0. -1.
         -5    1    3    3    0  502 -0.42919939585E+02 -0.68718883539E+02  0.33309162830E+02  0.87700506824E+02  0.41800000000E+01 0. -1.
        -11    1    1    2    0    0 -0.28084701493E+02  0.78043733143E+01  0.18919230006E+02  0.34750481505E+02  0.00000000000E+00 0.  1.
         11    1    1    2    0    0  0.67232599947E+02  0.72968323820E+02  0.17516348807E+02  0.10075426171E+03  0.00000000000E+00 0. -1.
</event>
<event>
 7    1  0.2732144E-009  0.1265659E+03  0.7561462E-02  0.1232642E+00
          2   -1    0    0  501    0  0.00000000000E+00  0.00000000000E+00  0.29989998037E+03  0.29989998037E+03  0.00000000000E+00 0.  1.
         -2   -1    0    0    0  501 -0.00000000000E+00 -0.00000000000E+00 -0.74637437566E+02  0.74637437566E+02  0.00000000000E+00 0. -1.
         25    2    1    2    0    0  0.75508940790E+02  0.17265193865E+02  0.38258960169E+02  0.15198988615E+03  0.12504995162E+03 0.  0.
          5    1    3    3  502    0  0.47904750279E+02  0.65104354042E+02 -0.58987414437E+01  0.81152384839E+02  0.41800000000E+01 0.  1.
         -5    1    3    3    0  502  0.27604190511E+02 -0.47839160176E+02  0.44157701612E+02  0.70837501310E+02  0.41800000000E+01 0.  1.
        -11    1    1    2    0    0 -0.87728394534E+02 -0.35677805381E+02  0.17024187968E+03  0.19481138211E+03  0.00000000000E+00 0.  1.
         11    1    1    2    0    0  0.12219453744E+02  0.18412611515E+02  0.16761702954E+02  0.27736149670E+02  0.00000000000E+00 0. -1.
</event>
<event>
 7    1  0.3073510E-009  0.8715932E+02  0.7561462E-02  0.1309880E+00
         -3   -1    0    0    0  501 -0.00000000000E+00  0.00000000000E+00  0.79267662781E+02  0.79267662781E+02  0.00000000000E+00 0.  1.
          3   -1    0    0  501    0  0.00000000000E+00 -0.00000000000E+00 -0.18229324409E+03  0.18229324409E+03  0.00000000000E+00 0. -1.
         25    2    1    2    0    0  0.35639389033E+02 -0.62070198924E+01 -0.18089705519E+02  0.13146492539E+03  0.12508835284E+03 0.  0.
          5    1    3    3  502    0 -0.20547253831E+02 -0.37282662279E+02 -0.44670118344E+02  0.61847218365E+02  0.41800000000E+01 0.  1.
         -5    1    3    3    0  502  0.56186642864E+02  0.31075642386E+02  0.26580412825E+02  0.69617707029E+02  0.41800000000E+01 0.  1.
        -11    1    1    2    0    0 -0.38402983764E+02  0.26539390738E+02 -0.42868652274E+01  0.46877560050E+02  0.00000000000E+00 0.  1.
         11    1    1    2    0    0  0.27635947311E+01 -0.20332370846E+02 -0.80649010566E+02  0.83218421431E+02  0.00000000000E+00 0. -1.
</event>
<event>
 7    1  0.2732144E-009  0.1028613E+03  0.7561462E-02  0.1274391E+00
         -1   -1    0    0    0  501 -0.00000000000E+00  0.00000000000E+00  0.90058120861E+01  0.90058120861E+01  0.00000000000E+00 0.  1.
          1   -1    0    0  501    0  0.00000000000E+00 -0.00000000000E+00 -0.17513149724E+04  0.17513149724E+04  0.00000000000E+00 0. -1.
         25    2    1    2    0    0  0.42423739726E+02  0.22031296715E+02 -0.12920796261E+04  0.12990008611E+04  0.12509326619E+03 0.  0.
          5    1    3    3  502    0  0.98993892007E+01  0.56682396259E+02 -0.10834991393E+04  0.10850339852E+04  0.41800000000E+01 0. -1.
         -5    1    3    3    0  502  0.32524350526E+02 -0.34651099544E+02 -0.20858048680E+03  0.21396687582E+03  0.41800000000E+01 0. -1.
        -11    1    1    2    0    0  0.27087742274E+02 -0.13575954319E+02 -0.15045948449E+03  0.15347999475E+03  0.00000000000E+00 0.  1.
         11    1    1    2    0    0 -0.69511482000E+02 -0.84553423961E+01 -0.29977004981E+03  0.30783992871E+03  0.00000000000E+00 0. -1.
</event>
<event>
 7    1  0.2732144E-009  0.1316728E+03  0.7561462E-02  0.1224994E+00
          1   -1    0    0  501    0  0.00000000000E+00  0.00000000000E+00  0.27200543390E+02  0.27200543390E+02  0.00000000000E+00 0. -1.
         -1   -1    0    0    0  501 -0.00000000000E+00 -0.00000000000E+00 -0.68266844640E+03  0.68266844640E+03  0.00000000000E+00 0.  1.
         25    2    1    2    0    0 -0.66805619732E+01  0.80834754775E+02 -0.36147608654E+03  0.39101363275E+03  0.12509121620E+03 0.  0.
          5    1    3    3  502    0  0.26176968252E+01 -0.29092382774E+02 -0.14544842545E+03  0.14841137402E+03  0.41800000000E+01 0. -1.
         -5    1    3    3    0  502 -0.92982587984E+01  0.10992713755E+03 -0.21602766108E+03  0.24260225873E+03  0.41800000000E+01 0. -1.
        -11    1    1    2    0    0 -0.38302133387E+02 -0.65569597903E+02 -0.18153917681E+03  0.19678134644E+03  0.00000000000E+00 0. -1.
         11    1    1    2    0    0  0.44982695361E+02 -0.15265156873E+02 -0.11245263966E+03  0.12207401060E+03  0.00000000000E+00 0.  1.
</event>
<event>
 7    1  0.2732144E-009  0.1244770E+03  0.7561462E-02  0.1235889E+00
          2   -1    0    0  501    0  0.00000000000E+00  0.00000000000E+00  0.71152550554E+03  0.71152550554E+03  0.00000000000E+00 0. -1.
         -2   -1    0    0    0  501 -0.00000000000E+00 -0.00000000000E+00 -0.31547414676E+02  0.31547414676E+02  0.00000000000E+00 0.  1.
         25    2    1    2    0    0  0.91635632650E+02 -0.89009907681E+01  0.47721120580E+03  0.50185005268E+03  0.12508646461E+03 0.  0.
          5    1    3    3  502    0  0.10759993375E+03 -0.43387990917E+02  0.33298421849E+03  0.35264178094E+03  0.41800000000E+01 0. -1.
         -5    1    3    3    0  502 -0.15964301099E+02  0.34487000149E+02  0.14422698731E+03  0.14920827175E+03  0.41800000000E+01 0. -1.
        -11    1    1    2    0    0 -0.57539719144E+02  0.16164848918E+02  0.33729144903E+02  0.68627813863E+02  0.00000000000E+00 0.  1.
         11    1    1    2    0    0 -0.34095913507E+02 -0.72638581503E+01  0.16903774017E+03  0.17259505368E+03  0.00000000000E+00 0. -1.
</event>
<event>
 6    1  0.2732144E-009  0.1265357E+03  0.7561462E-02  0.1232689E+00
         -1   -1    0    0    0  501 -0.00000000000E+00  0.00000000000E+00  0.24909446414E+02  0.24909446414E+02  0.00000000000E+00 0.  1.
          1   -1    0    0  501    0  0.00000000000E+00 -0.00000000000E+00 -0.78784101455E+03  0.78784101455E+03  0.00000000000E+00 0. -1.
          5    1    1    2  502    0 -0.31780521180E+02 -0.35945620140E+02 -0.89183369410E+02  0.10135696776E+03  0.41800000000E+01 0. -1.
         -5    1    1    2    0  502  0.87035676922E+02 -0.27821678859E+02 -0.41506419554E+03  0.42502354487E+03  0.41800000000E+01 0. -1.
        -11    1    1    2    0    0 -0.48138930377E+02  0.81319558432E+02 -0.15949176966E+03  0.18538568389E+03  0.00000000000E+00 0.  1.
         11    1    1    2    0    0 -0.71162253653E+01 -0.17552259433E+02 -0.99192233525E+02  0.10098426445E+03  0.00000000000E+00 0. -1.
</event>
<event>
 7    1  0.2732144E-009  0.1391896E+03  0.7561462E-02  0.1214424E+00
          1   -1    0    0  501    0  0.00000000000E+00  0.00000000000E+00  0.30848516542E+03  0.30848516542E+03  0.00000000000E+00 0. -1.
         -1   -1    0    0    0  501 -0.00000000000E+00 -0.00000000000E+00 -0.75185744954E+02  0.75185744954E+02  0.00000000000E+00 0.  1.
         25    2    1    2    0    0  0.15506221164E+02  0.90797091583E+02  0.17438825554E+03  0.23354683837E+03  0.12509319449E+03 0.  0.
          5    1    3    3  502    0  0.63517922412E+02  0.82078094235E+02  0.13703809691E+03  0.17195421608E+03  0.41800000000E+01 0.  1.
         -5    1    3    3    0  502 -0.48011701248E+02  0.87189973484E+01  0.37350158623E+02  0.61592622291E+02  0.41800000000E+01 0.  1.
        -11    1    1    2    0    0  0.35167745543E+02 -0.28751255325E+02  0.52991447028E+02  0.69796120719E+02  0.00000000000E+00 0.  1.
         11    1    1    2    0    0 -0.50673966707E+02 -0.62045836258E+02  0.59197179060E+01  0.80327951292E+02  0.00000000000E+00 0. -1.
</event>
<event>
 7    1  0.2732144E-009  0.1073534E+03  0.7561462E-02  0.1265551E+00
          2   -1    0    0  501    0  0.00000000000E+00  0.00000000000E+00  0.70229094476E+02  0.70229094476E+02  0.00000000000E+00 0. -1.
         -2   -1    0    0    0  501 -0.00000000000E+00 -0.00000000000E+00 -0.26705067655E+03  0.26705067655E+03  0.00000000000E+00 0.  1.
         25    2    1    2    0    0 -0.35202628458E+02 -0.74914818697E+02 -0.11575788950E+03  0.18947377368E+03  0.12509583055E+03 0.  0.
          5    1    3    3  502    0 -0.69562656868E+02 -0.33414027287E+02 -0.20504651985E+02  0.79958574294E+02  0.41800000000E+01 0.  1.
         -5    1    3    3    0  502  0.34360028410E+02 -0.41500791410E+02 -0.95253237515E+02  0.10951519939E+03  0.41800000000E+01 0.  1.
        -11    1    1    2    0    0  0.19269817777E+02  0.29343800754E+02  0.16622546559E+02  0.38841904870E+02  0.00000000000E+00 0. -1.
         11    1    1    2    0    0  0.15932810681E+02  0.45571017943E+02 -0.97686239130E+02  0.10896409247E+03  0.00000000000E+00 0.  1.
</event>
<event>
 7    1  0.2732144E-009  0.2268836E+03  0.7561462E-02  0.1128853E+00
         -1   -1    0    0    0  501 -0.00000000000E+00  0.00000000000E+00  0.40001578448E+03  0.40001578448E+03  0.00000000000E+00 0.  1.
          1   -1    0    0  501    0  0.00000000000E+00 -0.00000000000E+00 -0.15604903180E+03  0.15604903180E+03  0.00000000000E+00 0. -1.
         25    2    1    2    0    0  0.51230404344E+02 -0.21217700746E+03  0.18651745945E+03  0.31317677359E+03  0.12508913627E+03 0.  0.
          5    1    3    3  502    0  0.52327136085E+02 -0.20145671782E+03  0.20448500783E+03  0.29181248972E+03  0.41800000000E+01 0.  1.
         -5    1    3    3    0  502 -0.10967317407E+01 -0.10720289641E+02 -0.17967548384E+02  0.21364283874E+02  0.41800000000E+01 0.  1.
        -11    1    1    2    0    0  0.23285228573E+02  0.65294039147E+02  0.28854007795E+01  0.69381834478E+02  0.00000000000E+00 0.  1.
         11    1    1    2    0    0 -0.74515632917E+02  0.14688296832E+03  0.54563892453E+02  0.17350620822E+03  0.00000000000E+00 0. -1.
</event>
<event>
 7    1  0.2732144E-009  0.8405347E+02  0.7561462E-02  0.1317927E+00
         -2   -1    0    0    0  501 -0.00000000000E+00  0.00000000000E+00  0.11207744871E+02  0.11207744871E+02  0.00000000000E+00 0. -1.
          2   -1    0    0  501    0  0.00000000000E+00 -0.00000000000E+00 -0.15612683281E+04  0.15612683281E+04  0.00000000000E+00 0.  1.
         25    2    1    2    0    0  0.22989783734E+02 -0.40063579744E+02 -0.11931464066E+04  0.12005745940E+04  0.12508951839E+03 0.  0.
          5    1    3    3  502    0 -0.15085052712E+02 -0.16048943892E+02 -0.35116543902E+02  0.41662590786E+02  0.41800000000E+01 0.  1.
         -5    1    3    3    0  502  0.38074836446E+02 -0.24014635852E+02 -0.11580298627E+04  0.11589120032E+04  0.41800000000E+01 0.  1.
        -11    1    1    2    0    0 -0.26351884171E+02 -0.24408524930E+02 -0.18064647275E+03  0.18418291453E+03  0.00000000000E+00 0.  1.
         11    1    1    2    0    0  0.33621004367E+01  0.64472104675E+02 -0.17626770381E+03  0.18771856437E+03  0.00000000000E+00 0. -1.
</event>
<event>
 7    1  0.2732144E-009  0.8484019E+02  0.7561462E-02  0.1315851E+00
          1   -1    0    0  501    0  0.00000000000E+00  0.00000000000E+00  0.29850886688E+02  0.29850886688E+02  0.00000000000E+00 0. -1.
         -1   -1    0    0    0  501 -0.00000000000E+00 -0.00000000000E+00 -0.53521127166E+03  0.53521127166E+03  0.00000000000E+00 0.  1.
         25    2    1    2    0    0 -0.49699492685E+02 -0.24789023552E+02 -0.20404054470E+03  0.24569333354E+03  0.12509250578E+03 0.  0.
          5    1    3    3  502    0  0.58324231820E+01  0.47465242196E+01  0.15257077965E+02  0.17515635312E+02  0.41800000000E+01 0.  1.
         -5    1    3    3    0  502 -0.55531915867E+02 -0.29535547771E+02 -0.21929762266E+03  0.22817769822E+03  0.41800000000E+01 0.  1.
        -11    1    1    2    0    0  0.25652486775E+02  0.54251208669E+02 -0.23850439846E+03  0.24593818696E+03  0.00000000000E+00 0.  1.
         11    1    1    2    0    0  0.24047005910E+02 -0.29462185117E+02 -0.62815441817E+02  0.73430637855E+02  0.00000000000E+00 0. -1.
</event>
<event>
 7    1  0.2732144E-009  0.1164270E+03  0.7561462E-02  0.1249110E+00
          3   -1    0    0  501    0  0.00000000000E+00  0.00000000000E+00  0.15954405106E+03  0.15954405106E+03  0.00000000000E+00 0. -1.
         -3   -1    0    0    0  501 -0.00000000000E+00 -0.00000000000E+00 -0.92518184381E+02  0.92518184381E+02  0.00000000000E+00 0.  1.
         25    2    1    2    0    0 -0.58725412244E+00 -0.51974548507E+02  0.11392361373E+02  0.13593835264E+03  0.12509097194E+03 0.  0.
          5    1    3    3  502    0  0.43286519751E+01  0.41334525558E+02  0.65547058618E+01  0.42281400165E+02  0.41800000000E+01 0. -1.
         -5    1    3    3    0  502 -0.49159060976E+01 -0.93309074065E+02  0.48376555117E+01  0.93656952472E+02  0.41800000000E+01 0. -1.
        -11    1    1    2    0    0 -0.17031769827E+02  0.70179809795E+02  0.25114280676E+02  0.76459230837E+02  0.00000000000E+00 0.  1.
         11    1    1    2    0    0  0.17619023950E+02 -0.18205261289E+02  0.30519224630E+02  0.39664651965E+02  0.00000000000E+00 0. -1.
</event>
<event>
 7    1  0.2732144E-009  0.1173887E+03  0.7561462E-02  0.1247468E+00
          2   -1    0    0  501    0  0.00000000000E+00  0.00000000000E+00  0.16160673370E+03  0.16160673370E+03  0.00000000000E+00 0. -1.
         -2   -1    0    0    0  501 -0.00000000000E+00 -0.00000000000E+00 -0.18987649067E+03  0.18987649067E+03  0.00000000000E+00 0.  1.
         25    2    1    2    0    0  0.93465402723E+02 -0.29500401145E+02  0.82797312742E+02  0.17919169175E+03  0.12509281443E+03 0.  0.
          5    1    3    3  502    0  0.42751384831E+02 -0.55130906063E+02 -0.96947272348E+01  0.70558896282E+02  0.41800000000E+01 0.  1.
         -5    1    3    3    0  502  0.50714017891E+02  0.25630504918E+02  0.92492039977E+02  0.10863279547E+03  0.41800000000E+01 0.  1.
        -11    1    1    2    0    0 -0.25576537018E+02 -0.12095911583E+02  0.76859652645E+01  0.29317987395E+02  0.00000000000E+00 0. -1.
         11    1    1    2    0    0 -0.67888865705E+02  0.41596312728E+02 -0.11875303497E+03  0.14297354522E+03  0.00000000000E+00 0.  1.
</event>
<event>
 7    1  0.2732144E-009  0.9897210E+02  0.7561462E-02  0.1282472E+00
          1   -1    0    0  501    0  0.00000000000E+00  0.00000000000E+00  0.63867323389E+03  0.63867323389E+03  0.00000000000E+00 0. -1.
         -1   -1    0    0    0  501 -0.00000000000E+00 -0.00000000000E+00 -0.21349450462E+02  0.21349450462E+02  0.00000000000E+00 0.  1.
         25    2    1    2    0    0 -0.12707624638E+02 -0.24272544505E+02  0.25464448769E+03  0.28503006183E+03  0.12509069069E+03 0.  0.
          5    1    3    3  502    0  0.29184994954E+02  0.31628590533E+02  0.16892936618E+03  0.17437527012E+03  0.41800000000E+01 0.  1.
         -5    1    3    3    0  502 -0.41892619593E+02 -0.55901135038E+02  0.85715121507E+02  0.11065479172E+03  0.41800000000E+01 0.  1.
        -11    1    1    2    0    0 -0.52710329768E+01 -0.28494569737E+02  0.53652048146E+02  0.60977590666E+02  0.00000000000E+00 0.  1.
         11    1    1    2    0    0  0.17978657615E+02  0.52767114242E+02  0.30902724759E+03  0.31401503185E+03  0.00000000000E+00 0. -1.
</event>
<event>
 7    1  0.2732144E-009  0.9915055E+02  0.7561462E-02  0.1282092E+00
          1   -1    0    0  501    0  0.00000000000E+00  0.00000000000E+00  0.13572497250E+02  0.13572497250E+02  0.00000000000E+00 0. -1.
         -1   -1    0    0    0  501 -0.00000000000E+00 -0.00000000000E+00 -0.11108914754E+04  0.11108914754E+04  0.00000000000E+00 0.  1.
         25    2    1    2    0    0  0.67303159526E+01 -0.18001962413E+02 -0.86372908695E+03  0.87295156067E+03  0.12508846397E+03 0.  0.
          5    1    3    3  502    0 -0.59028860537E+02 -0.80920609483E+01 -0.43258029694E+03  0.43668418053E+03  0.41800000000E+01 0.  1.
         -5    1    3    3    0  502  0.65759176489E+02 -0.99099014652E+01 -0.43114879002E+03  0.43626738014E+03  0.41800000000E+01 0.  1.
        -11    1    1    2    0    0 -0.10750220734E+02 -0.25802431799E+02 -0.22485783765E+02  0.35873990635E+02  0.00000000000E+00 0. -1.
         11    1    1    2    0    0  0.40199047818E+01  0.43804394213E+02 -0.21110410741E+03  0.21563842133E+03  0.00000000000E+00 0.  1.
</event>
<event>
 7    1  0.2732144E-009  0.1378657E+03  0.7561462E-02  0.1216230E+00
         -1   -1    0    0    0  501 -0.00000000000E+00  0.00000000000E+00  0.95344357465E+02  0.95344357465E+02  0.00000000000E+00 0.  1.
          1   -1    0    0  501    0  0.00000000000E+00 -0.00000000000E+00 -0.27751550567E+03  0.27751550567E+03  0.00000000000E+00 0. -1.
         25    2    1    2    0    0 -0.10077101126E+03  0.64787511676E+02 -0.10879637579E+03  0.20454274892E+03  0.12509542905E+03 0.  0.
          5    1    3    3  502    0 -0.91112829083E+02  0.44697508836E+02 -0.87391035862E+01  0.10194733567E+03  0.41800000000E+01 0.  1.
         -5    1    3    3    0  502 -0.96581821767E+01  0.20090002841E+02 -0.10005727220E+03  0.10259541324E+03  0.41800000000E+01 0.  1.
        -11    1    1    2    0    0 -0.43739933301E+01 -0.44103127939E+02 -0.21049786410E+02  0.49064357935E+02  0.00000000000E+00 0.  1.
         11    1    1    2    0    0  0.10514500459E+03 -0.20684383738E+02 -0.52324986000E+02  0.11925275628E+03  0.00000000000E+00 0. -1.
</event>
<event>
 7    1  0.2732144E-009  0.1224919E+03  0.7561462E-02  0.1239042E+00
          2   -1    0    0  501    0  0.00000000000E+00  0.00000000000E+00  0.12368992077E+04  0.12368992077E+04  0.00000000000E+00 0. -1.
         -2   -1    0    0    0  501 -0.00000000000E+00 -0.00000000000E+00 -0.18312838370E+02  0.18312838370E+02  0.00000000000E+00 0.  1.
         25    2    1    2    0    0 -0.13412325501E+02 -0.66146781864E+02  0.98219557212E+03  0.99242698805E+03  0.12509155644E+03 0.  0.
          5    1    3    3  502    0 -0.53460155065E+02  0.89623963291E+01  0.29507718672E+03  0.30004388221E+03  0.41800000000E+01 0.  1.
         -5    1    3    3    0  502  0.40047829564E+02 -0.75109178193E+02  0.68711838540E+03  0.69238310584E+03  0.41800000000E+01 0.  1.
        -11    1    1    2    0    0  0.76692136325E+01  0.85174845596E+02  0.22295538118E+03  0.23879420671E+03  0.00000000000E+00 0.  1.
         11    1    1    2    0    0  0.57431118686E+01 -0.19028063733E+02  0.13435416057E+02  0.23990851339E+02  0.00000000000E+00 0. -1.
</event>
<event>
 7    1  0.2732144E-009  0.1104321E+03  0.7561462E-02  0.1259772E+00
          2   -1    0    0  501    0  0.00000000000E+00  0.00000000000E+00  0.11833305202E+03  0.11833305202E+03  0.00000000000E+00 0. -1.
         -2   -1    0    0    0  501 -0.00000000000E+00 -0.00000000000E+00 -0.12921200405E+03  0.12921200405E+03  0.00000000000E+00 0.  1.
         25    2    1    2    0    0 -0.11404523602E+02  0.56267345017E+02 -0.13830978975E+02  0.13833072053E+03  0.12509202609E+03 0.  0.
          5    1    3    3  502    0 -0.30259216504E+02 -0.20990201528E+02  0.29772158766E+02  0.47540115494E+02  0.41800000000E+01 0.  1.
         -5    1    3    3    0  502  0.18854692902E+02  0.77257546546E+02 -0.43603137741E+02  0.90790605040E+02  0.41800000000E+01 0.  1.
        -11    1    1    2    0    0  0.47767375827E+02 -0.46156116243E+02  0.17621359308E+02  0.68721332669E+02  0.00000000000E+00 0. -1.
         11    1    1    2    0    0 -0.36362852225E+02 -0.10111228774E+02 -0.14669332355E+02  0.40493002864E+02  0.00000000000E+00 0.  1.
</event>
<event>
 7    1  0.2732144E-009  0.9206786E+02  0.7561462E-02  0.1297920E+00
         -3   -1    0    0    0  501 -0.00000000000E+00  0.00000000000E+00  0.62678821801E+02  0.62678821801E+02  0.00000000000E+00 0.  1.
          3   -1    0    0  501    0  0.00000000000E+00 -0.00000000000E+00 -0.29414283163E+03  0.29414283163E+03  0.00000000000E+00 0. -1.
         25    2    1    2    0    0  0.12575385881E+02 -0.71313602970E+02 -0.17811195260E+03  0.22937877876E+03  0.12508791385E+03 0.  0.
          5    1    3    3  502    0 -0.16088293735E+02 -0.74311873749E+02 -0.35847210197E+02  0.84164022327E+02  0.41800000000E+01 0.  1.
         -5    1    3    3    0  502  0.28663679616E+02  0.29982707791E+01 -0.14226474240E+03  0.14521475644E+03  0.41800000000E+01 0.  1.
        -11    1    1    2    0    0  0.45376647848E+01  0.55116841821E+02 -0.76510428734E+02  0.94404991177E+02  0.00000000000E+00 0. -1.
         11    1    1    2    0    0 -0.17113050666E+02  0.16196761149E+02  0.23158371503E+02  0.33037883489E+02  0.00000000000E+00 0.  1.
</event>
<event>
 7    1  0.2732144E-009  0.2399586E+03  0.7561462E-02  0.1119820E+00
         -2   -1    0    0    0  501 -0.00000000000E+00  0.00000000000E+00  0.78817900962E+02  0.78817900962E+02  0.00000000000E+00 0.  1.
          2   -1    0    0  501    0  0.00000000000E+00 -0.00000000000E+00 -0.92632137822E+03  0.92632137822E+03  0.00000000000E+00 0. -1.
         25    2    1    2    0    0  0.22865527244E+03 -0.57540987060E+02 -0.29703040591E+03  0.39933613501E+03  0.12509231746E+03 0.  0.
          5    1    3    3  502    0  0.10587587450E+03 -0.48208656088E+02 -0.57185107442E+02  0.12969727922E+03  0.41800000000E+01 0.  1.
         -5    1    3    3    0  502  0.12277939794E+03 -0.93323309723E+01 -0.23984529847E+03  0.26963885580E+03  0.41800000000E+01 0.  1.
        -11    1    1    2    0    0 -0.33680877619E+02 -0.79808062162E+01 -0.16800609866E+03  0.17153467280E+03  0.00000000000E+00 0. -1.
         11    1    1    2    0    0 -0.19497439482E+03  0.65521793276E+02 -0.38246697269E+03  0.43426847138E+03  0.00000000000E+00 0.  1.
</event>
<event>
 7    1  0.2732144E-009  0.9211908E+02  0.7561462E-02  0.1297800E+00
          2   -1    0    0  501    0  0.00000000000E+00  0.00000000000E+00  0.12792294892E+03  0.12792294892E+03  0.00000000000E+00 0. -1.
         -2   -1    0    0    0  501 -0.00000000000E+00 -0.00000000000E+00 -0.11698808864E+03  0.11698808864E+03  0.00000000000E+00 0.  1.
         25    2    1    2    0    0 -0.13694271066E+02  0.36380240942E+02 -0.34758597393E+02  0.13552918742E+03  0.12509574556E+03 0.  0.
          5    1    3    3  502    0 -0.54862180985E+00  0.59384604451E+02 -0.69580755490E+02  0.91573938248E+02  0.41800000000E+01 0. -1.
         -5    1    3    3    0  502 -0.13145649256E+02 -0.23004363509E+02  0.34822158097E+02  0.43955249167E+02  0.41800000000E+01 0. -1.
        -11    1    1    2    0    0  0.45441139966E+02 -0.46048651117E+02  0.21004039099E+02  0.68018711614E+02  0.00000000000E+00 0.  1.
         11    1    1    2    0    0 -0.31746868900E+02  0.96684101744E+01  0.24689418572E+02  0.41363138537E+02  0.00000000000E+00 0. -1.
</event>
<event>
 7    1  0.2732144E-009  0.1227012E+03  0.7561462E-02  0.1238706E+00
          1   -1    0    0  501    0  0.00000000000E+00  0.00000000000E+00  0.23608893149E+02  0.23608893149E+02  0.00000000000E+00 0.  1.
         -1   -1    0    0    0  501 -0.00000000000E+00 -0.00000000000E+00 -0.77057524240E+03  0.77057524240E+03  0.00000000000E+00 0. -1.
         25    2    1    2    0    0  0.32423952792E+02  0.44598747891E+02 -0.28019078867E+03  0.31175664732E+03  0.12507984676E+03 0.  0.
          5    1    3    3  502    0 -0.37214627362E+02  0.49182018710E+02 -0.17364820138E+03  0.18432300371E+03  0.41800000000E+01 0. -1.
         -5    1    3    3    0  502  0.69638580154E+02 -0.45832708191E+01 -0.10654258728E+03  0.12743364360E+03  0.41800000000E+01 0. -1.
        -11    1    1    2    0    0 -0.40290212253E+02  0.22477276166E+02 -0.10946144140E+03  0.11878693658E+03  0.00000000000E+00 0.  1.
         11    1    1    2    0    0  0.78662594611E+01 -0.67076024057E+02 -0.35731411918E+03  0.36364055165E+03  0.00000000000E+00 0. -1.
</event>
<event>
 7    1  0.2732144E-009  0.1082112E+03  0.7561462E-02  0.1263919E+00
         -1   -1    0    0    0  501 -0.00000000000E+00  0.00000000000E+00  0.15913544602E+02  0.15913544602E+02  0.00000000000E+00 0.  1.
          1   -1    0    0  501    0  0.00000000000E+00 -0.00000000000E+00 -0.10209719161E+04  0.10209719161E+04  0.00000000000E+00 0. -1.
         25    2    1    2    0    0  0.59677643587E+01 -0.35809164907E+02 -0.78748466517E+03  0.79818411126E+03  0.12509143492E+03 0.  0.
          5    1    3    3  502    0  0.45389490821E+02 -0.57459567252E+02 -0.63289446756E+03  0.63713003948E+03  0.41800000000E+01 0.  1.
         -5    1    3    3    0  502 -0.39421726462E+02  0.21650402346E+02 -0.15459019761E+03  0.16105407178E+03  0.41800000000E+01 0.  1.
        -11    1    1    2    0    0 -0.59510220474E+01  0.66726832214E+02 -0.14035433262E+03  0.15552242117E+03  0.00000000000E+00 0. -1.
         11    1    1    2    0    0 -0.16742311349E-01 -0.30917667308E+02 -0.77219373670E+02  0.83178928234E+02  0.00000000000E+00 0.  1.
</event>
<event>
 7    1  0.2732144E-009  0.9841616E+02  0.7561462E-02  0.1283662E+00
         -2   -1    0    0    0  501 -0.00000000000E+00  0.00000000000E+00  0.63601831922E+03  0.63601831922E+03  0.00000000000E+00 0.  1.
          2   -1    0    0  501    0  0.00000000000E+00 -0.00000000000E+00 -0.32434898855E+02  0.32434898855E+02  0.00000000000E+00 0. -1.
         25    2    1    2    0    0 -0.79904189592E+02 -0.47694323984E+02  0.35749930996E+03  0.39001586216E+03  0.12508872076E+03 0.  0.
          5    1    3    3  502    0 -0.50608697173E+02 -0.45432824714E+02  0.35357301824E+03  0.36007878779E+03  0.41800000000E+01 0.  1.
         -5    1    3    3    0  502 -0.29295492419E+02 -0.22614992693E+01  0.39262917193E+01  0.29937074367E+02  0.41800000000E+01 0.  1.
        -11    1    1    2    0    0  0.45709021752E+02  0.45893332399E+02  0.57012193744E+02  0.86289645171E+02  0.00000000000E+00 0. -1.
         11    1    1    2    0    0  0.34195167840E+02  0.18009915844E+01  0.18907191666E+03  0.19214771074E+03  0.00000000000E+00 0.  1.
</event>
<event>
 7    1  0.2732144E-009  0.1405508E+03  0.7561462E-02  0.1212590E+00
          2   -1    0    0  501    0  0.00000000000E+00  0.00000000000E+00  0.59664745670E+03  0.59664745670E+03  0.00000000000E+00 0.  1.
         -2   -1    0    0    0  501 -0.00000000000E+00 -0.00000000000E+00 -0.44313521564E+02  0.44313521564E+02  0.00000000000E+00 0. -1.
         25    2    1    2    0    0  0.10259496851E+03 -0.53847019889E+02  0.24387840136E+03  0.29757222994E+03  0.12508928118E+03 0.  0.
          5    1    3    3  502    0  0.40678569582E+02  0.91585688942E+01  0.18878386419E+03  0.19337901951E+03  0.41800000000E+01 0.  1.
         -5    1    3    3    0  502  0.61916398926E+02 -0.63005588783E+02  0.55094537171E+02  0.10419321043E+03  0.41800000000E+01 0.  1.
        -11    1    1    2    0    0  0.18364320404E+02  0.18023701974E-01  0.42638519260E+02  0.46425121577E+02  0.00000000000E+00 0.  1.
         11    1    1    2    0    0 -0.12095928891E+03  0.53828996187E+02  0.26581701451E+03  0.29696362674E+03  0.00000000000E+00 0. -1.
</event>
<event>
 7    1  0.2732144E-009  0.6641548E+02  0.7561462E-02  0.1372725E+00
          2   -1    0    0  501    0  0.00000000000E+00  0.00000000000E+00  0.50773936280E+03  0.50773936280E+03  0.00000000000E+00 0. -1.
         -2   -1    0    0    0  501 -0.00000000000E+00 -0.00000000000E+00 -0.27825694975E+02  0.27825694975E+02  0.00000000000E+00 0.  1.
         25    2    1    2    0    0  0.13551236943E+02  0.21942914467E+02  0.34241929498E+03  0.36546324309E+03  0.12508909207E+03 0.  0.
          5    1    3    3  502    0  0.12770034240E+01 -0.98728136120E+01  0.32804221685E+03  0.32821985257E+03  0.41800000000E+01 0. -1.
         -5    1    3    3    0  502  0.12274233519E+02  0.31815728079E+02  0.14377078135E+02  0.37243390519E+02  0.41800000000E+01 0. -1.
        -11    1    1    2    0    0  0.32995058513E+02 -0.24445285729E+02  0.10645242075E+03  0.11409804453E+03  0.00000000000E+00 0.  1.
         11    1    1    2    0    0 -0.46546295456E+02  0.25023712617E+01  0.31041952090E+02  0.56003770160E+02  0.00000000000E+00 0. -1.
</event>
<event>
 7    1  0.2732144E-009  0.8392954E+02  0.7561462E-02  0.1318256E+00
          1   -1    0    0  501    0  0.00000000000E+00  0.00000000000E+00  0.69663270221E+03  0.69663270221E+03  0.00000000000E+00 0. -1.
         -1   -1    0    0    0  501 -0.00000000000E+00 -0.00000000000E+00 -0.21686757294E+02  0.21686757294E+02  0.00000000000E+00 0.  1.
         25    2    1    2    0    0 -0.65836169843E+01  0.19390186132E+02  0.53854323493E+03  0.55325877942E+03  0.12508851981E+03 0.  0.
          5    1    3    3  502    0  0.38684666598E+02  0.94679058614E+01  0.46164370780E+03  0.46337730849E+03  0.41800000000E+01 0.  1.
         -5    1    3    3    0  502 -0.45268283582E+02  0.99222802709E+01  0.76899527123E+02  0.89881470926E+02  0.41800000000E+01 0.  1.
        -11    1    1    2    0    0 -0.14306791755E+02 -0.45585321296E+02  0.11691452323E+03  0.12630008532E+03  0.00000000000E+00 0. -1.
         11    1    1    2    0    0  0.20890408739E+02  0.26195135164E+02  0.19488186751E+02  0.38760594763E+02  0.00000000000E+00 0.  1.
</event>
<event>
 7    1  0.2732144E-009  0.1166318E+03  0.7561462E-02  0.1248759E+00
         -2   -1    0    0    0  501 -0.00000000000E+00  0.00000000000E+00  0.20357841855E+03  0.20357841855E+03  0.00000000000E+00 0.  1.
          2   -1    0    0  501    0  0.00000000000E+00 -0.00000000000E+00 -0.13553268253E+03  0.13553268253E+03  0.00000000000E+00 0. -1.
         25    2    1    2    0    0 -0.78898563278E+02 -0.85392362920E+01  0.13609169467E+03  0.20116282038E+03  0.12509048365E+03 0.  0.
          5    1    3    3  502    0  0.22151728831E+01  0.48597228532E+02  0.45860953798E+02  0.66987290550E+02  0.41800000000E+01 0. -1.
         -5    1    3    3    0  502 -0.81113736161E+02 -0.57136464824E+02  0.90230740869E+02  0.13417552983E+03  0.41800000000E+01 0. -1.
        -11    1    1    2    0    0  0.16668221586E+02 -0.10923659330E+02  0.20101646528E+02  0.28306044181E+02  0.00000000000E+00 0.  1.
         11    1    1    2    0    0  0.62230341692E+02  0.19462895622E+02 -0.88147605169E+02  0.10964223652E+03  0.00000000000E+00 0. -1.
</event>
<event>
 7    1  0.2732144E-009  0.1053113E+03  0.7561462E-02  0.1269507E+00
          2   -1    0    0  501    0  0.00000000000E+00  0.00000000000E+00  0.90805742516E+02  0.90805742516E+02  0.00000000000E+00 0. -1.
         -2   -1    0    0    0  501 -0.00000000000E+00 -0.00000000000E+00 -0.43944731532E+03  0.43944731532E+03  0.00000000000E+00 0.  1.
         25    2    1    2    0    0 -0.10161054917E+01 -0.77090115402E+02 -0.37727178207E+03  0.40487587273E+03  0.12508619591E+03 0.  0.
          5    1    3    3  502    0 -0.54646854948E+02 -0.36180412966E+02 -0.27171102495E+03  0.27953471075E+03  0.41800000000E+01 0.  1.
         -5    1    3    3    0  502  0.53630749456E+02 -0.40909702437E+02 -0.10556075712E+03  0.12534116197E+03  0.41800000000E+01 0.  1.
        -11    1    1    2    0    0  0.36653837048E+01  0.54674903038E+02 -0.30056653799E+02  0.62499459978E+02  0.00000000000E+00 0.  1.
         11    1    1    2    0    0 -0.26492782131E+01  0.22415212364E+02  0.58686863069E+02  0.62877725128E+02  0.00000000000E+00 0. -1.
</event>
<event>
 7    1  0.2732144E-009  0.1284755E+03  0.7561462E-02  0.1229735E+00
          1   -1    0    0  501    0  0.00000000000E+00  0.00000000000E+00  0.49678158778E+03  0.49678158778E+03  0.00000000000E+00 0. -1.
         -1   -1    0    0    0  501 -0.00000000000E+00 -0.00000000000E+00 -0.14007872830E+03  0.14007872830E+03  0.00000000000E+00 0.  1.
         25    2    1    2    0    0  0.98568743619E+01  0.80494129065E+02  0.45598728436E+03  0.47973835550E+03  0.12509205990E+03 0.  0.
          5    1    3    3  502    0  0.60908766231E+02  0.44140841548E+02  0.33557723168E+03  0.34392999654E+03  0.41800000000E+01 0.  1.
         -5    1    3    3    0  502 -0.51051891869E+02  0.36353287517E+02  0.12041005268E+03  0.13580835896E+03  0.41800000000E+01 0.  1.
        -11    1    1    2    0    0  0.25167210477E+02 -0.79902612576E+02 -0.53206146950E+02  0.99240667334E+02  0.00000000000E+00 0.  1.
         11    1    1    2    0    0 -0.35024084839E+02 -0.59151648946E+00 -0.46078277936E+02  0.57881293249E+02  0.00000000000E+00 0. -1.
</event>
<event>
 7    1  0.2732144E-009  0.1241105E+03  0.7561462E-02  0.1236466E+00
          1   -1    0    0  501    0  0.00000000000E+00  0.00000000000E+00  0.63195882550E+02  0.63195882550E+02  0.00000000000E+00 0. -1.
         -1   -1    0    0    0  501 -0.00000000000E+00 -0.00000000000E+00 -0.29849897045E+03  0.29849897045E+03  0.00000000000E+00 0.  1.
         25    2    1    2    0    0  0.53974645992E+02  0.65094771122E+02 -0.12215320643E+03  0.19421514252E+03  0.12509006398E+03 0.  0.
          5    1    3    3  502    0  0.68390268010E+02  0.86634581591E+02 -0.57694438125E+02  0.12461500743E+03  0.41800000000E+01 0.  1.
         -5    1    3    3    0  502 -0.14415622018E+02 -0.21539810469E+02 -0.64458768309E+02  0.69600135094E+02  0.41800000000E+01 0.  1.
        -11    1    1    2    0    0 -0.44517420851E+02 -0.81334171399E+02 -0.58363227784E+02  0.10955963925E+03  0.00000000000E+00 0. -1.
         11    1    1    2    0    0 -0.94572251415E+01  0.16239400277E+02 -0.54786653686E+02  0.57920071226E+02  0.00000000000E+00 0.  1.
</event>
<event>
 7    1  0.2732144E-009  0.9822336E+02  0.7561462E-02  0.1284077E+00
         -2   -1    0    0    0  501 -0.00000000000E+00  0.00000000000E+00  0.57316824457E+02  0.57316824457E+02  0.00000000000E+00 0.  1.
          2   -1    0    0  501    0  0.00000000000E+00 -0.00000000000E+00 -0.21581496804E+03  0.21581496804E+03  0.00000000000E+00 0. -1.
         25    2    1    2    0    0  0.18059463594E+01  0.22457802178E+02 -0.11070737733E+03  0.16855378522E+03  0.12508653323E+03 0.  0.
          5    1    3    3  502    0 -0.41697681582E+02 -0.29797918036E+02 -0.76889001884E+02  0.92498667987E+02  0.41800000000E+01 0. -1.
         -5    1    3    3    0  502  0.43503627941E+02  0.52255720214E+02 -0.33818375449E+02  0.76055117232E+02  0.41800000000E+01 0. -1.
        -11    1    1    2    0    0  0.33881567789E+02  0.15086278205E+01  0.73078051147E+01  0.34693524026E+02  0.00000000000E+00 0.  1.
         11    1    1    2    0    0 -0.35687514148E+02 -0.23966429998E+02 -0.55098571362E+02  0.69884483250E+02  0.00000000000E+00 0. -1.
</event>
<event>
 7    1  0.2732144E-009  0.1151028E+03  0.7561462E-02  0.1251402E+00
         -2   -1    0    0    0  501 -0.00000000000E+00  0.00000000000E+00  0.26978723144E+02  0.26978723144E+02  0.00000000000E+00 0.  1.
          2   -1    0    0  501    0  0.00000000000E+00 -0.00000000000E+00 -0.71933859564E+03  0.71933859564E+03  0.00000000000E+00 0. -1.
         25    2    1    2    0    0 -0.77260915415E+02  0.15414424527E+02 -0.27829385219E+03  0.31512033787E+03  0.12508599299E+03 0.  0.
          5    1    3    3  502    0 -0.15971478357E+02  0.44276798399E+02 -0.22189894392E+03  0.22687471589E+03  0.41800000000E+01 0. -1.
         -5    1    3    3    0  502 -0.61289437058E+02 -0.28862373872E+02 -0.56394908264E+02  0.88245621979E+02  0.41800000000E+01 0. -1.
        -11    1    1    2    0    0  0.35646023255E+02  0.34829394583E+02 -0.24419895212E+03  0.24923252981E+03  0.00000000000E+00 0. -1.
         11    1    1    2    0    0  0.41614892160E+02 -0.50243819110E+02 -0.16986706819E+03  0.18196445110E+03  0.00000000000E+00 0.  1.
</event>
<event>
 7    1  0.2732144E-009  0.1051774E+03  0.7561462E-02  0.1269771E+00
          1   -1    0    0  501    0  0.00000000000E+00  0.00000000000E+00  0.26882151320E+03  0.26882151320E+03  0.00000000000E+00 0. -1.
         -1   -1    0    0    0  501 -0.00000000000E+00 -0.00000000000E+00 -0.55303172063E+02  0.55303172063E+02  0.00000000000E+00 0.  1.
         25    2    1    2    0    0  0.12518962982E+02 -0.55232688080E+02  0.14291272088E+03  0.19819284862E+03  0.12509590397E+03 0.  0.
          5    1    3    3  502    0  0.41460788084E+02  0.47681234519E+01  0.16738280355E+01  0.41976255789E+02  0.41800000000E+01 0.  1.
         -5    1    3    3    0  502 -0.28941825102E+02 -0.60000811532E+02  0.14123889285E+03  0.15621659284E+03  0.41800000000E+01 0.  1.
        -11    1    1    2    0    0  0.26852007329E+02  0.56196070746E+02  0.56524771217E+02  0.84107540839E+02  0.00000000000E+00 0. -1.
         11    1    1    2    0    0 -0.39370970310E+02 -0.96338266620E+00  0.14080849035E+02  0.41824295797E+02  0.00000000000E+00 0.  1.
</event>
<event>
 7    1  0.2732144E-009  0.1321340E+03  0.7561462E-02  0.1224323E+00
          2   -1    0    0  501    0  0.00000000000E+00  0.00000000000E+00  0.43906356241E+03  0.43906356241E+03  0.00000000000E+00 0. -1.
         -2   -1    0    0    0  501 -0.00000000000E+00 -0.00000000000E+00 -0.45362391808E+02  0.45362391808E+02  0.00000000000E+00 0.  1.
         25    2    1    2    0    0  0.40316234947E+02  0.67972816656E+02  0.28786718900E+03  0.32366811932E+03  0.12509128809E+03 0.  0.
          5    1    3    3  502    0  0.55967464073E+02 -0.15570457003E+02  0.79158475329E+02  0.98276817116E+02  0.41800000000E+01 0.  1.
         -5    1    3    3    0  502 -0.15651229126E+02  0.83543273659E+02  0.20870871368E+03  0.22539130221E+03  0.41800000000E+01 0.  1.
        -11    1    1    2    0    0 -0.53589819090E+02 -0.19963571222E+01  0.49840848885E+02  0.73211777533E+02  0.00000000000E+00 0.  1.
         11    1    1    2    0    0  0.13273584143E+02 -0.65976459534E+02  0.55993132715E+02  0.87546057363E+02  0.00000000000E+00 0. -1.
</event>
<event>
 7    1  0.2732144E-009  0.1453921E+03  0.7561462E-02  0.1206252E+00
          1   -1    0    0  501    0  0.00000000000E+00  0.00000000000E+00  0.44900783198E+02  0.44900783198E+02  0.00000000000E+00 0. -1.
         -1   -1    0    0    0  501 -0.00000000000E+00 -0.00000000000E+00 -0.58820049109E+03  0.58820049109E+03  0.00000000000E+00 0.  1.
         25    2    1    2    0    0 -0.57030541719E+02 -0.10491023049E+03 -0.25601302294E+03  0.30894784164E+03  0.12508981489E+03 0.  0.
          5    1    3    3  502    0 -0.77907295500E+02 -0.11817530382E+03 -0.24153318949E+03  0.27998339799E+03  0.41800000000E+01 0. -1.
         -5    1    3    3    0  502  0.20876753780E+02  0.13265073333E+02 -0.14479833445E+02  0.28964443642E+02  0.41800000000E+01 0. -1.
        -11    1    1    2    0    0  0.40506892965E+02  0.39318897285E+02 -0.22577747960E+03  0.23272785470E+03  0.00000000000E+00 0.  1.
         11    1    1    2    0    0  0.16523648755E+02  0.65591333201E+02 -0.61509205352E+02  0.91425577944E+02  0.00000000000E+00 0. -1.
</event>
<event>
 7    1  0.2732144E-009  0.1041381E+03  0.7561462E-02  0.1271827E+00
          2   -1    0    0  501    0  0.00000000000E+00  0.00000000000E+00  0.76253057159E+03  0.76253057159E+03  0.00000000000E+00 0. -1.
         -2   -1    0    0    0  501 -0.00000000000E+00 -0.00000000000E+00 -0.24284678285E+02  0.24284678285E+02  0.00000000000E+00 0.  1.
         25    2    1    2    0    0  0.40191877005E+02 -0.58190888673E+02  0.52560018571E+03  0.54489061933E+03  0.12509462544E+03 0.  0.
          5    1    3    3  502    0 -0.13064216020E+02 -0.41014532183E+02  0.44256526970E+03  0.44467331372E+03  0.41800000000E+01 0.  1.
         -5    1    3    3    0  502  0.53256093025E+02 -0.17176356489E+02  0.83034916007E+02  0.10021730561E+03  0.41800000000E+01 0.  1.
        -11    1    1    2    0    0 -0.27092983690E+01 -0.21067368282E+02  0.81125663371E+02  0.83860285960E+02  0.00000000000E+00 0. -1.
         11    1    1    2    0    0 -0.37482578636E+02  0.79258256954E+02  0.13152004423E+03  0.15806434459E+03  0.00000000000E+00 0.  1.
</event>
<event>
 7    1  0.2732144E-009  0.2277357E+03  0.7561462E-02  0.1128244E+00
          1   -1    0    0  501    0  0.00000000000E+00  0.00000000000E+00  0.62527003175E+03  0.62527003175E+03  0.00000000000E+00 0. -1.
         -1   -1    0    0    0  501 -0.00000000000E+00 -0.00000000000E+00 -0.94594502868E+02  0.94594502868E+02  0.00000000000E+00 0.  1.
         25    2    1    2    0    0  0.75619197076E+02  0.19542993116E+03  0.35805908679E+03  0.43331642821E+03  0.12508275804E+03 0.  0.
          5    1    3    3  502    0  0.38111945159E+02 -0.33564567072E+01  0.86405268215E+02  0.94589264405E+02  0.41800000000E+01 0.  1.
         -5    1    3    3    0  502  0.37507251918E+02  0.19878638787E+03  0.27165381858E+03  0.33872716380E+03  0.41800000000E+01 0.  1.
        -11    1    1    2    0    0 -0.26380945792E+02 -0.21960396146E+02 -0.34841373108E+01  0.34501485658E+02  0.00000000000E+00 0.  1.
         11    1    1    2    0    0 -0.49238251284E+02 -0.17346953502E+03  0.17610057940E+03  0.25204662076E+03  0.00000000000E+00 0. -1.
</event>
<event>
 7    1  0.2732144E-009  0.1725409E+03  0.7561462E-02  0.1175224E+00
          1   -1    0    0  501    0  0.00000000000E+00  0.00000000000E+00  0.94821051014E+03  0.94821051014E+03  0.00000000000E+00 0. -1.
         -1   -1    0    0    0  501 -0.00000000000E+00 -0.00000000000E+00 -0.41790588941E+02  0.41790588941E+02  0.00000000000E+00 0.  1.
         25    2    1    2    0    0  0.74528498718E+02  0.13150231195E+03  0.30004448203E+03  0.35849842109E+03  0.12508825510E+03 0.  0.
          5    1    3    3  502    0  0.10148151377E+03  0.61486424679E+02  0.15610029708E+03  0.19612203651E+03  0.41800000000E+01 0.  1.
         -5    1    3    3    0  502 -0.26953015053E+02  0.70015887267E+02  0.14394418494E+03  0.16237638458E+03  0.41800000000E+01 0.  1.
        -11    1    1    2    0    0 -0.50704669536E+02 -0.93368257062E+02  0.54589894088E+03  0.55614229168E+03  0.00000000000E+00 0. -1.
         11    1    1    2    0    0 -0.23823829182E+02 -0.38134054884E+02  0.60476498290E+02  0.75360386306E+02  0.00000000000E+00 0.  1.
</event>
<event>
 7    1  0.2732144E-009  0.1771025E+03  0.7561462E-02  0.1170637E+00
         -1   -1    0    0    0  501 -0.00000000000E+00  0.00000000000E+00  0.78233851098E+02  0.78233851098E+02  0.00000000000E+00 0.  1.
          1   -1    0    0  501    0  0.00000000000E+00 -0.00000000000E+00 -0.44420865045E+03  0.44420865045E+03  0.00000000000E+00 0. -1.
         25    2    1    2    0    0  0.14240016935E+03  0.33194743468E+02 -0.24702595360E+03  0.31312793854E+03  0.12509030705E+03 0.  0.
          5    1    3    3  502    0  0.26385714152E+02  0.63971143605E+02 -0.64869611396E+02  0.94942361505E+02  0.41800000000E+01 0.  1.
         -5    1    3    3    0  502  0.11601445520E+03 -0.30776400137E+02 -0.18215634220E+03  0.21818557703E+03  0.41800000000E+01 0.  1.
        -11    1    1    2    0    0 -0.40664019512E+02 -0.46956920401E+02 -0.75675176216E+02  0.97904275452E+02  0.00000000000E+00 0.  1.
         11    1    1    2    0    0 -0.10173614984E+03  0.13762176932E+02 -0.43273669541E+02  0.11141028756E+03  0.00000000000E+00 0. -1.
</event>
<event>
 7    1  0.2732144E-009  0.1232954E+03  0.7561462E-02  0.1237758E+00
          2   -1    0    0  501    0  0.00000000000E+00  0.00000000000E+00  0.11094507170E+04  0.11094507170E+04  0.00000000000E+00 0. -1.
         -2   -1    0    0    0  501 -0.00000000000E+00 -0.00000000000E+00 -0.26780929382E+02  0.26780929382E+02  0.00000000000E+00 0.  1.
         25    2    1    2    0    0 -0.63536171985E+02  0.26975448672E+02  0.95248939711E+03  0.96314498343E+03  0.12509071710E+03 0.  0.
          5    1    3    3  502    0 -0.98115774192E+02  0.38773404402E+02  0.74055173022E+03  0.74804038632E+03  0.41800000000E+01 0.  1.
         -5    1    3    3    0  502  0.34579602207E+02 -0.11797955730E+02  0.21193766689E+03  0.21510459711E+03  0.41800000000E+01 0.  1.
        -11    1    1    2    0    0  0.40612299378E+02 -0.54783271785E+02  0.11558847101E+03  0.13420603697E+03  0.00000000000E+00 0. -1.
         11    1    1    2    0    0  0.22923872607E+02  0.27807823113E+02  0.14591919472E+02  0.38880625966E+02  0.00000000000E+00 0.  1.
</event>
<event>
 7    1  0.2732144E-009  0.1182648E+03  0.7561462E-02  0.1245987E+00
         -2   -1    0    0    0  501 -0.00000000000E+00  0.00000000000E+00  0.11958223987E+02  0.11958223987E+02  0.00000000000E+00 0.  1.
          2   -1    0    0  501    0  0.00000000000E+00 -0.00000000000E+00 -0.18788316005E+04  0.18788316005E+04  0.00000000000E+00 0. -1.
         25    2    1    2    0    0 -0.48234466728E+02  0.88234040101E+02 -0.11435518068E+04  0.11547588903E+04  0.12508217390E+03 0.  0.
          5    1    3    3  502    0 -0.34925139008E+02  0.60422565393E+02 -0.10941101967E+04  0.10963417563E+04  0.41800000000E+01 0. -1.
         -5    1    3    3    0  502 -0.13309327719E+02  0.27811474708E+02 -0.49441610102E+02  0.58417133953E+02  0.41800000000E+01 0. -1.
        -11    1    1    2    0    0  0.36738387264E+02 -0.10720095077E+03 -0.62993797111E+03  0.64004968588E+03  0.00000000000E+00 0. -1.
         11    1    1    2    0    0  0.11496079464E+02  0.18966910670E+02 -0.93383598595E+02  0.95981248325E+02  0.00000000000E+00 0.  1.
</event>
<event>
 7    1  0.2732144E-009  0.9573149E+02  0.7561462E-02  0.1289537E+00
          2   -1    0    0  501    0  0.00000000000E+00  0.00000000000E+00  0.19126984286E+03  0.19126984286E+03  0.00000000000E+00 0. -1.
         -2   -1    0    0    0  501 -0.00000000000E+00 -0.00000000000E+00 -0.85973828969E+02  0.85973828969E+02  0.00000000000E+00 0.  1.
         25    2    1    2    0    0 -0.18689227034E+02 -0.25438805644E+02  0.12322824339E+03  0.17840455830E+03  0.12508623591E+03 0.  0.
          5    1    3    3  502    0  0.52677555203E+02  0.39449271192E+00  0.46336607935E+02  0.70282530415E+02  0.41800000000E+01 0. -1.
         -5    1    3    3    0  502 -0.71366782236E+02 -0.25833298356E+02  0.76891635456E+02  0.10812202788E+03  0.41800000000E+01 0. -1.
        -11    1    1    2    0    0 -0.35909304417E+01  0.37226046844E+02  0.27814277011E+02  0.46608018095E+02  0.00000000000E+00 0. -1.
         11    1    1    2    0    0  0.22280157475E+02 -0.11787241200E+02 -0.45746506511E+02  0.52231095434E+02  0.00000000000E+00 0.  1.
</event>
<event>
 7    1  0.2732144E-009  0.3145398E+03  0.7561462E-02  0.1078190E+00
          4   -1    0    0  501    0  0.00000000000E+00  0.00000000000E+00  0.21933522718E+03  0.21933522718E+03  0.00000000000E+00 0. -1.
         -4   -1    0    0    0  501 -0.00000000000E+00 -0.00000000000E+00 -0.49553694822E+03  0.49553694822E+03  0.00000000000E+00 0.  1.
         25    2    1    2    0    0  0.28897686835E+03  0.79447136168E+02 -0.72519467531E+02  0.33275612940E+03  0.12509232828E+03 0.  0.
          5    1    3    3  502    0  0.56478177752E+02 -0.89088887703E+01 -0.61031175384E+02  0.83734279898E+02  0.41800000000E+01 0. -1.
         -5    1    3    3    0  502  0.23249869059E+03  0.88356024939E+02 -0.11488292147E+02  0.24902184950E+03  0.41800000000E+01 0. -1.
        -11    1    1    2    0    0 -0.26444868980E+02  0.28729893413E+02 -0.30244553331E+02  0.49390999960E+02  0.00000000000E+00 0.  1.
         11    1    1    2    0    0 -0.26253199937E+03 -0.10817702958E+03 -0.17343770018E+03  0.33272504604E+03  0.00000000000E+00 0. -1.
</event>
<event>
 7    1  0.2732144E-009  0.1674368E+03  0.7561462E-02  0.1180548E+00
         -1   -1    0    0    0  501 -0.00000000000E+00  0.00000000000E+00  0.15201891735E+04  0.15201891735E+04  0.00000000000E+00 0.  1.
          1   -1    0    0  501    0  0.00000000000E+00 -0.00000000000E+00 -0.20880865748E+02  0.20880865748E+02  0.00000000000E+00 0. -1.
         25    2    1    2    0    0 -0.15058281049E+02 -0.13520097653E+03  0.94861003231E+03  0.96644417090E+03  0.12508911299E+03 0.  0.
          5    1    3    3  502    0 -0.35917133869E+02  0.10036584982E+01  0.36433089350E+03  0.36612227492E+03  0.41800000000E+01 0.  1.
         -5    1    3    3    0  502  0.20858852820E+02 -0.13620463502E+03  0.58427913881E+03  0.60032189598E+03  0.41800000000E+01 0.  1.
        -11    1    1    2    0    0 -0.27202228570E+02  0.10610374902E+03  0.31793715218E+03  0.33627667111E+03  0.00000000000E+00 0. -1.
         11    1    1    2    0    0  0.42260509619E+02  0.29097227502E+02  0.23276112324E+03  0.23834919722E+03  0.00000000000E+00 0.  1.
</event>
<event>
 7    1  0.2732144E-009  0.9333401E+02  0.7561462E-02  0.1294973E+00
          2   -1    0    0  501    0  0.00000000000E+00  0.00000000000E+00  0.64191095274E+02  0.64191095274E+02  0.00000000000E+00 0. -1.
         -2   -1    0    0    0  501 -0.00000000000E+00 -0.00000000000E+00 -0.21559384212E+03  0.21559384212E+03  0.00000000000E+00 0.  1.
         25    2    1    2    0    0  0.31907281743E+02 -0.32092168230E+02 -0.77643267544E+02  0.15402413903E+03  0.12508787519E+03 0.  0.
          5    1    3    3  502    0  0.12858764479E+02  0.25766664178E+02 -0.87468353011E+02  0.92181635835E+02  0.41800000000E+01 0. -1.
         -5    1    3    3    0  502  0.19048517264E+02 -0.57858832407E+02  0.98250854663E+01  0.61842503199E+02  0.41800000000E+01 0. -1.
        -11    1    1    2    0    0 -0.73303828493E+01  0.59355471702E+02 -0.64386270358E+02  0.87877177607E+02  0.00000000000E+00 0.  1.
         11    1    1    2    0    0 -0.24576898893E+02 -0.27263303472E+02 -0.93732089425E+01  0.37883620752E+02  0.00000000000E+00 0. -1.
</event>
<event>
 7    1  0.2732144E-009  0.9670392E+02  0.7561462E-02  0.1287384E+00
          3   -1    0    0  501    0  0.00000000000E+00  0.00000000000E+00  0.28713458630E+03  0.28713458630E+03  0.00000000000E+00 0. -1.
         -3   -1    0    0    0  501 -0.00000000000E+00 -0.00000000000E+00 -0.60087398760E+02  0.60087398760E+02  0.00000000000E+00 0.  1.
         25    2    1    2    0    0  0.34905574237E+02 -0.58406202470E+02  0.15692334245E+03  0.21190298619E+03  0.12509299161E+03 0.  0.
          5    1    3    3  502    0 -0.18243568205E+02 -0.25261635172E+02  0.14453638125E+03  0.14791624622E+03  0.41800000000E+01 0.  1.
         -5    1    3    3    0  502  0.53149142442E+02 -0.33144567298E+02  0.12386961204E+02  0.63986739967E+02  0.41800000000E+01 0.  1.
        -11    1    1    2    0    0 -0.52509025346E+02  0.18667199115E+02  0.72907043971E+02  0.91766546879E+02  0.00000000000E+00 0. -1.
         11    1    1    2    0    0  0.17603451109E+02  0.39739003355E+02 -0.27831988803E+01  0.43552451993E+02  0.00000000000E+00 0.  1.
</event>
<event>
 7    1  0.2732144E-009  0.1320620E+03  0.7561462E-02  0.1224428E+00
         -1   -1    0    0    0  501 -0.00000000000E+00  0.00000000000E+00  0.33014813789E+03  0.33014813789E+03  0.00000000000E+00 0.  1.
          1   -1    0    0  501    0  0.00000000000E+00 -0.00000000000E+00 -0.73137801514E+02  0.73137801514E+02  0.00000000000E+00 0. -1.
         25    2    1    2    0    0  0.70603191524E+02 -0.38202574703E+02  0.24020856213E+03  0.28247416587E+03  0.12508898312E+03 0.  0.
          5    1    3    3  502    0 -0.30302738516E+02 -0.31258649562E+02  0.10353573360E+03  0.11239430442E+03  0.41800000000E+01 0.  1.
         -5    1    3    3    0  502  0.10090593004E+03 -0.69439251410E+01  0.13667282853E+03  0.17007986145E+03  0.41800000000E+01 0.  1.
        -11    1    1    2    0    0 -0.86212905052E+02  0.49934828396E+02  0.99857984248E+01  0.10012925774E+03  0.00000000000E+00 0. -1.
         11    1    1    2    0    0  0.15609713528E+02 -0.11732253693E+02  0.68159758179E+01  0.20682515792E+02  0.00000000000E+00 0.  1.
</event>
<event>
 7    1  0.2732144E-009  0.9814020E+02  0.7561462E-02  0.1284256E+00
         -1   -1    0    0    0  501 -0.00000000000E+00  0.00000000000E+00  0.38912019341E+02  0.38912019341E+02  0.00000000000E+00 0.  1.
          1   -1    0    0  501    0  0.00000000000E+00 -0.00000000000E+00 -0.37345932269E+03  0.37345932269E+03  0.00000000000E+00 0. -1.
         25    2    1    2    0    0 -0.41958925513E+02  0.35420960923E+02 -0.19492021405E+03  0.23802316100E+03  0.12508372966E+03 0.  0.
          5    1    3    3  502    0 -0.18355962330E+02  0.59959514800E+02 -0.30119742769E+02  0.69690430280E+02  0.41800000000E+01 0.  1.
         -5    1    3    3    0  502 -0.23602963182E+02 -0.24538553877E+02 -0.16480047128E+03  0.16833273072E+03  0.41800000000E+01 0.  1.
        -11    1    1    2    0    0 -0.24585051756E+02 -0.17622281657E+02 -0.19861347984E+02  0.36186222853E+02  0.00000000000E+00 0.  1.
         11    1    1    2    0    0  0.66543977269E+02 -0.17798679266E+02 -0.11976574131E+03  0.13816195818E+03  0.00000000000E+00 0. -1.
</event>
<event>
 7    1  0.2732144E-009  0.9500051E+02  0.7561462E-02  0.1291175E+00
         -1   -1    0    0    0  501 -0.00000000000E+00  0.00000000000E+00  0.11342673020E+03  0.11342673020E+03  0.00000000000E+00 0.  1.
          1   -1    0    0  501    0  0.00000000000E+00 -0.00000000000E+00 -0.15179090397E+03  0.15179090397E+03  0.00000000000E+00 0. -1.
         25    2    1    2    0    0  0.59199532519E+02 -0.44177706797E+02 -0.19520603751E+02  0.14657130767E+03  0.12508333155E+03 0.  0.
          5    1    3    3  502    0  0.37954652626E+01  0.76547814160E+01  0.45549644535E+02  0.46532179750E+02  0.41800000000E+01 0. -1.
         -5    1    3    3    0  502  0.55404067256E+02 -0.51832488213E+02 -0.65070248285E+02  0.10003912792E+03  0.41800000000E+01 0. -1.
        -11    1    1    2    0    0 -0.36922505001E+02  0.64519521153E+02  0.12231374863E+02  0.75336886824E+02  0.00000000000E+00 0.  1.
         11    1    1    2    0    0 -0.22277027518E+02 -0.20341814356E+02 -0.31074944877E+02  0.43309439681E+02  0.00000000000E+00 0. -1.
</event>
<event>
 7    1  0.2732144E-009  0.1505938E+03  0.7561462E-02  0.1199745E+00
          2   -1    0    0  501    0  0.00000000000E+00  0.00000000000E+00  0.88258149339E+02  0.88258149339E+02  0.00000000000E+00 0. -1.
         -2   -1    0    0    0  501 -0.00000000000E+00 -0.00000000000E+00 -0.29355334523E+03  0.29355334523E+03  0.00000000000E+00 0.  1.
         25    2    1    2    0    0 -0.10363955605E+03  0.59342201118E+02 -0.88703244341E+02  0.19436887399E+03  0.12509332200E+03 0.  0.
          5    1    3    3  502    0 -0.13115987811E+03  0.35995604961E+02 -0.76140322556E+02  0.15592760603E+03  0.41800000000E+01 0. -1.
         -5    1    3    3    0  502  0.27520322065E+02  0.23346596157E+02 -0.12562921785E+02  0.38441267961E+02  0.41800000000E+01 0. -1.
        -11    1    1    2    0    0  0.72157988368E+02 -0.13873261079E+02 -0.10923834689E+03  0.13165203792E+03  0.00000000000E+00 0.  1.
         11    1    1    2    0    0  0.31481567681E+02 -0.45468940039E+02 -0.73536046648E+01  0.55790582659E+02  0.00000000000E+00 0. -1.
</event>
<event>
 7    1  0.2732144E-009  0.8493833E+02  0.7561462E-02  0.1315594E+00
         -1   -1    0    0    0  501 -0.00000000000E+00  0.00000000000E+00  0.20936450729E+03  0.20936450729E+03  0.00000000000E+00 0.  1.
          1   -1    0    0  501    0  0.00000000000E+00 -0.00000000000E+00 -0.68845481991E+02  0.68845481991E+02  0.00000000000E+00 0. -1.
         25    2    1    2    0    0  0.25229059738E+02  0.33043800365E+02  0.40433965939E+02  0.13789146612E+03  0.12510296811E+03 0.  0.
          5    1    3    3  502    0  0.64330374801E+02 -0.10684002635E+00 -0.10719917409E+02  0.65351339436E+02  0.41800000000E+01 0. -1.
         -5    1    3    3    0  502 -0.39101315063E+02  0.33150640391E+02  0.51153883348E+02  0.72540126686E+02  0.41800000000E+01 0. -1.
        -11    1    1    2    0    0  0.86216657873E+01 -0.89542329468E+01 -0.14107575778E+02  0.18802529164E+02  0.00000000000E+00 0. -1.
         11    1    1    2    0    0 -0.33850725525E+02 -0.24089567418E+02  0.11419263514E+03  0.12151599400E+03  0.00000000000E+00 0.  1.
</event>
<event>
 7    1  0.2732144E-009  0.1682551E+03  0.7561462E-02  0.1179680E+00
         -2   -1    0    0    0  501 -0.00000000000E+00  0.00000000000E+00  0.51434620452E+02  0.51434620452E+02  0.00000000000E+00 0.  1.
          2   -1    0    0  501    0  0.00000000000E+00 -0.00000000000E+00 -0.80685081710E+03  0.80685081710E+03  0.00000000000E+00 0. -1.
         25    2    1    2    0    0 -0.68422613468E+02 -0.11641185937E+03 -0.57312252828E+03  0.60195563881E+03  0.12509110134E+03 0.  0.
          5    1    3    3  502    0 -0.43123072371E+02  0.65765712025E+01 -0.27458907379E+03  0.27806381013E+03  0.41800000000E+01 0. -1.
         -5    1    3    3    0  502 -0.25299541097E+02 -0.12298843058E+03 -0.29853345449E+03  0.32389182868E+03  0.41800000000E+01 0. -1.
        -11    1    1    2    0    0  0.18939238941E+02 -0.16570562933E+02  0.19977927185E+00  0.25165814895E+02  0.00000000000E+00 0.  1.
         11    1    1    2    0    0  0.49483374527E+02  0.13298242231E+03 -0.18249344764E+03  0.23116398385E+03  0.00000000000E+00 0. -1.
</event>
<event>
 6    1  0.2732144E-009  0.1301364E+03  0.7561462E-02  0.1227254E+00
         -2   -1    0    0    0  501 -0.00000000000E+00  0.00000000000E+00  0.37448624901E+03  0.37448624901E+03  0.00000000000E+00 0.  1.
          2   -1    0    0  501    0  0.00000000000E+00 -0.00000000000E+00 -0.87464584655E+02  0.87464584655E+02  0.00000000000E+00 0. -1.
          5    1    1    2  502    0 -0.11619455407E+01  0.11776200176E+03  0.25016353278E+03  0.27652939212E+03  0.41800000000E+01 0. -1.
         -5    1    1    2    0  502  0.31283403535E+02 -0.17316706612E+02  0.26713051941E+02  0.44828330424E+02  0.41800000000E+01 0. -1.
        -11    1    1    2    0    0  0.34716277283E+00 -0.25860527679E+02  0.45713937341E+02  0.52522866268E+02  0.00000000000E+00 0.  1.
         11    1    1    2    0    0 -0.30468620767E+02 -0.74584767473E+02 -0.35568857700E+02  0.88070244853E+02  0.00000000000E+00 0. -1.
</event>
<event>
 7    1  0.2732144E-009  0.1536146E+03  0.7561462E-02  0.1196100E+00
         -2   -1    0    0    0  501 -0.00000000000E+00  0.00000000000E+00  0.13909070155E+03  0.13909070155E+03  0.00000000000E+00 0.  1.
          2   -1    0    0  501    0  0.00000000000E+00 -0.00000000000E+00 -0.20925240787E+03  0.20925240787E+03  0.00000000000E+00 0. -1.
         25    2    1    2    0    0  0.74076461700E+02  0.10326303829E+03 -0.19969976605E+00  0.17830483312E+03  0.12506796704E+03 0.  0.
          5    1    3    3  502    0  0.59880671706E+02  0.76992993112E+01  0.41096999441E+02  0.73153330867E+02  0.41800000000E+01 0. -1.
         -5    1    3    3    0  502  0.14195789994E+02  0.95563738978E+02 -0.41296699207E+02  0.10515150225E+03  0.41800000000E+01 0. -1.
        -11    1    1    2    0    0 -0.25998351224E+02 -0.98294053427E+02 -0.66688075211E+02  0.12159331635E+03  0.00000000000E+00 0. -1.
         11    1    1    2    0    0 -0.48078110475E+02 -0.49689848617E+01 -0.32739313422E+01  0.48444959943E+02  0.00000000000E+00 0.  1.
</event>
<event>
 7    1  0.2732144E-009  0.1298221E+03  0.7561462E-02  0.1227720E+00
         -1   -1    0    0    0  501 -0.00000000000E+00  0.00000000000E+00  0.49404466211E+03  0.49404466211E+03  0.00000000000E+00 0.  1.
          1   -1    0    0  501    0  0.00000000000E+00 -0.00000000000E+00 -0.48437521831E+02  0.48437521831E+02  0.00000000000E+00 0. -1.
         25    2    1    2    0    0  0.72608431711E+02 -0.79989760544E+02  0.27695167843E+03  0.32252172500E+03  0.12509070615E+03 0.  0.
          5    1    3    3  502    0  0.53508754361E+02  0.60555841325E+01  0.19412753415E+03  0.20150143624E+03  0.41800000000E+01 0. -1.
         -5    1    3    3    0  502  0.19099677350E+02 -0.86045344677E+02  0.82824144280E+02  0.12102028876E+03  0.41800000000E+01 0. -1.
        -11    1    1    2    0    0 -0.15235248683E+02 -0.39316778130E+01  0.90162517618E+02  0.91525135761E+02  0.00000000000E+00 0.  1.
         11    1    1    2    0    0 -0.57373183028E+02  0.83921438357E+02  0.78492944234E+02  0.12843532318E+03  0.00000000000E+00 0. -1.
</event>
<event>
 7    1  0.2732144E-009  0.7905049E+02  0.7561462E-02  0.1331768E+00
          3   -1    0    0  501    0  0.00000000000E+00  0.00000000000E+00  0.56122461131E+02  0.56122461131E+02  0.00000000000E+00 0. -1.
         -3   -1    0    0    0  501 -0.00000000000E+00 -0.00000000000E+00 -0.15188767665E+03  0.15188767665E+03  0.00000000000E+00 0.  1.
         25    2    1    2    0    0  0.15830409757E+01  0.30068783684E+02 -0.53128159649E+02  0.13921384899E+03  0.12510498244E+03 0.  0.
          5    1    3    3  502    0  0.25538863889E+02 -0.41138525877E+02 -0.27858098174E+01  0.48681053978E+02  0.41800000000E+01 0.  1.
         -5    1    3    3    0  502 -0.23955822913E+02  0.71207309561E+02 -0.50342349831E+02  0.90532795013E+02  0.41800000000E+01 0.  1.
        -11    1    1    2    0    0  0.69508878587E+01 -0.19304817912E+02 -0.49395341558E+02  0.53487293858E+02  0.00000000000E+00 0.  1.
         11    1    1    2    0    0 -0.85339288344E+01 -0.10763965772E+02  0.67582856858E+01  0.15308994934E+02  0.00000000000E+00 0. -1.
</event>
<event>
 7    1  0.2732144E-009  0.8350273E+02  0.7561462E-02  0.1319395E+00
         -2   -1    0    0    0  501 -0.00000000000E+00  0.00000000000E+00  0.21901674017E+02  0.21901674017E+02  0.00000000000E+00 0. -1.
          2   -1    0    0  501    0  0.00000000000E+00 -0.00000000000E+00 -0.62160475001E+03  0.62160475001E+03  0.00000000000E+00 0.  1.
         25    2    1    2    0    0  0.25105442007E+02  0.10365648619E+02 -0.45919041268E+03  0.47669785590E+03  0.12508909161E+03 0.  0.
          5    1    3    3  502    0  0.73221445691E+01 -0.36482508341E+02 -0.38650418570E+03  0.38831372006E+03  0.41800000000E+01 0.  1.
         -5    1    3    3    0  502  0.17783297438E+02  0.46848156960E+02 -0.72686226973E+02  0.88384135850E+02  0.41800000000E+01 0.  1.
        -11    1    1    2    0    0  0.20743202244E+02  0.16172170994E+02 -0.14321018866E+02  0.29948474675E+02  0.00000000000E+00 0. -1.
         11    1    1    2    0    0 -0.45848644251E+02 -0.26537819613E+02 -0.12619164445E+03  0.13686009344E+03  0.00000000000E+00 0.  1.
</event>
<event>
 7    1  0.2732144E-009  0.8759266E+02  0.7561462E-02  0.1308788E+00
         -1   -1    0    0    0  501 -0.00000000000E+00  0.00000000000E+00  0.22270852295E+03  0.22270852295E+03  0.00000000000E+00 0.  1.
          1   -1    0    0  501    0  0.00000000000E+00 -0.00000000000E+00 -0.73331901459E+02  0.73331901459E+02  0.00000000000E+00 0. -1.
         25    2    1    2    0    0  0.40269497598E+02 -0.39295500306E+02  0.78514571389E+02  0.15804461375E+03  0.12509113971E+03 0.  0.
          5    1    3    3  502    0 -0.14847422331E+02  0.99919680545E+01 -0.24837794195E+02  0.30897795973E+02  0.41800000000E+01 0.  1.
         -5    1    3    3    0  502  0.55116919930E+02 -0.49287468361E+02  0.10335236558E+03  0.12714681778E+03  0.41800000000E+01 0.  1.
        -11    1    1    2    0    0 -0.55880597170E+02  0.23750906460E+02  0.90166015604E+02  0.10870444824E+03  0.00000000000E+00 0.  1.
         11    1    1    2    0    0  0.15611099572E+02  0.15544593846E+02 -0.19303965504E+02  0.29291362411E+02  0.00000000000E+00 0. -1.
</event>
<event>
 7    1  0.2732144E-009  0.1204242E+03  0.7561462E-02  0.1242399E+00
          1   -1    0    0  501    0  0.00000000000E+00  0.00000000000E+00  0.54713275112E+02  0.54713275112E+02  0.00000000000E+00 0. -1.
         -1   -1    0    0    0  501 -0.00000000000E+00 -0.00000000000E+00 -0.30464582450E+03  0.30464582450E+03  0.00000000000E+00 0.  1.
         25    2    1    2    0    0 -0.30287694034E+02 -0.54806477857E+02 -0.10403843245E+03  0.17433412492E+03  0.12508915723E+03 0.  0.
          5    1    3    3  502    0  0.98489125513E+01 -0.79199018224E+02 -0.27653917588E+02  0.84567707336E+02  0.41800000000E+01 0.  1.
         -5    1    3    3    0  502 -0.40136606585E+02  0.24392540367E+02 -0.76384514866E+02  0.89766417579E+02  0.41800000000E+01 0.  1.
        -11    1    1    2    0    0 -0.30069327747E+02 -0.29804923645E+01 -0.40188280877E+02  0.50280669503E+02  0.00000000000E+00 0. -1.
         11    1    1    2    0    0  0.60357021781E+02  0.57786970222E+02 -0.10570583606E+03  0.13474430520E+03  0.00000000000E+00 0.  1.
</event>
<event>
 7    1  0.2732144E-009  0.1553538E+03  0.7561462E-02  0.1194044E+00
          1   -1    0    0  501    0  0.00000000000E+00  0.00000000000E+00  0.98019436992E+03  0.98019436992E+03  0.00000000000E+00 0. -1.
         -1   -1    0    0    0  501 -0.00000000000E+00 -0.00000000000E+00 -0.40076531661E+02  0.40076531661E+02  0.00000000000E+00 0.  1.
         25    2    1    2    0    0  0.11899517018E+03 -0.81008935879E+01  0.78739902379E+03  0.80614524522E+03  0.12508980266E+03 0.  0.
          5    1    3    3  502    0  0.57985741522E+02 -0.59682092990E+02  0.53273270089E+03  0.53920858807E+03  0.41800000000E+01 0. -1.
         -5    1    3    3    0  502  0.61009428656E+02  0.51581199402E+02  0.25466632290E+03  0.26693665716E+03  0.41800000000E+01 0. -1.
        -11    1    1    2    0    0 -0.14342386422E+02 -0.32195802845E+02  0.20578682020E+02  0.40813673233E+02  0.00000000000E+00 0.  1.
         11    1    1    2    0    0 -0.10465278376E+03  0.40296696433E+02  0.13214013245E+03  0.17331198313E+03  0.00000000000E+00 0. -1.
</event>
<event>
 7    1  0.2904364E-009  0.1354101E+03  0.7561462E-02  0.1219642E+00
         -2   -1    0    0    0  501 -0.00000000000E+00  0.00000000000E+00  0.11419598402E+03  0.11419598402E+03  0.00000000000E+00 0.  1.
          2   -1    0    0  501    0  0.00000000000E+00 -0.00000000000E+00 -0.18888587672E+03  0.18888587672E+03  0.00000000000E+00 0. -1.
         25    2    1    2    0    0 -0.14015019452E+02 -0.97354292705E+02 -0.45172364732E+02  0.16541621105E+03  0.12509077210E+03 0.  0.
          5    1    3    3  502    0 -0.22826503962E+02 -0.12632639640E+03 -0.33944677811E+02  0.13284999534E+03  0.41800000000E+01 0. -1.
         -5    1    3    3    0  502  0.88114845101E+01  0.28972103698E+02 -0.11227686921E+02  0.32566215708E+02  0.41800000000E+01 0. -1.
        -11    1    1    2    0    0  0.34370478606E+02  0.55750732584E+02  0.21335578887E+02  0.68881644214E+02  0.00000000000E+00 0.  1.
         11    1    1    2    0    0 -0.20355459154E+02  0.41603560121E+02 -0.50853106859E+02  0.68784005476E+02  0.00000000000E+00 0. -1.
</event>
<event>
 7    1  0.2732144E-009  0.1009244E+03  0.7561462E-02  0.1278364E+00
         -2   -1    0    0    0  501 -0.00000000000E+00  0.00000000000E+00  0.45197444160E+02  0.45197444160E+02  0.00000000000E+00 0.  1.
          2   -1    0    0  501    0  0.00000000000E+00 -0.00000000000E+00 -0.83314836729E+03  0.83314836729E+03  0.00000000000E+00 0. -1.
         25    2    1    2    0    0  0.26244265845E+02  0.65932312991E+02 -0.75667779172E+03  0.77022762851E+03  0.12511389952E+03 0.  0.
          5    1    3    3  502    0 -0.20962507132E+02  0.59481381486E+02 -0.65297362667E+03  0.65602552617E+03  0.41800000000E+01 0. -1.
         -5    1    3    3    0  502  0.47206772977E+02  0.64509315050E+01 -0.10370416504E+03  0.11420210234E+03  0.41800000000E+01 0. -1.
        -11    1    1    2    0    0 -0.12772644593E+01 -0.65835290407E+02  0.27641376605E+01  0.65905669896E+02  0.00000000000E+00 0.  1.
         11    1    1    2    0    0 -0.24967001386E+02 -0.97022584265E-01 -0.34037269072E+02  0.42212513044E+02  0.00000000000E+00 0. -1.
</event>
<event>
 7    1  0.2732144E-009  0.1072681E+03  0.7561462E-02  0.1265714E+00
         -4   -1    0    0    0  501 -0.00000000000E+00  0.00000000000E+00  0.12864844898E+03  0.12864844898E+03  0.00000000000E+00 0.  1.
          4   -1    0    0  501    0  0.00000000000E+00 -0.00000000000E+00 -0.11830400663E+03  0.11830400663E+03  0.00000000000E+00 0. -1.
         25    2    1    2    0    0 -0.36932778752E+02  0.10323823211E+02 -0.38389611613E+02  0.13635414036E+03  0.12509227730E+03 0.  0.
          5    1    3    3  502    0 -0.50813379519E+02  0.56147169117E+02 -0.44456516956E+02  0.87911082565E+02  0.41800000000E+01 0. -1.
         -5    1    3    3    0  502  0.13880600767E+02 -0.45823345906E+02  0.60669053427E+01  0.48443057790E+02  0.41800000000E+01 0. -1.
        -11    1    1    2    0    0 -0.18267062537E+02 -0.27329867743E+02 -0.30630877626E+01  0.33014992825E+02  0.00000000000E+00 0. -1.
         11    1    1    2    0    0  0.55199841289E+02  0.17006044532E+02  0.51797141718E+02  0.77583322429E+02  0.00000000000E+00 0.  1.
</event>
<event>
 7    1  0.2732144E-009  0.2311073E+03  0.7561462E-02  0.1125863E+00
          2   -1    0    0  501    0  0.00000000000E+00  0.00000000000E+00  0.15184925156E+03  0.15184925156E+03  0.00000000000E+00 0. -1.
         -2   -1    0    0    0  501 -0.00000000000E+00 -0.00000000000E+00 -0.43666715811E+03  0.43666715811E+03  0.00000000000E+00 0.  1.
         25    2    1    2    0    0 -0.59068179136E+02 -0.20137897610E+03 -0.26192592603E+03  0.35818349346E+03  0.12509069695E+03 0.  0.
          5    1    3    3  502    0 -0.79094675861E+02 -0.19848312749E+03 -0.19921663175E+03  0.29215793402E+03  0.41800000000E+01 0. -1.
         -5    1    3    3    0  502  0.20026496725E+02 -0.28958486087E+01 -0.62709294283E+02  0.66025559442E+02  0.41800000000E+01 0. -1.
        -11    1    1    2    0    0  0.80917704128E+02  0.12930681968E+03 -0.35594084315E+01  0.15257980812E+03  0.00000000000E+00 0. -1.
         11    1    1    2    0    0 -0.21849524992E+02  0.72072156420E+02 -0.19332572084E+02  0.77753108085E+02  0.00000000000E+00 0.  1.
</event>
<event>
 7    1  0.2732144E-009  0.1044035E+03  0.7561462E-02  0.1271299E+00
          2   -1    0    0  501    0  0.00000000000E+00  0.00000000000E+00  0.24699793663E+03  0.24699793663E+03  0.00000000000E+00 0. -1.
         -2   -1    0    0    0  501 -0.00000000000E+00 -0.00000000000E+00 -0.65866493820E+02  0.65866493820E+02  0.00000000000E+00 0.  1.
         25    2    1    2    0    0  0.31303709727E+02 -0.39720702887E+02  0.15173894007E+03  0.20305612843E+03  0.12509767735E+03 0.  0.
          5    1    3    3  502    0  0.41266031789E+01 -0.77501383275E+02  0.13012956247E+03  0.15157397102E+03  0.41800000000E+01 0. -1.
         -5    1    3    3    0  502  0.27177106548E+02  0.37780680388E+02  0.21609377604E+02  0.51482157408E+02  0.41800000000E+01 0. -1.
        -11    1    1    2    0    0 -0.47727146433E+02  0.76660832049E+01 -0.16852517762E+02  0.51192349949E+02  0.00000000000E+00 0.  1.
         11    1    1    2    0    0  0.16423436706E+02  0.32054619682E+02  0.46245020498E+02  0.58615952070E+02  0.00000000000E+00 0. -1.
</event>
<event>
 7    1  0.2732144E-009  0.9916469E+02  0.7561462E-02  0.1282062E+00
          2   -1    0    0  501    0  0.00000000000E+00  0.00000000000E+00  0.90654300650E+02  0.90654300650E+02  0.00000000000E+00 0. -1.
         -2   -1    0    0    0  501 -0.00000000000E+00 -0.00000000000E+00 -0.14147048813E+03  0.14147048813E+03  0.00000000000E+00 0.  1.
         25    2    1    2    0    0 -0.40238104946E+02  0.12478325601E+02 -0.17447732171E+02  0.13314296856E+03  0.12509121879E+03 0.  0.
          5    1    3    3  502    0  0.44510893451E+02  0.14849279633E+02 -0.59388708520E+01  0.47481189207E+02  0.41800000000E+01 0.  1.
         -5    1    3    3    0  502 -0.84748998397E+02 -0.23709540316E+01 -0.11508861318E+02  0.85661779349E+02  0.41800000000E+01 0.  1.
        -11    1    1    2    0    0  0.23507843995E+02 -0.32584676589E+02  0.15891670807E+02  0.43207928425E+02  0.00000000000E+00 0. -1.
         11    1    1    2    0    0  0.16730260951E+02  0.20106350988E+02 -0.49260126119E+02  0.55773891802E+02  0.00000000000E+00 0.  1.
</event>
<event>
 7    1  0.2732144E-009  0.1250000E+03  0.7561462E-02  0.1235069E+00
          2   -1    0    0  501    0  0.00000000000E+00  0.00000000000E+00  0.52974701153E+03  0.52974701153E+03  0.00000000000E+00 0.  1.
         -2   -1    0    0    0  501 -0.00000000000E+00 -0.00000000000E+00 -0.39193478086E+02  0.39193478086E+02  0.00000000000E+00 0. -1.
         25    2    1    2    0    0 -0.85845046111E+02 -0.36520819713E+02  0.23094282874E+03  0.27871929707E+03  0.12508682663E+03 0.  0.
          5    1    3    3  502    0 -0.92626989725E+02 -0.10552409457E+02  0.23347928335E+03  0.25143818469E+03  0.41800000000E+01 0.  1.
         -5    1    3    3    0  502  0.67819436138E+01 -0.25968410255E+02 -0.25364546047E+01  0.27281112373E+02  0.41800000000E+01 0.  1.
        -11    1    1    2    0    0  0.78688463144E+02  0.63807434749E+02  0.19591389104E+03  0.22055728431E+03  0.00000000000E+00 0. -1.
         11    1    1    2    0    0  0.71565829666E+01 -0.27286615036E+02  0.63696813664E+02  0.69663908237E+02  0.00000000000E+00 0.  1.
</event>
<event>
 7    1  0.2732144E-009  0.1055596E+03  0.7561462E-02  0.1269021E+00
         -2   -1    0    0    0  501 -0.00000000000E+00  0.00000000000E+00  0.45613552382E+02  0.45613552382E+02  0.00000000000E+00 0.  1.
          2   -1    0    0  501    0  0.00000000000E+00 -0.00000000000E+00 -0.39973846100E+03  0.39973846100E+03  0.00000000000E+00 0. -1.
         25    2    1    2    0    0 -0.61185448151E+02  0.42453304393E+02 -0.14761779884E+03  0.20733477278E+03  0.12510296299E+03 0.  0.
          5    1    3    3  502    0  0.75574561740E+01 -0.50687465663E+01 -0.11822449799E+03  0.11864784726E+03  0.41800000000E+01 0.  1.
         -5    1    3    3    0  502 -0.68742904325E+02  0.47522050960E+02 -0.29393300854E+02  0.88686925516E+02  0.41800000000E+01 0.  1.
        -11    1    1    2    0    0  0.17807871276E+02  0.28888783919E+02 -0.73806277865E+02  0.81234529407E+02  0.00000000000E+00 0.  1.
         11    1    1    2    0    0  0.43377576874E+02 -0.71342088312E+02 -0.13270083191E+03  0.15678271120E+03  0.00000000000E+00 0. -1.
</event>
<event>
 7    1  0.2732144E-009  0.1115777E+03  0.7561462E-02  0.1257676E+00
          2   -1    0    0  501    0  0.00000000000E+00  0.00000000000E+00  0.66250234064E+03  0.66250234064E+03  0.00000000000E+00 0. -1.
         -2   -1    0    0    0  501 -0.00000000000E+00 -0.00000000000E+00 -0.43337026522E+02  0.43337026522E+02  0.00000000000E+00 0.  1.
         25    2    1    2    0    0 -0.71913597414E+02 -0.59048301923E+02  0.13992560147E+03  0.20948330024E+03  0.12508321902E+03 0.  0.
          5    1    3    3  502    0 -0.14673765308E+02 -0.25962635083E+02  0.14003588294E+03  0.14323721136E+03  0.41800000000E+01 0. -1.
         -5    1    3    3    0  502 -0.57239832105E+02 -0.33085666839E+02 -0.11028146619E+00  0.66246088878E+02  0.41800000000E+01 0. -1.
        -11    1    1    2    0    0  0.51983723438E+02 -0.11708084392E+02  0.15553309241E+03  0.16440781483E+03  0.00000000000E+00 0.  1.
         11    1    1    2    0    0  0.19929873976E+02  0.70756386314E+02  0.32370662024E+03  0.33194825210E+03  0.00000000000E+00 0. -1.
</event>
<event>
 7    1  0.2732144E-009  0.9764139E+02  0.7561462E-02  0.1285335E+00
          2   -1    0    0  501    0  0.00000000000E+00  0.00000000000E+00  0.72158999073E+02  0.72158999073E+02  0.00000000000E+00 0. -1.
         -2   -1    0    0    0  501 -0.00000000000E+00 -0.00000000000E+00 -0.24354343538E+03  0.24354343538E+03  0.00000000000E+00 0.  1.
         25    2    1    2    0    0 -0.48153316388E+02  0.37887455546E+02 -0.40645230291E+02  0.14509819874E+03  0.12508897379E+03 0.  0.
          5    1    3    3  502    0 -0.23690340674E+02  0.61818822381E+02  0.25049351637E+02  0.70906568520E+02  0.41800000000E+01 0. -1.
         -5    1    3    3    0  502 -0.24462975714E+02 -0.23931366836E+02 -0.65694581928E+02  0.74191630216E+02  0.41800000000E+01 0. -1.
        -11    1    1    2    0    0  0.62219308199E+02 -0.97015624032E+01 -0.12297600277E+03  0.13816099262E+03  0.00000000000E+00 0.  1.
         11    1    1    2    0    0 -0.14065991811E+02 -0.28185893143E+02 -0.77632032496E+01  0.32443243096E+02  0.00000000000E+00 0. -1.
</event>
<event>
 7    1  0.2732144E-009  0.1248895E+03  0.7561462E-02  0.1235242E+00
          2   -1    0    0  501    0  0.00000000000E+00  0.00000000000E+00  0.18523287294E+03  0.18523287294E+03  0.00000000000E+00 0. -1.
         -2   -1    0    0    0  501 -0.00000000000E+00 -0.00000000000E+00 -0.16259489959E+03  0.16259489959E+03  0.00000000000E+00 0.  1.
         25    2    1    2    0    0 -0.99954728347E+02  0.32419526581E+02  0.99941744218E+02  0.19150865350E+03  0.12508092863E+03 0.  0.
          5    1    3    3  502    0 -0.89860394919E+02  0.53827510331E+02  0.12061553545E+03  0.15980572967E+03  0.41800000000E+01 0. -1.
         -5    1    3    3    0  502 -0.10094333428E+02 -0.21407983749E+02 -0.20673791233E+02  0.31702923832E+02  0.41800000000E+01 0. -1.
        -11    1    1    2    0    0  0.80209539365E+02 -0.49963936810E+02 -0.86738251278E+02  0.12827115584E+03  0.00000000000E+00 0.  1.
         11    1    1    2    0    0  0.19745188982E+02  0.17544410229E+02  0.94344804083E+01  0.28047963184E+02  0.00000000000E+00 0. -1.
</event>
<event>
 7    1  0.2732144E-009  0.1711220E+03  0.7561462E-02  0.1176683E+00
         -3   -1    0    0    0  501 -0.00000000000E+00  0.00000000000E+00  0.78838376622E+02  0.78838376622E+02  0.00000000000E+00 0.  1.
          3   -1    0    0  501    0  0.00000000000E+00 -0.00000000000E+00 -0.44280192594E+03  0.44280192594E+03  0.00000000000E+00 0. -1.
         25    2    1    2    0    0  0.10892718218E+03 -0.10458652765E+03 -0.21056797851E+03  0.28773333622E+03  0.12509247146E+03 0.  0.
          5    1    3    3  502    0  0.86426461372E+02 -0.11866325775E+03 -0.10959259610E+03  0.18324440370E+03  0.41800000000E+01 0.  1.
         -5    1    3    3    0  502  0.22500720807E+02  0.14076730101E+02 -0.10097538241E+03  0.10448893252E+03  0.41800000000E+01 0.  1.
        -11    1    1    2    0    0 -0.99225293245E+02  0.46422607088E+02 -0.13114946077E+03  0.17088270342E+03  0.00000000000E+00 0. -1.
         11    1    1    2    0    0 -0.97018889341E+01  0.58163920566E+02 -0.22246110035E+02  0.63024262916E+02  0.00000000000E+00 0.  1.
</event>
<event>
 7    1  0.2732144E-009  0.1279535E+03  0.7561462E-02  0.1230524E+00
          2   -1    0    0  501    0  0.00000000000E+00  0.00000000000E+00  0.22407315620E+03  0.22407315620E+03  0.00000000000E+00 0. -1.
         -2   -1    0    0    0  501 -0.00000000000E+00 -0.00000000000E+00 -0.91385860917E+02  0.91385860917E+02  0.00000000000E+00 0.  1.
         25    2    1    2    0    0  0.86154305988E+02 -0.33635918213E+02  0.58047566251E+02  0.16604618700E+03  0.12509147387E+03 0.  0.
          5    1    3    3  502    0  0.68569352263E+02  0.33812291961E+02  0.21441021697E+01  0.76596975995E+02  0.41800000000E+01 0.  1.
         -5    1    3    3    0  502  0.17584953725E+02 -0.67448210175E+02  0.55903464081E+02  0.89449211006E+02  0.41800000000E+01 0.  1.
        -11    1    1    2    0    0 -0.80330598971E+01  0.30270524014E+02 -0.11234400336E+02  0.33272307198E+02  0.00000000000E+00 0.  1.
         11    1    1    2    0    0 -0.78121246091E+02  0.33653941995E+01  0.85874129365E+02  0.11614052292E+03  0.00000000000E+00 0. -1.
</event>
<event>
 7    1  0.2732144E-009  0.1056782E+03  0.7561462E-02  0.1268789E+00
          2   -1    0    0  501    0  0.00000000000E+00  0.00000000000E+00  0.38395052362E+02  0.38395052362E+02  0.00000000000E+00 0. -1.
         -2   -1    0    0    0  501 -0.00000000000E+00 -0.00000000000E+00 -0.72724498594E+03  0.72724498594E+03  0.00000000000E+00 0.  1.
         25    2    1    2    0    0  0.10018756643E+02 -0.45976482361E+02 -0.61251524850E+03  0.62693414326E+03  0.12512904509E+03 0.  0.
          5    1    3    3  502    0  0.18191582752E+02  0.20922932622E+02 -0.45100820392E+03  0.45187893865E+03  0.41800000000E+01 0.  1.
         -5    1    3    3    0  502 -0.81728261094E+01 -0.66899414983E+02 -0.16150704457E+03  0.17505520460E+03  0.41800000000E+01 0.  1.
        -11    1    1    2    0    0 -0.40678369062E+02 -0.18278618735E+02 -0.30665571683E+02  0.54122221860E+02  0.00000000000E+00 0.  1.
         11    1    1    2    0    0  0.30659612420E+02  0.64255101096E+02 -0.45669113393E+02  0.84583673181E+02  0.00000000000E+00 0. -1.
</event>
<event>
 7    1  0.3113795E-009  0.1002471E+03  0.7561462E-02  0.1279777E+00
         -1   -1    0    0    0  501 -0.00000000000E+00  0.00000000000E+00  0.13824718432E+03  0.13824718432E+03  0.00000000000E+00 0.  1.
          1   -1    0    0  501    0  0.00000000000E+00 -0.00000000000E+00 -0.12899918344E+03  0.12899918344E+03  0.00000000000E+00 0. -1.
         25    2    1    2    0    0  0.14568049889E+02 -0.63508312635E+02 -0.37736407076E+02  0.14600155161E+03  0.12508750058E+03 0.  0.
          5    1    3    3  502    0 -0.30638409258E+02 -0.78966728349E+02  0.27510425207E+00  0.84805686073E+02  0.41800000000E+01 0. -1.
         -5    1    3    3    0  502  0.45206459147E+02  0.15458415714E+02 -0.38011511328E+02  0.61195865534E+02  0.41800000000E+01 0. -1.
        -11    1    1    2    0    0 -0.47705102015E+01  0.53542745005E+02  0.73625440180E+02  0.91160785165E+02  0.00000000000E+00 0.  1.
         11    1    1    2    0    0 -0.97975396875E+01  0.99655676293E+01 -0.26641032232E+02  0.30084030988E+02  0.00000000000E+00 0. -1.
</event>
<event>
 7    1  0.2732144E-009  0.8129930E+02  0.7561462E-02  0.1325404E+00
          1   -1    0    0  501    0  0.00000000000E+00  0.00000000000E+00  0.10072664952E+03  0.10072664952E+03  0.00000000000E+00 0. -1.
         -1   -1    0    0    0  501 -0.00000000000E+00 -0.00000000000E+00 -0.11897713661E+03  0.11897713661E+03  0.00000000000E+00 0.  1.
         25    2    1    2    0    0  0.11352528541E+02 -0.12156158629E+02 -0.44571040905E+01  0.12627235300E+03  0.12509272264E+03 0.  0.
          5    1    3    3  502    0  0.39609513988E+02  0.39885206137E+02 -0.27342763875E+02  0.62648562659E+02  0.41800000000E+01 0.  1.
         -5    1    3    3    0  502 -0.28256985447E+02 -0.52041364766E+02  0.22885659785E+02  0.63623790339E+02  0.41800000000E+01 0.  1.
        -11    1    1    2    0    0  0.53606859243E+01 -0.14469160828E+02 -0.45943977731E+02  0.48465891701E+02  0.00000000000E+00 0.  1.
         11    1    1    2    0    0 -0.16713214465E+02  0.26625319457E+02  0.32150594735E+02  0.44965541426E+02  0.00000000000E+00 0. -1.
</event>
<event>
 7    1  0.2732144E-009  0.1487324E+03  0.7561462E-02  0.1202039E+00
          2   -1    0    0  501    0  0.00000000000E+00  0.00000000000E+00  0.76858708950E+03  0.76858708950E+03  0.00000000000E+00 0. -1.
         -2   -1    0    0    0  501 -0.00000000000E+00 -0.00000000000E+00 -0.30135050320E+02  0.30135050320E+02  0.00000000000E+00 0.  1.
         25    2    1    2    0    0 -0.10614933496E+03 -0.34886316999E+01  0.38159780248E+03  0.41538536340E+03  0.12509302701E+03 0.  0.
          5    1    3    3  502    0 -0.13284664296E+03  0.84705161022E+01  0.33101940735E+03  0.35680709162E+03  0.41800000000E+01 0.  1.
         -5    1    3    3    0  502  0.26697308002E+02 -0.11959147802E+02  0.50578395127E+02  0.58578271777E+02  0.41800000000E+01 0.  1.
        -11    1    1    2    0    0  0.91768851694E+01  0.32293403053E+02  0.49894411897E+02  0.60137604215E+02  0.00000000000E+00 0.  1.
         11    1    1    2    0    0  0.96972449790E+02 -0.28804771353E+02  0.30695982481E+03  0.32319917221E+03  0.00000000000E+00 0. -1.
</event>
<event>
 7    1  0.2732144E-009  0.1278555E+03  0.7561462E-02  0.1230673E+00
         -2   -1    0    0    0  501 -0.00000000000E+00  0.00000000000E+00  0.83706663983E+02  0.83706663983E+02  0.00000000000E+00 0. -1.
          2   -1    0    0  501    0  0.00000000000E+00 -0.00000000000E+00 -0.27789813073E+03  0.27789813073E+03  0.00000000000E+00 0.  1.
         25    2    1    2    0    0  0.29965706682E+02  0.62918759334E+02 -0.92734945591E+01  0.14350652140E+03  0.12510559592E+03 0.  0.
          5    1    3    3  502    0  0.66663950851E+02 -0.37940603870E+01 -0.62065591148E+01  0.67189813315E+02  0.41800000000E+01 0.  1.
         -5    1    3    3    0  502 -0.36698244169E+02  0.66712819721E+02 -0.30669354443E+01  0.76316708087E+02  0.41800000000E+01 0.  1.
        -11    1    1    2    0    0  0.25559579566E+00  0.22214105015E+02 -0.19227039891E+02  0.29380450198E+02  0.00000000000E+00 0. -1.
         11    1    1    2    0    0 -0.30221302478E+02 -0.85132864349E+02 -0.16569093230E+03  0.18871782312E+03  0.00000000000E+00 0.  1.
</event>
<event>
 7    1  0.2732144E-009  0.1214508E+03  0.7561462E-02  0.1240723E+00
          3   -1    0    0  501    0  0.00000000000E+00  0.00000000000E+00  0.41981261300E+02  0.41981261300E+02  0.00000000000E+00 0. -1.
         -3   -1    0    0    0  501 -0.00000000000E+00 -0.00000000000E+00 -0.54800425055E+03  0.54800425055E+03  0.00000000000E+00 0.  1.
         25    2    1    2    0    0 -0.67483873815E+02  0.76753991587E+02 -0.29288571690E+03  0.33447673869E+03  0.12508955637E+03 0.  0.
          5    1    3    3  502    0 -0.18620296955E+02  0.39543251503E+02 -0.26190444024E+03  0.26555939527E+03  0.41800000000E+01 0.  1.
         -5    1    3    3    0  502 -0.48863576860E+02  0.37210740085E+02 -0.30981276660E+02  0.68917343425E+02  0.41800000000E+01 0.  1.
        -11    1    1    2    0    0  0.87494514730E+02 -0.78230309980E+02 -0.15791906274E+03  0.19675797794E+03  0.00000000000E+00 0. -1.
         11    1    1    2    0    0 -0.20010640914E+02  0.14763183922E+01 -0.55218209616E+02  0.58750795221E+02  0.00000000000E+00 0.  1.
</event>
<event>
 7    1  0.2732144E-009  0.1193766E+03  0.7561462E-02  0.1244129E+00
         -2   -1    0    0    0  501 -0.00000000000E+00  0.00000000000E+00  0.35438499778E+02  0.35438499778E+02  0.00000000000E+00 0.  1.
          2   -1    0    0  501    0  0.00000000000E+00 -0.00000000000E+00 -0.50127918039E+03  0.50127918039E+03  0.00000000000E+00 0. -1.
         25    2    1    2    0    0  0.73311184159E+02  0.13705457139E+02 -0.30061778634E+03  0.33403856533E+03  0.12509332669E+03 0.  0.
          5    1    3    3  502    0  0.58895898950E+02 -0.47870379096E+02 -0.21100301905E+03  0.22427671871E+03  0.41800000000E+01 0. -1.
         -5    1    3    3    0  502  0.14415285209E+02  0.61575836236E+02 -0.89614767293E+02  0.10976184662E+03  0.41800000000E+01 0. -1.
        -11    1    1    2    0    0 -0.51850915614E+02 -0.39953553240E+02 -0.49431462344E+02  0.82026052788E+02  0.00000000000E+00 0.  1.
         11    1    1    2    0    0 -0.21460268545E+02  0.26248096101E+02 -0.11579143192E+03  0.12065306205E+03  0.00000000000E+00 0. -1.
</event>
<event>
 7    1  0.2732144E-009  0.1171425E+03  0.7561462E-02  0.1247887E+00
         -2   -1    0    0    0  501 -0.00000000000E+00  0.00000000000E+00  0.25442755332E+02  0.25442755332E+02  0.00000000000E+00 0.  1.
          2   -1    0    0  501    0  0.00000000000E+00 -0.00000000000E+00 -0.65119455756E+03  0.65119455756E+03  0.00000000000E+00 0. -1.
         25    2    1    2    0    0 -0.16578810121E+02 -0.66715553045E+02 -0.39865701501E+03  0.42343930925E+03  0.12509041144E+03 0.  0.
          5    1    3    3  502    0 -0.35310685284E+02  0.16588565171E+02 -0.24029171634E+03  0.24347403625E+03  0.41800000000E+01 0. -1.
         -5    1    3    3    0  502  0.18731875164E+02 -0.83304118216E+02 -0.15836529868E+03  0.17996527299E+03  0.41800000000E+01 0. -1.
        -11    1    1    2    0    0 -0.23384708824E+02  0.65533985405E+02 -0.11773754500E+03  0.13676138838E+03  0.00000000000E+00 0.  1.
         11    1    1    2    0    0  0.39963518945E+02  0.11815676403E+01 -0.10935724222E+03  0.11643661526E+03  0.00000000000E+00 0. -1.
</event>
<event>
 6    1  0.2732144E-009  0.1187637E+03  0.7561462E-02  0.1245151E+00
          4   -1    0    0  501    0  0.00000000000E+00  0.00000000000E+00  0.63406205823E+03  0.63406205823E+03  0.00000000000E+00 0. -1.
         -4   -1    0    0    0  501 -0.00000000000E+00 -0.00000000000E+00 -0.23539113931E+02  0.23539113931E+02  0.00000000000E+00 0.  1.
          5    1    1    2  502    0 -0.65316910727E+02  0.40080161064E+02  0.15073353330E+03  0.16914723941E+03  0.41800000000E+01 0.  1.
         -5    1    1    2    0  502  0.12370894300E+02 -0.51010092459E+02  0.20521763924E+03  0.21186509957E+03  0.41800000000E+01 0.  1.
        -11    1    1    2    0    0 -0.22684887139E+02 -0.16090602617E+02  0.63376045347E+02  0.69210076729E+02  0.00000000000E+00 0.  1.
         11    1    1    2    0    0  0.75630903566E+02  0.27020534013E+02  0.19119572641E+03  0.20737875646E+03  0.00000000000E+00 0. -1.
</event>
<event>
 7    1  0.2732144E-009  0.8130667E+02  0.7561462E-02  0.1325384E+00
          3   -1    0    0  501    0  0.00000000000E+00  0.00000000000E+00  0.17408295105E+02  0.17408295105E+02  0.00000000000E+00 0. -1.
         -3   -1    0    0    0  501 -0.00000000000E+00 -0.00000000000E+00 -0.12849146173E+04  0.12849146173E+04  0.00000000000E+00 0.  1.
         25    2    1    2    0    0 -0.25105638287E+02  0.27920230910E+02 -0.11028715320E+04  0.11105777005E+04  0.12508948999E+03 0.  0.
          5    1    3    3  502    0 -0.29629382475E+02 -0.16068682462E+02 -0.82205225872E+02  0.88945345143E+02  0.41800000000E+01 0.  1.
         -5    1    3    3    0  502  0.45237441887E+01  0.43988913371E+02 -0.10206663061E+04  0.10216323554E+04  0.41800000000E+01 0.  1.
        -11    1    1    2    0    0 -0.25402442855E+01  0.24678787653E+02 -0.10372780207E+03  0.10665342152E+03  0.00000000000E+00 0.  1.
         11    1    1    2    0    0  0.27645882572E+02 -0.52599018563E+02 -0.60906988104E+02  0.85091790302E+02  0.00000000000E+00 0. -1.
</event>
<event>
 7    1  0.2732144E-009  0.2860639E+03  0.7561462E-02  0.1092422E+00
         -1   -1    0    0    0  501 -0.00000000000E+00  0.00000000000E+00  0.14356365435E+03  0.14356365435E+03  0.00000000000E+00 0.  1.
          1   -1    0    0  501    0  0.00000000000E+00 -0.00000000000E+00 -0.95206231191E+03  0.95206231191E+03  0.00000000000E+00 0. -1.
         25    2    1    2    0    0 -0.12903449435E+03  0.23843230747E+03 -0.74493551260E+03  0.80254331447E+03  0.12508791984E+03 0.  0.
          5    1    3    3  502    0  0.55544161224E+01  0.71576736745E+02 -0.30196251294E+03  0.31040765520E+03  0.41800000000E+01 0. -1.
         -5    1    3    3    0  502 -0.13458891047E+03  0.16685557073E+03 -0.44297299966E+03  0.49213565928E+03  0.41800000000E+01 0. -1.
        -11    1    1    2    0    0  0.11191559886E+03 -0.11240937069E+03 -0.28552428332E+02  0.16117136548E+03  0.00000000000E+00 0. -1.
         11    1    1    2    0    0  0.17118895497E+02 -0.12602293678E+03 -0.35010716625E+02  0.13191128631E+03  0.00000000000E+00 0.  1.
</event>
<event>
 7    1  0.2732144E-009  0.1179133E+03  0.7561462E-02  0.1246580E+00
         -2   -1    0    0    0  501 -0.00000000000E+00  0.00000000000E+00  0.87181968045E+02  0.87181968045E+02  0.00000000000E+00 0.  1.
          2   -1    0    0  501    0  0.00000000000E+00 -0.00000000000E+00 -0.18810650442E+03  0.18810650442E+03  0.00000000000E+00 0. -1.
         25    2    1    2    0    0  0.66780412861E+02  0.47010459303E+01 -0.41010830721E+02  0.14768733825E+03  0.12509171943E+03 0.  0.
          5    1    3    3  502    0  0.18250054199E+02 -0.54685149735E+02  0.52252552154E+01  0.58037106853E+02  0.41800000000E+01 0. -1.
         -5    1    3    3    0  502  0.48530358662E+02  0.59386195665E+02 -0.46236085937E+02  0.89650231400E+02  0.41800000000E+01 0. -1.
        -11    1    1    2    0    0 -0.49956071752E+02  0.33041941542E+02 -0.62026025907E+02  0.86224166540E+02  0.00000000000E+00 0. -1.
         11    1    1    2    0    0 -0.16824341109E+02 -0.37742987472E+02  0.21123202514E+01  0.41376967674E+02  0.00000000000E+00 0.  1.
</event>
<event>
 7    1  0.2732144E-009  0.6890330E+02  0.7561462E-02  0.1363863E+00
         -1   -1    0    0    0  501 -0.00000000000E+00  0.00000000000E+00  0.57075383326E+02  0.57075383326E+02  0.00000000000E+00 0.  1.
          1   -1    0    0  501    0  0.00000000000E+00 -0.00000000000E+00 -0.20864675957E+03  0.20864675957E+03  0.00000000000E+00 0. -1.
         25    2    1    2    0    0 -0.13240195960E+02  0.76636360936E+01 -0.63837080305E+02  0.14125210797E+03  0.12507178370E+03 0.  0.
          5    1    3    3  502    0 -0.12660933623E+02  0.40453437615E+02  0.22948540065E+02  0.48382721567E+02  0.41800000000E+01 0.  1.
         -5    1    3    3    0  502 -0.57926233660E+00 -0.32789801522E+02 -0.86785620370E+02  0.92869386408E+02  0.41800000000E+01 0.  1.
        -11    1    1    2    0    0 -0.26659929947E+01  0.25358878434E+02  0.38830706772E+01  0.25792604986E+02  0.00000000000E+00 0.  1.
         11    1    1    2    0    0  0.15906188954E+02 -0.33022514528E+02 -0.91617366612E+02  0.98677429931E+02  0.00000000000E+00 0. -1.
</event>
<event>
 7    1  0.2732144E-009  0.1158041E+03  0.7561462E-02  0.1250184E+00
         -2   -1    0    0    0  501 -0.00000000000E+00  0.00000000000E+00  0.26945067300E+02  0.26945067300E+02  0.00000000000E+00 0.  1.
          2   -1    0    0  501    0  0.00000000000E+00 -0.00000000000E+00 -0.69634934691E+03  0.69634934691E+03  0.00000000000E+00 0. -1.
         25    2    1    2    0    0 -0.46403216887E+02  0.28114307784E+02 -0.53506185660E+03  0.55216143868E+03  0.12508953246E+03 0.  0.
          5    1    3    3  502    0 -0.52872438864E+02  0.68474309801E+02 -0.25998108583E+03  0.27402894607E+03  0.41800000000E+01 0. -1.
         -5    1    3    3    0  502  0.64692219771E+01 -0.40360002017E+02 -0.27508077077E+03  0.27813249261E+03  0.41800000000E+01 0. -1.
        -11    1    1    2    0    0  0.67574786357E+02  0.13948466415E+01 -0.10280239720E+03  0.12303101324E+03  0.00000000000E+00 0.  1.
         11    1    1    2    0    0 -0.21171569470E+02 -0.29509154426E+02 -0.31540025809E+02  0.48101962297E+02  0.00000000000E+00 0. -1.
</event>
<event>
 7    1  0.2732144E-009  0.2160786E+03  0.7561462E-02  0.1136841E+00
          2   -1    0    0  501    0  0.00000000000E+00  0.00000000000E+00  0.12882853028E+03  0.12882853028E+03  0.00000000000E+00 0. -1.
         -2   -1    0    0    0  501 -0.00000000000E+00 -0.00000000000E+00 -0.38600804303E+03  0.38600804303E+03  0.00000000000E+00 0.  1.
         25    2    1    2    0    0 -0.18438141921E+03  0.29332870950E+02 -0.19679757438E+03  0.29871731979E+03  0.12508327942E+03 0.  0.
          5    1    3    3  502    0 -0.12959755761E+03  0.77959023597E+02 -0.13577736097E+03  0.20328822015E+03  0.41800000000E+01 0.  1.
         -5    1    3    3    0  502 -0.54783861598E+02 -0.48626152647E+02 -0.61020213415E+02  0.95429099640E+02  0.41800000000E+01 0.  1.
        -11    1    1    2    0    0  0.46648531950E+02 -0.49810316517E+02 -0.21361360977E+02  0.71508467382E+02  0.00000000000E+00 0. -1.
         11    1    1    2    0    0  0.13773288726E+03  0.20477445567E+02 -0.39020577386E+02  0.14461078615E+03  0.00000000000E+00 0.  1.
</event>
<event>
 7    1  0.2732144E-009  0.1463120E+03  0.7561462E-02  0.1205079E+00
          2   -1    0    0  501    0  0.00000000000E+00  0.00000000000E+00  0.22358069644E+03  0.22358069644E+03  0.00000000000E+00 0. -1.
         -2   -1    0    0    0  501 -0.00000000000E+00 -0.00000000000E+00 -0.11788274170E+03  0.11788274170E+03  0.00000000000E+00 0.  1.
         25    2    1    2    0    0  0.77781199390E+02  0.75573684635E+02  0.11140803957E+03  0.19954539718E+03  0.12508124347E+03 0.  0.
          5    1    3    3  502    0  0.96134028068E+02  0.27736189411E+02  0.32340198353E+02  0.10523501502E+03  0.41800000000E+01 0.  1.
         -5    1    3    3    0  502 -0.18352828678E+02  0.47837495224E+02  0.79067841218E+02  0.94310382168E+02  0.41800000000E+01 0.  1.
        -11    1    1    2    0    0 -0.91589526242E+02 -0.34719493649E+02  0.26743188062E+01  0.97985899687E+02  0.00000000000E+00 0. -1.
         11    1    1    2    0    0  0.13808326852E+02 -0.40854190987E+02 -0.83844036371E+01  0.43932141263E+02  0.00000000000E+00 0.  1.
</event>
<event>
 7    1  0.2732144E-009  0.2112938E+03  0.7561462E-02  0.1140545E+00
         -2   -1    0    0    0  501 -0.00000000000E+00  0.00000000000E+00  0.25175204532E+02  0.25175204532E+02  0.00000000000E+00 0. -1.
          2   -1    0    0  501    0  0.00000000000E+00 -0.00000000000E+00 -0.18779723324E+04  0.18779723324E+04  0.00000000000E+00 0.  1.
         25    2    1    2    0    0  0.18757856526E+03 -0.20343630561E+01 -0.10501214502E+04  0.10740533885E+04  0.12508302988E+03 0.  0.
          5    1    3    3  502    0  0.19090490186E+03  0.20503547148E+02 -0.79437381785E+03  0.81725902374E+03  0.41800000000E+01 0. -1.
         -5    1    3    3    0  502 -0.33263365940E+01 -0.22537910204E+02 -0.25574763234E+03  0.25679436473E+03  0.41800000000E+01 0. -1.
        -11    1    1    2    0    0 -0.14090466523E+03  0.40812174932E+02 -0.54890489520E+03  0.56816929016E+03  0.00000000000E+00 0.  1.
         11    1    1    2    0    0 -0.46673900037E+02 -0.38777811876E+02 -0.25377078247E+03  0.26092485829E+03  0.00000000000E+00 0. -1.
</event>
<event>
 7    1  0.2732144E-009  0.9474030E+02  0.7561462E-02  0.1291762E+00
         -1   -1    0    0    0  501 -0.00000000000E+00  0.00000000000E+00  0.12955498993E+03  0.12955498993E+03  0.00000000000E+00 0.  1.
          1   -1    0    0  501    0  0.00000000000E+00 -0.00000000000E+00 -0.13438900729E+03  0.13438900729E+03  0.00000000000E+00 0. -1.
         25    2    1    2    0    0 -0.38884054668E+02 -0.51126078102E+02  0.38274626839E+02  0.14573400306E+03  0.12509039539E+03 0.  0.
          5    1    3    3  502    0 -0.19303859101E+02 -0.72965161322E+02  0.69503004051E+02  0.10268735908E+03  0.41800000000E+01 0. -1.
         -5    1    3    3    0  502 -0.19580195567E+02  0.21839083220E+02 -0.31228377212E+02  0.43046643976E+02  0.41800000000E+01 0. -1.
        -11    1    1    2    0    0 -0.14046115691E+02  0.11019679939E+02 -0.48403029563E+02  0.51590502836E+02  0.00000000000E+00 0. -1.
         11    1    1    2    0    0  0.52930170358E+02  0.40106398163E+02  0.52943853613E+01  0.66619491323E+02  0.00000000000E+00 0.  1.
</event>
<event>
 7    1  0.2732144E-009  0.9088755E+02  0.7561462E-02  0.1300716E+00
          2   -1    0    0  501    0  0.00000000000E+00  0.00000000000E+00  0.35135648998E+02  0.35135648998E+02  0.00000000000E+00 0.  1.
         -2   -1    0    0    0  501 -0.00000000000E+00 -0.00000000000E+00 -0.40675088199E+03  0.40675088199E+03  0.00000000000E+00 0. -1.
         25    2    1    2    0    0  0.49856262621E+02 -0.59836869439E+01 -0.22280010086E+03  0.26039296387E+03  0.12507261594E+03 0.  0.
          5    1    3    3  502    0  0.57126236421E+02  0.12503325463E+02 -0.23113037688E+03  0.23845012802E+03  0.41800000000E+01 0. -1.
         -5    1    3    3    0  502 -0.72699738000E+01 -0.18487012407E+02  0.83302760183E+01  0.21942835854E+02  0.41800000000E+01 0. -1.
        -11    1    1    2    0    0 -0.33947496941E+02  0.47501893545E+02 -0.97012570141E+02  0.11322676894E+03  0.00000000000E+00 0. -1.
         11    1    1    2    0    0 -0.15908765681E+02 -0.41518206601E+02 -0.51802561989E+02  0.68266798178E+02  0.00000000000E+00 0.  1.
</event>
<event>
 7    1  0.2732144E-009  0.1167021E+03  0.7561462E-02  0.1248639E+00
         -3   -1    0    0    0  501 -0.00000000000E+00  0.00000000000E+00  0.43764210387E+03  0.43764210387E+03  0.00000000000E+00 0.  1.
          3   -1    0    0  501    0  0.00000000000E+00 -0.00000000000E+00 -0.49014198425E+02  0.49014198425E+02  0.00000000000E+00 0. -1.
         25    2    1    2    0    0 -0.24762466811E+02 -0.60382781447E+02  0.33464678137E+03  0.36317507618E+03  0.12509359543E+03 0.  0.
          5    1    3    3  502    0  0.47143338752E+02 -0.44774300021E+02  0.12514932589E+03  0.14109237577E+03  0.41800000000E+01 0.  1.
         -5    1    3    3    0  502 -0.71905805563E+02 -0.15608481426E+02  0.20949745548E+03  0.22208270041E+03  0.41800000000E+01 0.  1.
        -11    1    1    2    0    0  0.42683001559E+02  0.14146541233E+02 -0.63216482258E+01  0.45408440705E+02  0.00000000000E+00 0. -1.
         11    1    1    2    0    0 -0.17920534748E+02  0.46236240214E+02  0.60302772300E+02  0.78072785411E+02  0.00000000000E+00 0.  1.
</event>
<event>
 7    1  0.2732144E-009  0.9168353E+02  0.7561462E-02  0.1298825E+00
         -3   -1    0    0    0  501 -0.00000000000E+00  0.00000000000E+00  0.50127465006E+03  0.50127465006E+03  0.00000000000E+00 0.  1.
          3   -1    0    0  501    0  0.00000000000E+00 -0.00000000000E+00 -0.32412940298E+02  0.32412940298E+02  0.00000000000E+00 0. -1.
         25    2    1    2    0    0  0.45715148047E+02 -0.49260786937E+02  0.29714857810E+03  0.32933523123E+03  0.12509163510E+03 0.  0.
          5    1    3    3  502    0 -0.16713778347E+02 -0.43288617953E+01 -0.42361163805E+01  0.18262160690E+02  0.41800000000E+01 0.  1.
         -5    1    3    3    0  502  0.62428926394E+02 -0.44931925141E+02  0.30138469448E+03  0.31107307054E+03  0.41800000000E+01 0.  1.
        -11    1    1    2    0    0 -0.37750035157E+02 -0.92208856431E+00  0.13872371546E+03  0.14377129279E+03  0.00000000000E+00 0.  1.
         11    1    1    2    0    0 -0.79651128902E+01  0.50182875501E+02  0.32989416207E+02  0.60581066337E+02  0.00000000000E+00 0. -1.
</event>
<event>
 7    1  0.2732144E-009  0.1247283E+03  0.7561462E-02  0.1235495E+00
         -2   -1    0    0    0  501 -0.00000000000E+00  0.00000000000E+00  0.11300538674E+03  0.11300538674E+03  0.00000000000E+00 0.  1.
          2   -1    0    0  501    0  0.00000000000E+00 -0.00000000000E+00 -0.28027925878E+03  0.28027925878E+03  0.00000000000E+00 0. -1.
         25    2    1    2    0    0  0.79429524522E+02 -0.76956835816E+02 -0.18330329450E+03  0.24794014688E+03  0.12507123855E+03 0.  0.
          5    1    3    3  502    0  0.65033413334E+02 -0.90807264867E+02 -0.19474627118E+03  0.22454150338E+03  0.41800000000E+01 0. -1.
         -5    1    3    3    0  502  0.14396111188E+02  0.13850429051E+02  0.11442976677E+02  0.23398643496E+02  0.41800000000E+01 0. -1.
        -11    1    1    2    0    0 -0.14334266344E+02  0.39844296913E+02  0.47885670980E+02  0.63922426998E+02  0.00000000000E+00 0.  1.
         11    1    1    2    0    0 -0.65095258178E+02  0.37112538903E+02 -0.31856248519E+02  0.81422071644E+02  0.00000000000E+00 0. -1.
</event>
<event>
 7    1  0.2732144E-009  0.1196035E+03  0.7561462E-02  0.1243753E+00
         -2   -1    0    0    0  501 -0.00000000000E+00  0.00000000000E+00  0.23088289539E+03  0.23088289539E+03  0.00000000000E+00 0.  1.
          2   -1    0    0  501    0  0.00000000000E+00 -0.00000000000E+00 -0.74274015079E+02  0.74274015079E+02  0.00000000000E+00 0. -1.
         25    2    1    2    0    0  0.20402437723E+02 -0.67621931383E+02  0.58882828095E+02  0.15525257441E+03  0.12508872590E+03 0.  0.
          5    1    3    3  502    0 -0.45388701505E+02 -0.61606155118E+02  0.23306605549E+02  0.80100704335E+02  0.41800000000E+01 0. -1.
         -5    1    3    3    0  502  0.65791139228E+02 -0.60157762652E+01  0.35576222546E+02  0.75151870074E+02  0.41800000000E+01 0. -1.
        -11    1    1    2    0    0 -0.40677452499E+02  0.63917669455E+02  0.34212148984E+02  0.83129987060E+02  0.00000000000E+00 0. -1.
         11    1    1    2    0    0  0.20275014776E+02  0.37042619282E+01  0.63513903233E+02  0.66774349001E+02  0.00000000000E+00 0.  1.
</event>
<event>
 7    1  0.2732144E-009  0.1165665E+03  0.7561462E-02  0.1248871E+00
          2   -1    0    0  501    0  0.00000000000E+00  0.00000000000E+00  0.47094902797E+03  0.47094902797E+03  0.00000000000E+00 0. -1.
         -2   -1    0    0    0  501 -0.00000000000E+00 -0.00000000000E+00 -0.34709228140E+02  0.34709228140E+02  0.00000000000E+00 0.  1.
         25    2    1    2    0    0 -0.16904275660E+01  0.67353377882E+02  0.24762392510E+03  0.28548803400E+03  0.12508586739E+03 0.  0.
          5    1    3    3  502    0  0.51421531441E+02  0.32601471300E+02  0.53329809903E+02  0.81046720174E+02  0.41800000000E+01 0.  1.
         -5    1    3    3    0  502 -0.53111959007E+02  0.34751906582E+02  0.19429411519E+03  0.20444131383E+03  0.41800000000E+01 0.  1.
        -11    1    1    2    0    0  0.42258211768E+02 -0.21985266703E+02  0.11614460470E+03  0.12553357167E+03  0.00000000000E+00 0. -1.
         11    1    1    2    0    0 -0.40567784202E+02 -0.45368111179E+02  0.72471270028E+02  0.94636650440E+02  0.00000000000E+00 0.  1.
</event>
<event>
 7    1  0.2732144E-009  0.2307888E+03  0.7561462E-02  0.1126086E+00
          2   -1    0    0  501    0  0.00000000000E+00  0.00000000000E+00  0.11886002554E+03  0.11886002554E+03  0.00000000000E+00 0. -1.
         -2   -1    0    0    0  501 -0.00000000000E+00 -0.00000000000E+00 -0.51942361745E+03  0.51942361745E+03  0.00000000000E+00 0.  1.
         25    2    1    2    0    0 -0.14367880773E+03  0.15841858867E+03 -0.28798173094E+03  0.37989672621E+03  0.12509195098E+03 0.  0.
          5    1    3    3  502    0 -0.19794576600E+02  0.11439077426E+03 -0.13094271482E+03  0.17504439855E+03  0.41800000000E+01 0.  1.
         -5    1    3    3    0  502 -0.12388423113E+03  0.44027814413E+02 -0.15703901612E+03  0.20485232766E+03  0.41800000000E+01 0.  1.
        -11    1    1    2    0    0  0.78494139520E+02 -0.86918016906E+02 -0.10260533709E+02  0.11756423841E+03  0.00000000000E+00 0. -1.
         11    1    1    2    0    0  0.65184668206E+02 -0.71500571763E+02 -0.10232132726E+03  0.14082267837E+03  0.00000000000E+00 0.  1.
</event>
<event>
 7    1  0.2732144E-009  0.8168518E+02  0.7561462E-02  0.1324336E+00
          2   -1    0    0  501    0  0.00000000000E+00  0.00000000000E+00  0.10335439159E+04  0.10335439159E+04  0.00000000000E+00 0. -1.
         -2   -1    0    0    0  501 -0.00000000000E+00 -0.00000000000E+00 -0.18577484890E+02  0.18577484890E+02  0.00000000000E+00 0.  1.
         25    2    1    2    0    0 -0.57853263662E+02  0.30367360948E+02  0.77194840415E+03  0.78473595473E+03  0.12504800376E+03 0.  0.
          5    1    3    3  502    0 -0.18774342123E+02  0.11196616211E+02  0.15727711905E+02  0.27252035860E+02  0.41800000000E+01 0. -1.
         -5    1    3    3    0  502 -0.39078921539E+02  0.19170744736E+02  0.75622069224E+03  0.75748391887E+03  0.41800000000E+01 0. -1.
        -11    1    1    2    0    0  0.64258062216E+02  0.21011248026E+01  0.88648209541E+02  0.10950807431E+03  0.00000000000E+00 0.  1.
         11    1    1    2    0    0 -0.64047985545E+01 -0.32468485750E+02  0.15436981735E+03  0.15787737178E+03  0.00000000000E+00 0. -1.
</event>
<event>
 7    1  0.2732144E-009  0.1501919E+03  0.7561462E-02  0.1200237E+00
         -2   -1    0    0    0  501 -0.00000000000E+00  0.00000000000E+00  0.22533361998E+02  0.22533361998E+02  0.00000000000E+00 0. -1.
          2   -1    0    0  501    0  0.00000000000E+00 -0.00000000000E+00 -0.11127155688E+04  0.11127155688E+04  0.00000000000E+00 0.  1.
         25    2    1    2    0    0  0.11023473988E+03 -0.28590406678E+02 -0.52406448329E+03  0.55068965845E+03  0.12508560287E+03 0.  0.
          5    1    3    3  502    0  0.24179915887E+02  0.44398679820E+02 -0.10398895663E+03  0.11570257821E+03  0.41800000000E+01 0. -1.
         -5    1    3    3    0  502  0.86054823997E+02 -0.72989086498E+02 -0.42007552665E+03  0.43498708024E+03  0.41800000000E+01 0. -1.
        -11    1    1    2    0    0  0.11587408523E+02 -0.79941021220E-01 -0.12805501021E+02  0.17270068999E+02  0.00000000000E+00 0. -1.
         11    1    1    2    0    0 -0.12182214841E+03  0.28670347699E+02 -0.55331222250E+03  0.56728920336E+03  0.00000000000E+00 0.  1.
</event>
<event>
 7    1  0.2732144E-009  0.9523731E+02  0.7561462E-02  0.1290643E+00
         -2   -1    0    0    0  501 -0.00000000000E+00  0.00000000000E+00  0.75521724960E+03  0.75521724960E+03  0.00000000000E+00 0.  1.
          2   -1    0    0  501    0  0.00000000000E+00 -0.00000000000E+00 -0.22954114915E+02  0.22954114915E+02  0.00000000000E+00 0. -1.
         25    2    1    2    0    0  0.78642809198E+02  0.72329138153E+00  0.36592477120E+03  0.39463197617E+03  0.12509294084E+03 0.  0.
          5    1    3    3  502    0  0.57223682906E+02  0.31936231203E+01  0.45082045396E+02  0.73038430508E+02  0.41800000000E+01 0.  1.
         -5    1    3    3    0  502  0.21419126293E+02 -0.24703317388E+01  0.32084272580E+03  0.32159354566E+03  0.41800000000E+01 0.  1.
        -11    1    1    2    0    0 -0.94797549947E+02  0.98166943795E+00  0.33609259066E+03  0.34920734334E+03  0.00000000000E+00 0.  1.
         11    1    1    2    0    0  0.16154740748E+02 -0.17049608195E+01  0.30245772827E+02  0.34332045001E+02  0.00000000000E+00 0. -1.
</event>
<event>
 7    1  0.2732144E-009  0.9337025E+02  0.7561462E-02  0.1294889E+00
          1   -1    0    0  501    0  0.00000000000E+00  0.00000000000E+00  0.84600971412E+03  0.84600971412E+03  0.00000000000E+00 0. -1.
         -1   -1    0    0    0  501 -0.00000000000E+00 -0.00000000000E+00 -0.16009322481E+02  0.16009322481E+02  0.00000000000E+00 0.  1.
         25    2    1    2    0    0  0.20841921354E+02  0.84294819493E+01  0.63120971631E+03  0.64387784611E+03  0.12509009910E+03 0.  0.
          5    1    3    3  502    0 -0.11128176100E+02 -0.38332989130E+02  0.49045766466E+03  0.49209699002E+03  0.41800000000E+01 0.  1.
         -5    1    3    3    0  502  0.31970097454E+02  0.46762471079E+02  0.14075205165E+03  0.15178085609E+03  0.41800000000E+01 0.  1.
        -11    1    1    2    0    0 -0.54845673607E+02 -0.10071922961E+02  0.12535869066E+03  0.13720165039E+03  0.00000000000E+00 0. -1.
         11    1    1    2    0    0  0.34003752253E+02  0.16424410118E+01  0.73431984670E+02  0.80939540105E+02  0.00000000000E+00 0.  1.
</event>
<event>
 7    1  0.2732144E-009  0.9501709E+02  0.7561462E-02  0.1291138E+00
          2   -1    0    0  501    0  0.00000000000E+00  0.00000000000E+00  0.20396070645E+03  0.20396070645E+03  0.00000000000E+00 0. -1.
         -2   -1    0    0    0  501 -0.00000000000E+00 -0.00000000000E+00 -0.78462365172E+02  0.78462365172E+02  0.00000000000E+00 0.  1.
         25    2    1    2    0    0  0.16627594364E+02  0.56314038327E+02  0.10244058744E+03  0.17201690900E+03  0.12509194706E+03 0.  0.
          5    1    3    3  502    0  0.48274452715E+02  0.47456650494E+02  0.11746648956E+03  0.13564072040E+03  0.41800000000E+01 0. -1.
         -5    1    3    3    0  502 -0.31646858351E+02  0.88573878327E+01 -0.15025902117E+02  0.36376188602E+02  0.41800000000E+01 0. -1.
        -11    1    1    2    0    0 -0.36373255985E+02 -0.85015848809E+01 -0.20652196461E+02  0.42682594990E+02  0.00000000000E+00 0.  1.
         11    1    1    2    0    0  0.19745661621E+02 -0.47812453446E+02  0.43709950291E+02  0.67723567625E+02  0.00000000000E+00 0. -1.
</event>
<event>
 7    1  0.2732144E-009  0.1065434E+03  0.7561462E-02  0.1267108E+00
          1   -1    0    0  501    0  0.00000000000E+00  0.00000000000E+00  0.60898740868E+03  0.60898740868E+03  0.00000000000E+00 0. -1.
         -1   -1    0    0    0  501 -0.00000000000E+00 -0.00000000000E+00 -0.35154117366E+02  0.35154117366E+02  0.00000000000E+00 0.  1.
         25    2    1    2    0    0  0.87354277955E+02  0.46383788166E+02  0.33569537200E+03  0.37164445172E+03  0.12508393193E+03 0.  0.
          5    1    3    3  502    0  0.84634178605E+02  0.54671261237E+02  0.12445352031E+03  0.16018127890E+03  0.41800000000E+01 0. -1.
         -5    1    3    3    0  502  0.27200993502E+01 -0.82874730709E+01  0.21124185169E+03  0.21146317281E+03  0.41800000000E+01 0. -1.
        -11    1    1    2    0    0 -0.31110642439E+02 -0.24588620885E+01  0.89646637762E+01  0.32469728554E+02  0.00000000000E+00 0.  1.
         11    1    1    2    0    0 -0.56243635516E+02 -0.43924926078E+02  0.22917325554E+03  0.24002734578E+03  0.00000000000E+00 0. -1.
</event>
<event>
 7    1  0.2732144E-009  0.1505725E+03  0.7561462E-02  0.1199771E+00
         -2   -1    0    0    0  501 -0.00000000000E+00  0.00000000000E+00  0.86405755382E+02  0.86405755382E+02  0.00000000000E+00 0. -1.
          2   -1    0    0  501    0  0.00000000000E+00 -0.00000000000E+00 -0.32860699115E+03  0.32860699115E+03  0.00000000000E+00 0.  1.
         25    2    1    2    0    0  0.11110583701E+03  0.15077474920E+02 -0.51175118781E+02  0.17561385571E+03  0.12509794670E+03 0.  0.
          5    1    3    3  502    0  0.13336341483E+03 -0.26956135258E+01 -0.23172590352E+02  0.13545297373E+03  0.41800000000E+01 0. -1.
         -5    1    3    3    0  502 -0.22257577821E+02  0.17773088446E+02 -0.28002528429E+02  0.40160881984E+02  0.41800000000E+01 0. -1.
        -11    1    1    2    0    0  0.97616530364E+01  0.11562588429E+02 -0.47629238174E+02  0.49975270386E+02  0.00000000000E+00 0.  1.
         11    1    1    2    0    0 -0.12086749005E+03 -0.26640063349E+02 -0.14339687881E+03  0.18942362043E+03  0.00000000000E+00 0. -1.
</event>
<event>
 7    1  0.2732144E-009  0.9724118E+02  0.7561462E-02  0.1286207E+00
         -2   -1    0    0    0  501 -0.00000000000E+00  0.00000000000E+00  0.24133435789E+02  0.24133435789E+02  0.00000000000E+00 0.  1.
          2   -1    0    0  501    0  0.00000000000E+00 -0.00000000000E+00 -0.71056192125E+03  0.71056192125E+03  0.00000000000E+00 0. -1.
         25    2    1    2    0    0  0.44250189826E+02  0.14399321411E+02 -0.53562498646E+03  0.55200323321E+03  0.12509206050E+03 0.  0.
          5    1    3    3  502    0 -0.21465234467E+02 -0.68880688311E+01 -0.16406171335E+02  0.28192847334E+02  0.41800000000E+01 0. -1.
         -5    1    3    3    0  502  0.65715424292E+02  0.21287390242E+02 -0.51921881513E+03  0.52381038588E+03  0.41800000000E+01 0. -1.
        -11    1    1    2    0    0 -0.24242982549E+02  0.38667089237E+02 -0.56261996323E+02  0.72445001368E+02  0.00000000000E+00 0.  1.
         11    1    1    2    0    0 -0.20007207276E+02 -0.53066410649E+02 -0.94541502682E+02  0.11024712246E+03  0.00000000000E+00 0. -1.
</event>
<event>
 7    1  0.3171469E-009  0.1212072E+03  0.7561462E-02  0.1241119E+00
          1   -1    0    0  501    0  0.00000000000E+00  0.00000000000E+00  0.99248462904E+03  0.99248462904E+03  0.00000000000E+00 0. -1.
         -1   -1    0    0    0  501 -0.00000000000E+00 -0.00000000000E+00 -0.21183393584E+02  0.21183393584E+02  0.00000000000E+00 0.  1.
         25    2    1    2    0    0  0.61763242385E+02  0.71319711862E+02  0.47416075040E+03  0.49937695873E+03  0.12509088810E+03 0.  0.
          5    1    3    3  502    0  0.32707328410E+02 -0.45570852028E+01  0.21872752136E+02  0.39829964139E+02  0.41800000000E+01 0. -1.
         -5    1    3    3    0  502  0.29055913975E+02  0.75876797065E+02  0.45228799826E+03  0.45954699459E+03  0.41800000000E+01 0. -1.
        -11    1    1    2    0    0 -0.19296684141E+02 -0.81787113296E+02  0.26294079636E+03  0.27604230891E+03  0.00000000000E+00 0.  1.
         11    1    1    2    0    0 -0.42466558244E+02  0.10467401434E+02  0.23419968871E+03  0.23824875498E+03  0.00000000000E+00 0. -1.
</event>
<event>
 7    1  0.2732144E-009  0.1383122E+03  0.7561462E-02  0.1215618E+00
         -1   -1    0    0    0  501 -0.00000000000E+00  0.00000000000E+00  0.44536291131E+02  0.44536291131E+02  0.00000000000E+00 0.  1.
          1   -1    0    0  501    0  0.00000000000E+00 -0.00000000000E+00 -0.55255666281E+03  0.55255666281E+03  0.00000000000E+00 0. -1.
         25    2    1    2    0    0 -0.18953352340E+02  0.10892711160E+03 -0.23470339308E+03  0.28802317586E+03  0.12508925574E+03 0.  0.
          5    1    3    3  502    0 -0.40897915716E+02  0.11243137045E+03 -0.23677375453E+03  0.26531629389E+03  0.41800000000E+01 0. -1.
         -5    1    3    3    0  502  0.21944563377E+02 -0.35042588528E+01  0.20703614505E+01  0.22706881962E+02  0.41800000000E+01 0. -1.
        -11    1    1    2    0    0  0.95758016599E+01  0.10669519821E+02 -0.82062326457E+02  0.83305222250E+02  0.00000000000E+00 0. -1.
         11    1    1    2    0    0  0.93775506797E+01 -0.11959663142E+03 -0.19125465214E+03  0.22576455583E+03  0.00000000000E+00 0.  1.
</event>
<event>
 7    1  0.2732144E-009  0.1892692E+03  0.7561462E-02  0.1159122E+00
         -2   -1    0    0    0  501 -0.00000000000E+00  0.00000000000E+00  0.96631463424E+02  0.96631463424E+02  0.00000000000E+00 0.  1.
          2   -1    0    0  501    0  0.00000000000E+00 -0.00000000000E+00 -0.43010411922E+03  0.43010411922E+03  0.00000000000E+00 0. -1.
         25    2    1    2    0    0  0.13909503671E+03 -0.99256343298E+02 -0.14771940842E+03  0.25821767503E+03  0.12512431079E+03 0.  0.
          5    1    3    3  502    0 -0.76174784221E+01 -0.41291934551E+02 -0.71379150536E+02  0.82918667185E+02  0.41800000000E+01 0. -1.
         -5    1    3    3    0  502  0.14671251513E+03 -0.57964408747E+02 -0.76340257885E+02  0.17529900785E+03  0.41800000000E+01 0. -1.
        -11    1    1    2    0    0 -0.48737415815E+02  0.67103477750E+01 -0.98385881998E+01  0.50171329316E+02  0.00000000000E+00 0.  1.
         11    1    1    2    0    0 -0.90357620896E+02  0.92545995523E+02 -0.17591465917E+03  0.21834657830E+03  0.00000000000E+00 0. -1.
</event>
<event>
 7    1  0.2732144E-009  0.1779095E+03  0.7561462E-02  0.1169842E+00
          2   -1    0    0  501    0  0.00000000000E+00  0.00000000000E+00  0.10228620492E+04  0.10228620492E+04  0.00000000000E+00 0. -1.
         -2   -1    0    0    0  501 -0.00000000000E+00 -0.00000000000E+00 -0.34457834303E+02  0.34457834303E+02  0.00000000000E+00 0.  1.
         25    2    1    2    0    0 -0.14240922470E+03 -0.27018806733E+02  0.39103382336E+03  0.43539325942E+03  0.12509770635E+03 0.  0.
          5    1    3    3  502    0 -0.80618101870E+02  0.47010028560E+02  0.16489438188E+03  0.18951741532E+03  0.41800000000E+01 0.  1.
         -5    1    3    3    0  502 -0.61791122835E+02 -0.74028835293E+02  0.22613944148E+03  0.24587584409E+03  0.41800000000E+01 0.  1.
        -11    1    1    2    0    0  0.31876745389E+02 -0.27988150088E+02  0.86399916678E+02  0.96251800211E+02  0.00000000000E+00 0.  1.
         11    1    1    2    0    0  0.11053247932E+03  0.55006956821E+02  0.51097047488E+03  0.52567482390E+03  0.00000000000E+00 0. -1.
</event>
<event>
 7    1  0.2732144E-009  0.2093161E+03  0.7561462E-02  0.1142109E+00
         -2   -1    0    0    0  501 -0.00000000000E+00  0.00000000000E+00  0.22636998714E+02  0.22636998714E+02  0.00000000000E+00 0.  1.
          2   -1    0    0  501    0  0.00000000000E+00 -0.00000000000E+00 -0.36954199241E+04  0.36954199241E+04  0.00000000000E+00 0. -1.
         25    2    1    2    0    0 -0.38555153304E+02  0.20144309826E+03 -0.29796536508E+04  0.29893230493E+04  0.12510233065E+03 0.  0.
          5    1    3    3  502    0 -0.59354733948E+00  0.69861453964E+02 -0.40323447132E+03  0.40926334591E+03  0.41800000000E+01 0. -1.
         -5    1    3    3    0  502 -0.37961605965E+02  0.13158164429E+03 -0.25764191794E+04  0.25800597034E+04  0.41800000000E+01 0. -1.
        -11    1    1    2    0    0 -0.12079065158E+02 -0.64626516590E+02 -0.11484984081E+03  0.13233660263E+03  0.00000000000E+00 0.  1.
         11    1    1    2    0    0  0.50634218463E+02 -0.13681658167E+03 -0.57827943384E+03  0.59639727087E+03  0.00000000000E+00 0. -1.
</event>
<event>
 7    1  0.2732144E-009  0.1131013E+03  0.7561462E-02  0.1254932E+00
          1   -1    0    0  501    0  0.00000000000E+00  0.00000000000E+00  0.15182902347E+03  0.15182902347E+03  0.00000000000E+00 0. -1.
         -1   -1    0    0    0  501 -0.00000000000E+00 -0.00000000000E+00 -0.93183527989E+02  0.93183527989E+02  0.00000000000E+00 0.  1.
         25    2    1    2    0    0 -0.76123428006E+01  0.43403589457E+02  0.98950603185E+01  0.13298606098E+03  0.12508221639E+03 0.  0.
          5    1    3    3  502    0 -0.62312341036E+02  0.39041579895E+02  0.21536351303E+02  0.76735647736E+02  0.41800000000E+01 0.  1.
         -5    1    3    3    0  502  0.54699998236E+02  0.43620095627E+01 -0.11641290985E+02  0.56250413245E+02  0.41800000000E+01 0.  1.
        -11    1    1    2    0    0  0.47280118697E+02 -0.19065007559E+02  0.39703263834E+02  0.64616045192E+02  0.00000000000E+00 0.  1.
         11    1    1    2    0    0 -0.39667775896E+02 -0.24338581898E+02  0.90471713320E+01  0.47410445289E+02  0.00000000000E+00 0. -1.
</event>
<event>
 7    1  0.2732144E-009  0.1112954E+03  0.7561462E-02  0.1258190E+00
         -3   -1    0    0    0  501 -0.00000000000E+00  0.00000000000E+00  0.22520940032E+02  0.22520940032E+02  0.00000000000E+00 0.  1.
          3   -1    0    0  501    0  0.00000000000E+00 -0.00000000000E+00 -0.57485104162E+03  0.57485104162E+03  0.00000000000E+00 0. -1.
         25    2    1    2    0    0 -0.27124738503E+02  0.10348465033E+02 -0.33268117583E+03  0.35661023999E+03  0.12510498131E+03 0.  0.
          5    1    3    3  502    0 -0.46721537341E+02 -0.47140073257E+02 -0.15086862974E+03  0.16487542084E+03  0.41800000000E+01 0. -1.
         -5    1    3    3    0  502  0.19596798838E+02  0.57488538290E+02 -0.18181254610E+03  0.19173481916E+03  0.41800000000E+01 0. -1.
        -11    1    1    2    0    0 -0.19798435578E+02  0.28217116211E+02 -0.11171154815E+03  0.11690874086E+03  0.00000000000E+00 0. -1.
         11    1    1    2    0    0  0.46923174080E+02 -0.38565581243E+02 -0.10793737760E+03  0.12385300080E+03  0.00000000000E+00 0.  1.
</event>
<event>
 7    1  0.2732144E-009  0.1030014E+03  0.7561462E-02  0.1274108E+00
          2   -1    0    0  501    0  0.00000000000E+00  0.00000000000E+00  0.28792121347E+03  0.28792121347E+03  0.00000000000E+00 0. -1.
         -2   -1    0    0    0  501 -0.00000000000E+00 -0.00000000000E+00 -0.42594520077E+02  0.42594520077E+02  0.00000000000E+00 0.  1.
         25    2    1    2    0    0  0.26387754014E+02 -0.71000738417E+01  0.15051163294E+03  0.19760429390E+03  0.12508789192E+03 0.  0.
          5    1    3    3  502    0  0.13267090598E+02 -0.58990782881E+02  0.34421085489E+02  0.69700872907E+02  0.41800000000E+01 0. -1.
         -5    1    3    3    0  502  0.13120663416E+02  0.51890709039E+02  0.11609054745E+03  0.12790342099E+03  0.41800000000E+01 0. -1.
        -11    1    1    2    0    0  0.20607641710E+02 -0.26766639645E+02  0.46530909202E+02  0.57500029617E+02  0.00000000000E+00 0.  1.
         11    1    1    2    0    0 -0.46995395724E+02  0.33866713486E+02  0.48284151251E+02  0.75411410036E+02  0.00000000000E+00 0. -1.
</event>
<event>
 7    1  0.2732144E-009  0.8841369E+02  0.7561462E-02  0.1306739E+00
         -1   -1    0    0    0  501 -0.00000000000E+00  0.00000000000E+00  0.25060832870E+02  0.25060832870E+02  0.00000000000E+00 0.  1.
          1   -1    0    0  501    0  0.00000000000E+00 -0.00000000000E+00 -0.47589962264E+03  0.47589962264E+03  0.00000000000E+00 0. -1.
         25    2    1    2    0    0 -0.15256544655E+02  0.16309054221E+02 -0.26805838017E+03  0.29664782895E+03  0.12508353943E+03 0.  0.
          5    1    3    3  502    0 -0.34440980060E+02 -0.31166062077E+02 -0.22449898195E+03  0.22929188784E+03  0.41800000000E+01 0. -1.
         -5    1    3    3    0  502  0.19184435405E+02  0.47475116298E+02 -0.43559398226E+02  0.67355941113E+02  0.41800000000E+01 0. -1.
        -11    1    1    2    0    0  0.45200329891E+01 -0.46527490033E+02 -0.15496151402E+03  0.16185891651E+03  0.00000000000E+00 0. -1.
         11    1    1    2    0    0  0.10736511666E+02  0.30218435812E+02 -0.27818895575E+02  0.42453710046E+02  0.00000000000E+00 0.  1.
</event>
<event>
 7    1  0.2732144E-009  0.1968714E+03  0.7561462E-02  0.1152406E+00
         -2   -1    0    0    0  501 -0.00000000000E+00  0.00000000000E+00  0.30552021348E+02  0.30552021348E+02  0.00000000000E+00 0.  1.
          2   -1    0    0  501    0  0.00000000000E+00 -0.00000000000E+00 -0.15236877867E+04  0.15236877867E+04  0.00000000000E+00 0. -1.
         25    2    1    2    0    0  0.91080358191E+02  0.16203765706E+03 -0.84315886842E+03  0.87241930036E+03  0.12508686699E+03 0.  0.
          5    1    3    3  502    0  0.10049177261E+03  0.10614656819E+03 -0.74306262159E+03  0.75731448046E+03  0.41800000000E+01 0.  1.
         -5    1    3    3    0  502 -0.94114144208E+01  0.55891088870E+02 -0.10009624683E+03  0.11510481991E+03  0.41800000000E+01 0.  1.
        -11    1    1    2    0    0 -0.43763079900E+02 -0.11872362779E+03 -0.53885646850E+03  0.55351314402E+03  0.00000000000E+00 0. -1.
         11    1    1    2    0    0 -0.47317278292E+02 -0.43314029270E+02 -0.11112042844E+03  0.12830736368E+03  0.00000000000E+00 0.  1.
</event>
<event>
 7    1  0.2732144E-009  0.1019591E+03  0.7561462E-02  0.1276229E+00
         -2   -1    0    0    0  501 -0.00000000000E+00  0.00000000000E+00  0.16624030310E+02  0.16624030310E+02  0.00000000000E+00 0.  1.
          2   -1    0    0  501    0  0.00000000000E+00 -0.00000000000E+00 -0.99495383623E+03  0.99495383623E+03  0.00000000000E+00 0. -1.
         25    2    1    2    0    0  0.67058386829E+02 -0.17948882395E+02 -0.63529322444E+03  0.65120116245E+03  0.12508590382E+03 0.  0.
          5    1    3    3  502    0 -0.19921883061E+02 -0.22445102005E+02 -0.38430465479E+03  0.38549734646E+03  0.41800000000E+01 0.  1.
         -5    1    3    3    0  502  0.86980269889E+02  0.44962196096E+01 -0.25098856965E+03  0.26570381600E+03  0.41800000000E+01 0.  1.
        -11    1    1    2    0    0 -0.58816424071E+02 -0.78494789516E+01 -0.31801797966E+03  0.32350644730E+03  0.00000000000E+00 0. -1.
         11    1    1    2    0    0 -0.82419627573E+01  0.25798361347E+02 -0.25018601817E+02  0.36870256782E+02  0.00000000000E+00 0.  1.
</event>
<event>
 7    1  0.2732144E-009  0.2713428E+03  0.7561462E-02  0.1100514E+00
         -1   -1    0    0    0  501 -0.00000000000E+00  0.00000000000E+00  0.96528547275E+02  0.96528547275E+02  0.00000000000E+00 0.  1.
          1   -1    0    0  501    0  0.00000000000E+00 -0.00000000000E+00 -0.89131662676E+03  0.89131662676E+03  0.00000000000E+00 0. -1.
         25    2    1    2    0    0  0.10157050518E+03 -0.24490741180E+03 -0.30311663215E+03  0.42169051533E+03  0.12508792973E+03 0.  0.
          5    1    3    3  502    0  0.69759549413E+02 -0.83700754281E+02 -0.19959861018E+03  0.22744073642E+03  0.41800000000E+01 0.  1.
         -5    1    3    3    0  502  0.31810955763E+02 -0.16120665751E+03 -0.10351802197E+03  0.19424977891E+03  0.41800000000E+01 0.  1.
        -11    1    1    2    0    0 -0.23945150990E+02  0.11883446707E+03 -0.14373951188E+03  0.18803204008E+03  0.00000000000E+00 0.  1.
         11    1    1    2    0    0 -0.77625354186E+02  0.12607294472E+03 -0.34793193545E+03  0.37812261861E+03  0.00000000000E+00 0. -1.
</event>
<event>
 7    1  0.2732144E-009  0.2657616E+03  0.7561462E-02  0.1103730E+00
          2   -1    0    0  501    0  0.00000000000E+00  0.00000000000E+00  0.17755130909E+04  0.17755130909E+04  0.00000000000E+00 0. -1.
         -2   -1    0    0    0  501 -0.00000000000E+00 -0.00000000000E+00 -0.10016422197E+03  0.10016422197E+03  0.00000000000E+00 0.  1.
         25    2    1    2    0    0  0.78869604584E+02  0.24704572684E+03  0.15475081331E+04  0.15740646714E+04  0.12508461978E+03 0.  0.
          5    1    3    3  502    0  0.93372330847E+02  0.17479632502E+03  0.13221959116E+04  0.13369710724E+04  0.41800000000E+01 0. -1.
         -5    1    3    3    0  502 -0.14502726263E+02  0.72249401814E+02  0.22531222151E+03  0.23709359902E+03  0.41800000000E+01 0. -1.
        -11    1    1    2    0    0 -0.55703168862E+02 -0.18769635011E+03  0.52024401047E+02  0.20258159139E+03  0.00000000000E+00 0.  1.
         11    1    1    2    0    0 -0.23166435722E+02 -0.59349376726E+02  0.75816334862E+02  0.99031050149E+02  0.00000000000E+00 0. -1.
</event>
<event>
 7    1  0.2732144E-009  0.8817227E+02  0.7561462E-02  0.1307339E+00
          4   -1    0    0  501    0  0.00000000000E+00  0.00000000000E+00  0.70871200946E+02  0.70871200946E+02  0.00000000000E+00 0. -1.
         -4   -1    0    0    0  501 -0.00000000000E+00 -0.00000000000E+00 -0.17719598129E+03  0.17719598129E+03  0.00000000000E+00 0.  1.
         25    2    1    2    0    0  0.25578342035E+02 -0.25841031250E+01 -0.45232609095E+02  0.13547759709E+03  0.12508901318E+03 0.  0.
          5    1    3    3  502    0  0.27923074514E+02  0.43719610263E+02 -0.66378706775E+02  0.84348725687E+02  0.41800000000E+01 0. -1.
         -5    1    3    3    0  502 -0.23447324789E+01 -0.46303713388E+02  0.21146097680E+02  0.51128871404E+02  0.41800000000E+01 0. -1.
        -11    1    1    2    0    0  0.25838952531E+02 -0.30767903933E+01  0.71236296049E+01  0.26978958574E+02  0.00000000000E+00 0. -1.
         11    1    1    2    0    0 -0.51417294566E+02  0.56608935183E+01 -0.68215800858E+02  0.85610626575E+02  0.00000000000E+00 0.  1.
</event>
<event>
 7    1  0.2732144E-009  0.2342551E+03  0.7561462E-02  0.1123680E+00
         -2   -1    0    0    0  501 -0.00000000000E+00  0.00000000000E+00  0.12412896534E+03  0.12412896534E+03  0.00000000000E+00 0.  1.
          2   -1    0    0  501    0  0.00000000000E+00 -0.00000000000E+00 -0.51099418114E+03  0.51099418114E+03  0.00000000000E+00 0. -1.
         25    2    1    2    0    0 -0.21140610525E+03 -0.39461261573E+02 -0.28952261564E+03  0.38174016883E+03  0.12510986783E+03 0.  0.
          5    1    3    3  502    0 -0.20590648159E+02 -0.38326980122E+02 -0.11533811103E+03  0.12334214386E+03  0.41800000000E+01 0.  1.
         -5    1    3    3    0  502 -0.19081545709E+03 -0.11342814504E+01 -0.17418450461E+03  0.25839802496E+03  0.41800000000E+01 0.  1.
        -11    1    1    2    0    0  0.20569364348E+03  0.58670042544E+02 -0.88767380057E+02  0.23158518222E+03  0.00000000000E+00 0.  1.
         11    1    1    2    0    0  0.57124617734E+01 -0.19208780972E+02 -0.85752201090E+01  0.21797795435E+02  0.00000000000E+00 0. -1.
</event>
<event>
 7    1  0.2732144E-009  0.8533620E+02  0.7561462E-02  0.1314556E+00
          1   -1    0    0  501    0  0.00000000000E+00  0.00000000000E+00  0.60994730446E+02  0.60994730446E+02  0.00000000000E+00 0. -1.
         -1   -1    0    0    0  501 -0.00000000000E+00 -0.00000000000E+00 -0.33238274920E+03  0.33238274920E+03  0.00000000000E+00 0.  1.
         25    2    1    2    0    0 -0.65610339047E+02  0.45601644576E+02 -0.22444586429E+03  0.26908911554E+03  0.12509508196E+03 0.  0.
          5    1    3    3  502    0 -0.23268600835E+02 -0.54990872718E+01 -0.19476330006E+03  0.19626992433E+03  0.41800000000E+01 0. -1.
         -5    1    3    3    0  502 -0.42341738212E+02  0.51100731847E+02 -0.29682564229E+02  0.72819191216E+02  0.41800000000E+01 0. -1.
        -11    1    1    2    0    0  0.26319976703E+02 -0.18763838690E+02  0.23017304931E+02  0.39681471020E+02  0.00000000000E+00 0. -1.
         11    1    1    2    0    0  0.39290362344E+02 -0.26837805886E+02 -0.69959459393E+02  0.84606893079E+02  0.00000000000E+00 0.  1.
</event>
<event>
 7    1  0.2732144E-009  0.3448281E+03  0.7561462E-02  0.1064758E+00
          1   -1    0    0  501    0  0.00000000000E+00  0.00000000000E+00  0.22688845824E+04  0.22688845824E+04  0.00000000000E+00 0. -1.
         -1   -1    0    0    0  501 -0.00000000000E+00 -0.00000000000E+00 -0.56590006921E+02  0.56590006921E+02  0.00000000000E+00 0.  1.
         25    2    1    2    0    0 -0.12525751882E+03  0.31742307052E+03  0.10984247281E+04  0.11569925720E+04  0.12509227242E+03 0.  0.
          5    1    3    3  502    0 -0.10353018627E+02  0.54836968816E+02  0.71426040765E+02  0.90738249063E+02  0.41800000000E+01 0.  1.
         -5    1    3    3    0  502 -0.11490450019E+03  0.26258610170E+03  0.10269986874E+04  0.10662543230E+04  0.41800000000E+01 0.  1.
        -11    1    1    2    0    0  0.13234933562E+03 -0.29107032571E+03  0.95028601702E+03  0.10026374197E+04  0.00000000000E+00 0.  1.
         11    1    1    2    0    0 -0.70918167962E+01 -0.26352744808E+02  0.16358383032E+03  0.16584459764E+03  0.00000000000E+00 0. -1.
</event>
<event>
 7    1  0.2732144E-009  0.1472433E+03  0.7561462E-02  0.1203902E+00
          2   -1    0    0  501    0  0.00000000000E+00  0.00000000000E+00  0.11663123927E+04  0.11663123927E+04  0.00000000000E+00 0.  1.
         -2   -1    0    0    0  501 -0.00000000000E+00 -0.00000000000E+00 -0.40244855452E+02  0.40244855452E+02  0.00000000000E+00 0. -1.
         25    2    1    2    0    0  0.10293005888E+03  0.61864175047E+02  0.96339926851E+03  0.97888016879E+03  0.12508581501E+03 0.  0.
          5    1    3    3  502    0  0.73274694838E+02  0.98863924197E+02  0.76531736137E+03  0.77515894656E+03  0.41800000000E+01 0. -1.
         -5    1    3    3    0  502  0.29655364040E+02 -0.36999749151E+02  0.19808190714E+03  0.20372122223E+03  0.41800000000E+01 0. -1.
        -11    1    1    2    0    0 -0.24262707617E+02 -0.30725720022E+02  0.13200129766E+03  0.13768475382E+03  0.00000000000E+00 0.  1.
         11    1    1    2    0    0 -0.78667351260E+02 -0.31138455024E+02  0.30666971042E+02  0.89992325498E+02  0.00000000000E+00 0. -1.
</event>
<event>
 7    1  0.2732144E-009  0.2752422E+03  0.7561462E-02  0.1098316E+00
          2   -1    0    0  501    0  0.00000000000E+00  0.00000000000E+00  0.37316026300E+03  0.37316026300E+03  0.00000000000E+00 0.  1.
         -2   -1    0    0    0  501 -0.00000000000E+00 -0.00000000000E+00 -0.30723037657E+03  0.30723037657E+03  0.00000000000E+00 0. -1.
         25    2    1    2    0    0  0.58053697194E+02  0.25943109949E+03 -0.15111755459E+03  0.33039184676E+03  0.12509008737E+03 0.  0.
          5    1    3    3  502    0 -0.21420883111E+02  0.71782381626E+02  0.26413245222E+01  0.75073387698E+02  0.41800000000E+01 0.  1.
         -5    1    3    3    0  502  0.79474580305E+02  0.18764871786E+03 -0.15375887911E+03  0.25531845906E+03  0.41800000000E+01 0.  1.
        -11    1    1    2    0    0 -0.53837772306E+02 -0.11332919518E+03  0.12590682240E+03  0.17774853061E+03  0.00000000000E+00 0. -1.
         11    1    1    2    0    0 -0.42159248882E+01 -0.14610190431E+03  0.91140618623E+02  0.17225026220E+03  0.00000000000E+00 0.  1.
</event>
<event>
 7    1  0.2732144E-009  0.1336598E+03  0.7561462E-02  0.1222124E+00
          2   -1    0    0  501    0  0.00000000000E+00  0.00000000000E+00  0.10324089877E+04  0.10324089877E+04  0.00000000000E+00 0. -1.
         -2   -1    0    0    0  501 -0.00000000000E+00 -0.00000000000E+00 -0.23624377350E+02  0.23624377350E+02  0.00000000000E+00 0.  1.
         25    2    1    2    0    0 -0.31349958356E+02  0.10216780853E+03  0.65355144967E+03  0.67394224937E+03  0.12509027593E+03 0.  0.
          5    1    3    3  502    0 -0.36914258194E+02  0.12779110260E+03  0.59422788674E+03  0.60894784846E+03  0.41800000000E+01 0.  1.
         -5    1    3    3    0  502  0.55642998377E+01 -0.25623294064E+02  0.59323562929E+02  0.64994400913E+02  0.41800000000E+01 0.  1.
        -11    1    1    2    0    0  0.10689206381E+02 -0.17267193914E+02  0.47177880317E+01  0.20848804345E+02  0.00000000000E+00 0.  1.
         11    1    1    2    0    0  0.20660751975E+02 -0.84900614619E+02  0.35051537260E+03  0.36124231129E+03  0.00000000000E+00 0. -1.
</event>
<event>
 7    1  0.2732144E-009  0.1084626E+03  0.7561462E-02  0.1263444E+00
          2   -1    0    0  501    0  0.00000000000E+00  0.00000000000E+00  0.14856394542E+04  0.14856394542E+04  0.00000000000E+00 0. -1.
         -2   -1    0    0    0  501 -0.00000000000E+00 -0.00000000000E+00 -0.11937833784E+02  0.11937833784E+02  0.00000000000E+00 0.  1.
         25    2    1    2    0    0  0.38888944378E+01 -0.68446416190E+02  0.10204963642E+04  0.10304182431E+04  0.12509552736E+03 0.  0.
          5    1    3    3  502    0 -0.32062098411E+02  0.16410884672E+02  0.12414398771E+03  0.12933096062E+03  0.41800000000E+01 0. -1.
         -5    1    3    3    0  502  0.35950992848E+02 -0.84857300862E+02  0.89635237654E+03  0.90108728253E+03  0.41800000000E+01 0. -1.
        -11    1    1    2    0    0  0.29366360945E+01 -0.96145820611E+01  0.34497084336E+01  0.10628476280E+02  0.00000000000E+00 0.  1.
         11    1    1    2    0    0 -0.68255305323E+01  0.78060998251E+02  0.44975554772E+03  0.45653056855E+03  0.00000000000E+00 0. -1.
</event>
<event>
 7    1  0.3490925E-009  0.8949307E+02  0.7561462E-02  0.1304084E+00
         -2   -1    0    0    0  501 -0.00000000000E+00  0.00000000000E+00  0.19956630597E+02  0.19956630597E+02  0.00000000000E+00 0.  1.
          2   -1    0    0  501    0  0.00000000000E+00 -0.00000000000E+00 -0.68815661818E+03  0.68815661818E+03  0.00000000000E+00 0. -1.
         25    2    1    2    0    0 -0.30332496346E+02 -0.21418944210E+02 -0.45335828160E+03  0.47176271945E+03  0.12508996945E+03 0.  0.
          5    1    3    3  502    0 -0.14462786805E+02 -0.57718625771E+02 -0.10206118486E+03  0.11821408469E+03  0.41800000000E+01 0. -1.
         -5    1    3    3    0  502 -0.15869709541E+02  0.36299681561E+02 -0.35129709674E+03  0.35354863476E+03  0.41800000000E+01 0. -1.
        -11    1    1    2    0    0 -0.19550067111E+02  0.22238632644E+02 -0.21282115707E+02  0.36464919511E+02  0.00000000000E+00 0.  1.
         11    1    1    2    0    0  0.49882563457E+02 -0.81968843405E+00 -0.19355959028E+03  0.19988560982E+03  0.00000000000E+00 0. -1.
</event>
<event>
 7    1  0.2732144E-009  0.9647433E+02  0.7561462E-02  0.1287890E+00
          1   -1    0    0  501    0  0.00000000000E+00  0.00000000000E+00  0.33981123632E+03  0.33981123632E+03  0.00000000000E+00 0. -1.
         -1   -1    0    0    0  501 -0.00000000000E+00 -0.00000000000E+00 -0.55539527642E+02  0.55539527642E+02  0.00000000000E+00 0.  1.
         25    2    1    2    0    0  0.70357659540E+02 -0.49111693007E+02  0.12922557746E+03  0.19928715152E+03  0.12511578735E+03 0.  0.
          5    1    3    3  502    0  0.40683703875E+02 -0.41170213195E+02 -0.80209146957E+01  0.58582912936E+02  0.41800000000E+01 0. -1.
         -5    1    3    3    0  502  0.29673955665E+02 -0.79414798124E+01  0.13724649216E+03  0.14070423858E+03  0.41800000000E+01 0. -1.
        -11    1    1    2    0    0 -0.45021030633E+02 -0.38708342962E+01  0.21227218685E+02  0.49924656939E+02  0.00000000000E+00 0.  1.
         11    1    1    2    0    0 -0.25336628906E+02  0.52982527304E+02  0.13381891253E+03  0.14613895550E+03  0.00000000000E+00 0. -1.
</event>
<event>
 7    1  0.2872595E-009  0.2257846E+03  0.7561462E-02  0.1129642E+00
         -2   -1    0    0    0  501 -0.00000000000E+00  0.00000000000E+00  0.46568892600E+03  0.46568892600E+03  0.00000000000E+00 0.  1.
          2   -1    0    0  501    0  0.00000000000E+00 -0.00000000000E+00 -0.12720486266E+03  0.12720486266E+03  0.00000000000E+00 0. -1.
         25    2    1    2    0    0 -0.21378347059E+03  0.35496183463E+02  0.15445262935E+03  0.29405209674E+03  0.12509064532E+03 0.  0.
          5    1    3    3  502    0 -0.99556139226E+02  0.12596974814E+02 -0.13411258365E+00  0.10043704007E+03  0.41800000000E+01 0.  1.
         -5    1    3    3    0  502 -0.11422733136E+03  0.22899208648E+02  0.15458674194E+03  0.19361505667E+03  0.41800000000E+01 0.  1.
        -11    1    1    2    0    0  0.15551960084E+03  0.16594962033E+02  0.11018747743E+03  0.19131915532E+03  0.00000000000E+00 0. -1.
         11    1    1    2    0    0  0.58263869746E+02 -0.52091145496E+02  0.73843956556E+02  0.10752253660E+03  0.00000000000E+00 0.  1.
</event>
<event>
 7    1  0.2732144E-009  0.8413621E+02  0.7561462E-02  0.1317707E+00
         -2   -1    0    0    0  501 -0.00000000000E+00  0.00000000000E+00  0.33970881141E+03  0.33970881141E+03  0.00000000000E+00 0.  1.
          2   -1    0    0  501    0  0.00000000000E+00 -0.00000000000E+00 -0.43328789775E+02  0.43328789775E+02  0.00000000000E+00 0. -1.
         25    2    1    2    0    0 -0.31167229049E+01 -0.31129167462E+02  0.23674604978E+03  0.26958099384E+03  0.12508589500E+03 0.  0.
          5    1    3    3  502    0  0.22038706564E+02 -0.41366409408E+02  0.23747539734E+03  0.24209279451E+03  0.41800000000E+01 0. -1.
         -5    1    3    3    0  502 -0.25155429469E+02  0.10237241946E+02 -0.72934756219E+00  0.27488199328E+02  0.41800000000E+01 0. -1.
        -11    1    1    2    0    0 -0.19136291758E+02  0.56698177612E+02  0.24572948742E+02  0.64689340827E+02  0.00000000000E+00 0. -1.
         11    1    1    2    0    0  0.22253014663E+02 -0.25569010150E+02  0.35061023120E+02  0.48767266520E+02  0.00000000000E+00 0.  1.
</event>
<event>
 7    1  0.2732144E-009  0.9872545E+02  0.7561462E-02  0.1282999E+00
          2   -1    0    0  501    0  0.00000000000E+00  0.00000000000E+00  0.70724370447E+03  0.70724370447E+03  0.00000000000E+00 0. -1.
         -2   -1    0    0    0  501 -0.00000000000E+00 -0.00000000000E+00 -0.18054443624E+02  0.18054443624E+02  0.00000000000E+00 0.  1.
         25    2    1    2    0    0  0.25360716997E+02 -0.22508621565E+02  0.41425425541E+03  0.43405556295E+03  0.12509132498E+03 0.  0.
          5    1    3    3  502    0  0.63306600748E+02  0.15260540953E+02  0.30988484649E+03  0.31668075453E+03  0.41800000000E+01 0. -1.
         -5    1    3    3    0  502 -0.37945883751E+02 -0.37769162518E+02  0.10436940893E+03  0.11737480842E+03  0.41800000000E+01 0. -1.
        -11    1    1    2    0    0  0.24888899592E+02  0.59823923276E+01  0.25033525627E+02  0.35803962717E+02  0.00000000000E+00 0.  1.
         11    1    1    2    0    0 -0.50249616590E+02  0.16526229238E+02  0.24990147980E+03  0.25543862243E+03  0.00000000000E+00 0. -1.
</event>
<event>
 7    1  0.2732144E-009  0.1552431E+03  0.7561462E-02  0.1194174E+00
          2   -1    0    0  501    0  0.00000000000E+00  0.00000000000E+00  0.12170681547E+03  0.12170681547E+03  0.00000000000E+00 0.  1.
         -2   -1    0    0    0  501 -0.00000000000E+00 -0.00000000000E+00 -0.24853940633E+03  0.24853940633E+03  0.00000000000E+00 0. -1.
         25    2    1    2    0    0 -0.82509904054E+02 -0.10824870485E+03 -0.68889131513E+02  0.19727610020E+03  0.12508589410E+03 0.  0.
          5    1    3    3  502    0 -0.59065492002E+02 -0.66382692319E+01  0.17167161889E+02  0.62007925390E+02  0.41800000000E+01 0.  1.
         -5    1    3    3    0  502 -0.23444412051E+02 -0.10161043562E+03 -0.86056293402E+02  0.13526817481E+03  0.41800000000E+01 0.  1.
        -11    1    1    2    0    0  0.66229105017E+02  0.42242523804E+02 -0.68432580296E+02  0.10418129974E+03  0.00000000000E+00 0. -1.
         11    1    1    2    0    0  0.16280799037E+02  0.66006181047E+02  0.10489120951E+02  0.68788821853E+02  0.00000000000E+00 0.  1.
</event>
<event>
 7    1  0.2732144E-009  0.1341123E+03  0.7561462E-02  0.1221478E+00
         -2   -1    0    0    0  501 -0.00000000000E+00  0.00000000000E+00  0.26326087635E+03  0.26326087635E+03  0.00000000000E+00 0.  1.
          2   -1    0    0  501    0  0.00000000000E+00 -0.00000000000E+00 -0.89536922007E+02  0.89536922007E+02  0.00000000000E+00 0. -1.
         25    2    1    2    0    0 -0.29142102591E+02 -0.99584717387E+02  0.63367676840E+02  0.17443159147E+03  0.12507813379E+03 0.  0.
          5    1    3    3  502    0  0.26939272332E+02 -0.97657690052E+02  0.60540802996E+02  0.11809068569E+03  0.41800000000E+01 0.  1.
         -5    1    3    3    0  502 -0.56081374923E+02 -0.19270273349E+01  0.28268738435E+01  0.56340905773E+02  0.41800000000E+01 0.  1.
        -11    1    1    2    0    0  0.90256033949E+01  0.85573741320E+02  0.25069317201E+02  0.89625874529E+02  0.00000000000E+00 0. -1.
         11    1    1    2    0    0  0.20116499196E+02  0.14010976066E+02  0.85286960303E+02  0.88740332364E+02  0.00000000000E+00 0.  1.
</event>
<event>
 7    1  0.2732144E-009  0.2230541E+03  0.7561462E-02  0.1131626E+00
          1   -1    0    0  501    0  0.00000000000E+00  0.00000000000E+00  0.15729462588E+03  0.15729462588E+03  0.00000000000E+00 0. -1.
         -1   -1    0    0    0  501 -0.00000000000E+00 -0.00000000000E+00 -0.33148481866E+03  0.33148481866E+03  0.00000000000E+00 0.  1.
         25    2    1    2    0    0  0.51648979120E+02 -0.18961971479E+03 -0.47310189001E+02  0.23771740252E+03  0.12509219080E+03 0.  0.
          5    1    3    3  502    0  0.58380985656E+02 -0.20465601961E+03 -0.53748571122E+02  0.21954226734E+03  0.41800000000E+01 0. -1.
         -5    1    3    3    0  502 -0.67320065360E+01  0.15036304823E+02  0.64383821211E+01  0.18175135187E+02  0.41800000000E+01 0. -1.
        -11    1    1    2    0    0  0.26157017244E+02  0.47237781810E+02 -0.38328161953E+02  0.66216656365E+02  0.00000000000E+00 0.  1.
         11    1    1    2    0    0 -0.77805996363E+02  0.14238193298E+03 -0.88551841825E+02  0.18484538566E+03  0.00000000000E+00 0. -1.
</event>
<event>
 7    1  0.2732144E-009  0.1370079E+03  0.7561462E-02  0.1217413E+00
         -2   -1    0    0    0  501 -0.00000000000E+00  0.00000000000E+00  0.32411423900E+02  0.32411423900E+02  0.00000000000E+00 0. -1.
          2   -1    0    0  501    0  0.00000000000E+00 -0.00000000000E+00 -0.70653599814E+03  0.70653599814E+03  0.00000000000E+00 0.  1.
         25    2    1    2    0    0 -0.86015672035E+02  0.13532216293E+02 -0.51762633416E+03  0.53959820712E+03  0.12508951431E+03 0.  0.
          5    1    3    3  502    0 -0.84876718441E+02  0.60751039453E+02 -0.33444607144E+03  0.35038035508E+03  0.41800000000E+01 0. -1.
         -5    1    3    3    0  502 -0.11389535949E+01 -0.47218823160E+02 -0.18318026272E+03  0.18921785203E+03  0.41800000000E+01 0. -1.
        -11    1    1    2    0    0  0.65043494360E+02  0.31642268781E+02 -0.77930128002E+02  0.10632494619E+03  0.00000000000E+00 0. -1.
         11    1    1    2    0    0  0.20972177675E+02 -0.45174485073E+02 -0.78568112072E+02  0.93024268729E+02  0.00000000000E+00 0.  1.
</event>
<event>
 7    1  0.2732144E-009  0.9473191E+02  0.7561462E-02  0.1291781E+00
         -2   -1    0    0    0  501 -0.00000000000E+00  0.00000000000E+00  0.18530408798E+02  0.18530408798E+02  0.00000000000E+00 0.  1.
          2   -1    0    0  501    0  0.00000000000E+00 -0.00000000000E+00 -0.99526906262E+03  0.99526906262E+03  0.00000000000E+00 0. -1.
         25    2    1    2    0    0 -0.46166094733E+02 -0.44211667271E+02 -0.72088325265E+03  0.73444248296E+03  0.12508843675E+03 0.  0.
          5    1    3    3  502    0  0.47250849732E+01  0.51218231513E+01 -0.54089708527E+03  0.54095812107E+03  0.41800000000E+01 0. -1.
         -5    1    3    3    0  502 -0.50891179706E+02 -0.49333490422E+02 -0.17998616738E+03  0.19348436189E+03  0.41800000000E+01 0. -1.
        -11    1    1    2    0    0  0.58626080068E+01  0.64809857568E+02 -0.17480531336E+03  0.18652502617E+03  0.00000000000E+00 0.  1.
         11    1    1    2    0    0  0.40303486726E+02 -0.20598190297E+02 -0.81050087817E+02  0.92831962281E+02  0.00000000000E+00 0. -1.
</event>
<event>
 7    1  0.2732144E-009  0.1203055E+03  0.7561462E-02  0.1242594E+00
         -2   -1    0    0    0  501 -0.00000000000E+00  0.00000000000E+00  0.14739902167E+02  0.14739902167E+02  0.00000000000E+00 0.  1.
          2   -1    0    0  501    0  0.00000000000E+00 -0.00000000000E+00 -0.19254277842E+04  0.19254277842E+04  0.00000000000E+00 0. -1.
         25    2    1    2    0    0 -0.82963800741E+02  0.14915749051E+02 -0.15684090975E+04  0.15756461856E+04  0.12509329906E+03 0.  0.
          5    1    3    3  502    0 -0.61654245263E+02  0.46427000632E+02 -0.14287376465E+04  0.14308268404E+04  0.41800000000E+01 0. -1.
         -5    1    3    3    0  502 -0.21309555478E+02 -0.31511251581E+02 -0.13967145095E+03  0.14481934519E+03  0.41800000000E+01 0. -1.
        -11    1    1    2    0    0  0.67542444456E+02 -0.51768473392E+02 -0.22017816661E+03  0.23605165047E+03  0.00000000000E+00 0.  1.
         11    1    1    2    0    0  0.15421356285E+02  0.36852724341E+02 -0.12210061795E+03  0.12846985025E+03  0.00000000000E+00 0. -1.
</event>
<event>
 7    1  0.2732144E-009  0.2082883E+03  0.7561462E-02  0.1142929E+00
         -1   -1    0    0    0  501 -0.00000000000E+00  0.00000000000E+00  0.45082461684E+03  0.45082461684E+03  0.00000000000E+00 0.  1.
          1   -1    0    0  501    0  0.00000000000E+00 -0.00000000000E+00 -0.10904231902E+03  0.10904231902E+03  0.00000000000E+00 0. -1.
         25    2    1    2    0    0 -0.14540371494E+03 -0.10868708003E+03  0.26246673973E+03  0.34277037182E+03  0.12509043387E+03 0.  0.
          5    1    3    3  502    0 -0.12796398467E+03 -0.13487584358E+03  0.20260141518E+03  0.27501105502E+03  0.41800000000E+01 0.  1.
         -5    1    3    3    0  502 -0.17439730273E+02  0.26188763552E+02  0.59865324555E+02  0.67759316794E+02  0.41800000000E+01 0.  1.
        -11    1    1    2    0    0  0.37067280273E+02  0.77857824718E+02  0.53693459284E+02  0.10158155200E+03  0.00000000000E+00 0.  1.
         11    1    1    2    0    0  0.10833643467E+03  0.30829255308E+02  0.25622098796E+02  0.11551501204E+03  0.00000000000E+00 0. -1.
</event>
<event>
 7    1  0.2732144E-009  0.2691449E+03  0.7561462E-02  0.1101770E+00
          2   -1    0    0  501    0  0.00000000000E+00  0.00000000000E+00  0.12127940986E+04  0.12127940986E+04  0.00000000000E+00 0. -1.
         -2   -1    0    0    0  501 -0.00000000000E+00 -0.00000000000E+00 -0.64055894522E+02  0.64055894522E+02  0.00000000000E+00 0.  1.
         25    2    1    2    0    0 -0.24512064048E+03 -0.68303419579E+02  0.53490604153E+03  0.60540811284E+03  0.12508007160E+03 0.  0.
          5    1    3    3  502    0 -0.74575168322E+02  0.27000210085E+02  0.93487183170E+02  0.12266944563E+03  0.41800000000E+01 0.  1.
         -5    1    3    3    0  502 -0.17054547216E+03 -0.95303629664E+02  0.44141885836E+03  0.48273866721E+03  0.41800000000E+01 0.  1.
        -11    1    1    2    0    0  0.17294569376E+03  0.14734181511E+02  0.31837591340E+03  0.36261623148E+03  0.00000000000E+00 0.  1.
         11    1    1    2    0    0  0.72174946723E+02  0.53569238069E+02  0.29545624919E+03  0.30882564885E+03  0.00000000000E+00 0. -1.
</event>
<event>
 7    1  0.2732144E-009  0.1127546E+03  0.7561462E-02  0.1255552E+00
         -3   -1    0    0    0  501 -0.00000000000E+00  0.00000000000E+00  0.28512328662E+03  0.28512328662E+03  0.00000000000E+00 0.  1.
          3   -1    0    0  501    0  0.00000000000E+00 -0.00000000000E+00 -0.78858738675E+02  0.78858738675E+02  0.00000000000E+00 0. -1.
         25    2    1    2    0    0  0.42760403317E+02 -0.26529862107E+02  0.19344188761E+01  0.13484609097E+03  0.12508973019E+03 0.  0.
          5    1    3    3  502    0 -0.40805804083E+02 -0.13710014911E+02  0.20999749059E+02  0.48078477682E+02  0.41800000000E+01 0. -1.
         -5    1    3    3    0  502  0.83566207400E+02 -0.12819847196E+02 -0.19065330183E+02  0.86767613292E+02  0.41800000000E+01 0. -1.
        -11    1    1    2    0    0 -0.66778104975E+02  0.30246444433E+02  0.11354570788E+03  0.13515469094E+03  0.00000000000E+00 0.  1.
         11    1    1    2    0    0  0.24017701657E+02 -0.37165823264E+01  0.90784421188E+02  0.93981243382E+02  0.00000000000E+00 0. -1.
</event>
<event>
 7    1  0.2732144E-009  0.3177492E+03  0.7561462E-02  0.1076690E+00
          4   -1    0    0  501    0  0.00000000000E+00  0.00000000000E+00  0.83080130772E+03  0.83080130772E+03  0.00000000000E+00 0.  1.
         -4   -1    0    0    0  501 -0.00000000000E+00 -0.00000000000E+00 -0.14613189426E+03  0.14613189426E+03  0.00000000000E+00 0. -1.
         25    2    1    2    0    0 -0.76347126319E+02  0.29213603769E+03  0.15865015733E+03  0.36331110638E+03  0.12511090835E+03 0.  0.
          5    1    3    3  502    0 -0.89258609681E+02  0.11392711759E+03  0.96885290420E+02  0.17421457868E+03  0.41800000000E+01 0. -1.
         -5    1    3    3    0  502  0.12911483362E+02  0.17820892010E+03  0.61764866908E+02  0.18909652770E+03  0.41800000000E+01 0. -1.
        -11    1    1    2    0    0  0.92924036723E+02 -0.24835615856E+03  0.47758119250E+03  0.54625951115E+03  0.00000000000E+00 0.  1.
         11    1    1    2    0    0 -0.16576910404E+02 -0.43779879131E+02  0.48438063626E+02  0.67362584445E+02  0.00000000000E+00 0. -1.
</event>
<event>
 7    1  0.2732144E-009  0.1227482E+03  0.7561462E-02  0.1238631E+00
         -2   -1    0    0    0  501 -0.00000000000E+00  0.00000000000E+00  0.26284782960E+02  0.26284782960E+02  0.00000000000E+00 0. -1.
          2   -1    0    0  501    0  0.00000000000E+00 -0.00000000000E+00 -0.83552839445E+03  0.83552839445E+03  0.00000000000E+00 0.  1.
         25    2    1    2    0    0  0.35142856501E+02 -0.82660809669E+02 -0.56314946240E+03  0.58382856585E+03  0.12510254787E+03 0.  0.
          5    1    3    3  502    0 -0.33869872940E+01  0.30995912038E+02 -0.79586748190E+02  0.85578859150E+02  0.41800000000E+01 0.  1.
         -5    1    3    3    0  502  0.38529843795E+02 -0.11365672171E+03 -0.48356271421E+03  0.49824970670E+03  0.41800000000E+01 0.  1.
        -11    1    1    2    0    0  0.45786548310E+01  0.12748256111E+02  0.49158500194E+01  0.14409985959E+02  0.00000000000E+00 0. -1.
         11    1    1    2    0    0 -0.39721511332E+02  0.69912553558E+02 -0.25100999910E+03  0.26357462560E+03  0.00000000000E+00 0.  1.
</event>
<event>
 7    1  0.2732144E-009  0.2502899E+03  0.7561462E-02  0.1113122E+00
          2   -1    0    0  501    0  0.00000000000E+00  0.00000000000E+00  0.39101146269E+03  0.39101146269E+03  0.00000000000E+00 0. -1.
         -2   -1    0    0    0  501 -0.00000000000E+00 -0.00000000000E+00 -0.36704266804E+03  0.36704266804E+03  0.00000000000E+00 0.  1.
         25    2    1    2    0    0  0.13744255432E+03 -0.19307785013E+03  0.28681946821E+03  0.39253712568E+03  0.12510186146E+03 0.  0.
          5    1    3    3  502    0  0.27849753182E+02 -0.13764658842E+03  0.18884118459E+03  0.23537344254E+03  0.41800000000E+01 0.  1.
         -5    1    3    3    0  502  0.10959280114E+03 -0.55431261717E+02  0.97978283621E+02  0.15716368314E+03  0.41800000000E+01 0.  1.
        -11    1    1    2    0    0 -0.82217384582E+02  0.12354202491E+03 -0.22375601999E+03  0.26849410930E+03  0.00000000000E+00 0.  1.
         11    1    1    2    0    0 -0.55225169741E+02  0.69535825223E+02 -0.39094653576E+02  0.97022895754E+02  0.00000000000E+00 0. -1.
</event>
<event>
 7    1  0.2732144E-009  0.1181155E+03  0.7561462E-02  0.1246239E+00
          2   -1    0    0  501    0  0.00000000000E+00  0.00000000000E+00  0.28762979668E+03  0.28762979668E+03  0.00000000000E+00 0. -1.
         -2   -1    0    0    0  501 -0.00000000000E+00 -0.00000000000E+00 -0.15004632253E+03  0.15004632253E+03  0.00000000000E+00 0.  1.
         25    2    1    2    0    0 -0.32485043022E+02  0.38770485662E+02  0.25035306963E+03  0.28439899704E+03  0.12509077289E+03 0.  0.
          5    1    3    3  502    0  0.15994839437E+02 -0.38705945739E+02  0.98488920438E+02  0.10710520516E+03  0.41800000000E+01 0. -1.
         -5    1    3    3    0  502 -0.48479882459E+02  0.77476431400E+02  0.15186414920E+03  0.17729379187E+03  0.41800000000E+01 0. -1.
        -11    1    1    2    0    0  0.34015499636E+02  0.22872717885E+02 -0.34090222213E+02  0.53313775795E+02  0.00000000000E+00 0. -1.
         11    1    1    2    0    0 -0.15304566145E+01 -0.61643203546E+02 -0.78679373272E+02  0.99963346380E+02  0.00000000000E+00 0.  1.
</event>
<event>
 7    1  0.2732144E-009  0.1099330E+03  0.7561462E-02  0.1260694E+00
          2   -1    0    0  501    0  0.00000000000E+00  0.00000000000E+00  0.22476449496E+03  0.22476449496E+03  0.00000000000E+00 0. -1.
         -2   -1    0    0    0  501 -0.00000000000E+00 -0.00000000000E+00 -0.76250578354E+02  0.76250578354E+02  0.00000000000E+00 0.  1.
         25    2    1    2    0    0  0.32265276911E+02  0.36457133409E+02  0.18048483142E+02  0.13544001984E+03  0.12509228817E+03 0.  0.
          5    1    3    3  502    0 -0.45353413415E+02 -0.21461034563E+01  0.16947716626E+02  0.48643965374E+02  0.41800000000E+01 0.  1.
         -5    1    3    3    0  502  0.77618690326E+02  0.38603236865E+02  0.11007665160E+01  0.86796054469E+02  0.41800000000E+01 0.  1.
        -11    1    1    2    0    0  0.23618771341E+02 -0.11713987649E+02  0.61847513408E+01  0.27079789797E+02  0.00000000000E+00 0.  1.
         11    1    1    2    0    0 -0.55884048252E+02 -0.24743145760E+02  0.12428068213E+03  0.13849526368E+03  0.00000000000E+00 0. -1.
</event>
<event>
 7    1  0.2732144E-009  0.1840705E+03  0.7561462E-02  0.1163921E+00
         -1   -1    0    0    0  501 -0.00000000000E+00  0.00000000000E+00  0.24195882838E+03  0.24195882838E+03  0.00000000000E+00 0.  1.
          1   -1    0    0  501    0  0.00000000000E+00 -0.00000000000E+00 -0.16749532205E+03  0.16749532205E+03  0.00000000000E+00 0. -1.
         25    2    1    2    0    0  0.11912656271E+03  0.11927096211E+03  0.23859818870E+02  0.21126576471E+03  0.12508889653E+03 0.  0.
          5    1    3    3  502    0  0.57125255488E+02 -0.27712903902E+01 -0.29252488803E+02  0.64375114495E+02  0.41800000000E+01 0. -1.
         -5    1    3    3    0  502  0.62001307225E+02  0.12204225250E+03  0.53112307674E+02  0.14689065021E+03  0.41800000000E+01 0. -1.
        -11    1    1    2    0    0 -0.81507097037E+02 -0.10651067893E+03  0.72882681811E+02  0.15264277546E+03  0.00000000000E+00 0. -1.
         11    1    1    2    0    0 -0.37619465677E+02 -0.12760283189E+02 -0.22278994355E+02  0.45545610264E+02  0.00000000000E+00 0.  1.
</event>
<event>
 7    1  0.2732144E-009  0.1029658E+03  0.7561462E-02  0.1274180E+00
         -1   -1    0    0    0  501 -0.00000000000E+00  0.00000000000E+00  0.78746153350E+02  0.78746153350E+02  0.00000000000E+00 0.  1.
          1   -1    0    0  501    0  0.00000000000E+00 -0.00000000000E+00 -0.38542062391E+03  0.38542062391E+03  0.00000000000E+00 0. -1.
         25    2    1    2    0    0  0.13307211401E+02  0.25744216114E+02  0.14760950110E+02  0.12926148879E+03  0.12510315862E+03 0.  0.
          5    1    3    3  502    0 -0.64120343248E+01  0.73945653199E+02  0.19338347706E+02  0.76814828667E+02  0.41800000000E+01 0. -1.
         -5    1    3    3    0  502  0.19719245725E+02 -0.48201437084E+02 -0.45773975963E+01  0.52446660120E+02  0.41800000000E+01 0. -1.
        -11    1    1    2    0    0 -0.29733603622E+02  0.16509731528E+02 -0.55187136666E+02  0.64824983401E+02  0.00000000000E+00 0.  1.
         11    1    1    2    0    0  0.16426392222E+02 -0.42253947642E+02 -0.26624828400E+03  0.27008030507E+03  0.00000000000E+00 0. -1.
</event>
<event>
 7    1  0.2732144E-009  0.1105471E+03  0.7561462E-02  0.1259560E+00
          2   -1    0    0  501    0  0.00000000000E+00  0.00000000000E+00  0.12280959191E+04  0.12280959191E+04  0.00000000000E+00 0. -1.
         -2   -1    0    0    0  501 -0.00000000000E+00 -0.00000000000E+00 -0.11296243268E+02  0.11296243268E+02  0.00000000000E+00 0.  1.
         25    2    1    2    0    0  0.11014264712E+02 -0.29603210716E+02  0.82934862610E+03  0.83932222668E+03  0.12507994432E+03 0.  0.
          5    1    3    3  502    0  0.36671379618E+02 -0.68308030750E+02  0.62012227908E+03  0.62496391141E+03  0.41800000000E+01 0. -1.
         -5    1    3    3    0  502 -0.25657114907E+02  0.38704820035E+02  0.20922634702E+03  0.21435831528E+03  0.41800000000E+01 0. -1.
        -11    1    1    2    0    0  0.35196530269E+02 -0.93193875180E+01  0.10223789860E+03  0.10852757547E+03  0.00000000000E+00 0.  1.
         11    1    1    2    0    0 -0.46210794981E+02  0.38922598234E+02  0.28521315113E+03  0.29154236022E+03  0.00000000000E+00 0. -1.
</event>
<event>
 7    1  0.2732144E-009  0.9851088E+02  0.7561462E-02  0.1283459E+00
          2   -1    0    0  501    0  0.00000000000E+00  0.00000000000E+00  0.41375611407E+03  0.41375611407E+03  0.00000000000E+00 0.  1.
         -2   -1    0    0    0  501 -0.00000000000E+00 -0.00000000000E+00 -0.45752578262E+02  0.45752578262E+02  0.00000000000E+00 0. -1.
         25    2    1    2    0    0 -0.18842737399E+02 -0.58935584557E+02  0.17525454655E+03  0.22403085530E+03  0.12508883308E+03 0.  0.
          5    1    3    3  502    0 -0.46401077107E+02 -0.36219168627E+02  0.16528149195E+02  0.61282462814E+02  0.41800000000E+01 0.  1.
         -5    1    3    3    0  502  0.27558339708E+02 -0.22716415930E+02  0.15872639735E+03  0.16274839249E+03  0.41800000000E+01 0.  1.
        -11    1    1    2    0    0  0.36047820759E+02 -0.44975606686E+01  0.51398929772E+01  0.36689125545E+02  0.00000000000E+00 0. -1.
         11    1    1    2    0    0 -0.17205083360E+02  0.63433145226E+02  0.18760909629E+03  0.19878871149E+03  0.00000000000E+00 0.  1.
</event>
<event>
 7    1  0.2732144E-009  0.1118091E+03  0.7561462E-02  0.1257256E+00
         -2   -1    0    0    0  501 -0.00000000000E+00  0.00000000000E+00  0.17382948263E+03  0.17382948263E+03  0.00000000000E+00 0.  1.
          2   -1    0    0  501    0  0.00000000000E+00 -0.00000000000E+00 -0.99682278394E+02  0.99682278394E+02  0.00000000000E+00 0. -1.
         25    2    1    2    0    0  0.36172489385E+02 -0.63913473858E+02  0.59067408772E+02  0.15661861235E+03  0.12508816821E+03 0.  0.
          5    1    3    3  502    0 -0.22111515158E+02  0.78668994073E-01  0.65954706494E+02  0.69688026232E+02  0.41800000000E+01 0. -1.
         -5    1    3    3    0  502  0.58284004543E+02 -0.63992142852E+02 -0.68872977214E+01  0.86930586115E+02  0.41800000000E+01 0. -1.
        -11    1    1    2    0    0 -0.16934207788E+02  0.84558945732E+02  0.32640122031E+01  0.86299689874E+02  0.00000000000E+00 0. -1.
         11    1    1    2    0    0 -0.19238281597E+02 -0.20645471874E+02  0.11815783266E+02  0.30593458809E+02  0.00000000000E+00 0.  1.
</event>
<event>
 7    1  0.2732144E-009  0.1893808E+03  0.7561462E-02  0.1159021E+00
          1   -1    0    0  501    0  0.00000000000E+00  0.00000000000E+00  0.39940102123E+03  0.39940102123E+03  0.00000000000E+00 0. -1.
         -1   -1    0    0    0  501 -0.00000000000E+00 -0.00000000000E+00 -0.16613600457E+03  0.16613600457E+03  0.00000000000E+00 0.  1.
         25    2    1    2    0    0 -0.13128074182E+03  0.83360291801E+02 -0.70417226964E+02  0.21163424897E+03  0.12508756157E+03 0.  0.
          5    1    3    3  502    0  0.23040638131E+02 -0.34280874671E+00 -0.13496788126E+02  0.27030061285E+02  0.41800000000E+01 0. -1.
         -5    1    3    3    0  502 -0.15432137996E+03  0.83703100548E+02 -0.56920438837E+02  0.18460418768E+03  0.41800000000E+01 0. -1.
        -11    1    1    2    0    0  0.11321770769E+03 -0.21437860536E+02  0.16866361918E+03  0.20426758831E+03  0.00000000000E+00 0.  1.
         11    1    1    2    0    0  0.18063034137E+02 -0.61922431265E+02  0.13501862444E+03  0.14963518852E+03  0.00000000000E+00 0. -1.
</event>
<event>
 7    1  0.2732144E-009  0.3151019E+03  0.7561462E-02  0.1077926E+00
         -2   -1    0    0    0  501 -0.00000000000E+00  0.00000000000E+00  0.15580419370E+03  0.15580419370E+03  0.00000000000E+00 0.  1.
          2   -1    0    0  501    0  0.00000000000E+00 -0.00000000000E+00 -0.65444282802E+03  0.65444282802E+03  0.00000000000E+00 0. -1.
         25    2    1    2    0    0 -0.25284213524E+03  0.16041104676E+03 -0.28037190820E+03  0.42885699210E+03  0.12509621692E+03 0.  0.
          5    1    3    3  502    0 -0.16451965930E+03  0.39057461026E+02 -0.11001579112E+03  0.20177499907E+03  0.41800000000E+01 0.  1.
         -5    1    3    3    0  502 -0.88322475947E+02  0.12135358573E+03 -0.17035611709E+03  0.22708199303E+03  0.41800000000E+01 0.  1.
        -11    1    1    2    0    0  0.22321184168E+03 -0.16909903908E+03 -0.18304429296E+03  0.33454928556E+03  0.00000000000E+00 0.  1.
         11    1    1    2    0    0  0.29630293562E+02  0.86879923161E+01 -0.35222433155E+02  0.46840744063E+02  0.00000000000E+00 0. -1.
</event>
<event>
 7    1  0.2732144E-009  0.1307440E+03  0.7561462E-02  0.1226356E+00
         -2   -1    0    0    0  501 -0.00000000000E+00  0.00000000000E+00  0.28983342385E+03  0.28983342385E+03  0.00000000000E+00 0.  1.
          2   -1    0    0  501    0  0.00000000000E+00 -0.00000000000E+00 -0.75397890258E+02  0.75397890258E+02  0.00000000000E+00 0. -1.
         25    2    1    2    0    0  0.86585077786E+02 -0.36681400891E+02  0.15924782018E+03  0.22326966095E+03  0.12508785874E+03 0.  0.
          5    1    3    3  502    0  0.29987505125E+02 -0.64915370912E+02  0.13960557978E+03  0.15690903782E+03  0.41800000000E+01 0. -1.
         -5    1    3    3    0  502  0.56597572661E+02  0.28233970021E+02  0.19642240395E+02  0.66360623128E+02  0.41800000000E+01 0. -1.
        -11    1    1    2    0    0 -0.93052720084E+02  0.39807482131E+01  0.55889899684E+02  0.10862014527E+03  0.00000000000E+00 0. -1.
         11    1    1    2    0    0  0.64676422986E+01  0.32700652678E+02 -0.70218627231E+00  0.33341507885E+02  0.00000000000E+00 0.  1.
</event>
<event>
 7    1  0.2732144E-009  0.1322397E+03  0.7561462E-02  0.1224170E+00
         -1   -1    0    0    0  501 -0.00000000000E+00  0.00000000000E+00  0.31210611748E+02  0.31210611748E+02  0.00000000000E+00 0.  1.
          1   -1    0    0  501    0  0.00000000000E+00 -0.00000000000E+00 -0.92829269803E+03  0.92829269803E+03  0.00000000000E+00 0. -1.
         25    2    1    2    0    0  0.11778106846E+03 -0.29429338238E+02 -0.44437826781E+03  0.47734648789E+03  0.12509659691E+03 0.  0.
          5    1    3    3  502    0  0.84711118834E+02  0.11015531821E+02 -0.11231038254E+03  0.14116802053E+03  0.41800000000E+01 0. -1.
         -5    1    3    3    0  502  0.33069949625E+02 -0.40444870059E+02 -0.33206788527E+03  0.33617846735E+03  0.41800000000E+01 0. -1.
        -11    1    1    2    0    0 -0.46276184539E+02  0.29791366725E+02 -0.54043241505E+02  0.77134186578E+02  0.00000000000E+00 0. -1.
         11    1    1    2    0    0 -0.71504883920E+02 -0.36202848719E+00 -0.39866057696E+03  0.40502263531E+03  0.00000000000E+00 0.  1.
</event>
<event>
 7    1  0.2783187E-009  0.1573105E+03  0.7561462E-02  0.1191767E+00
         -2   -1    0    0    0  501 -0.00000000000E+00  0.00000000000E+00  0.59698886411E+02  0.59698886411E+02  0.00000000000E+00 0.  1.
          2   -1    0    0  501    0  0.00000000000E+00 -0.00000000000E+00 -0.57618126611E+03  0.57618126611E+03  0.00000000000E+00 0. -1.
         25    2    1    2    0    0 -0.68324876452E+02  0.13229075678E+03 -0.23911697200E+03  0.30821036048E+03  0.12509023519E+03 0.  0.
          5    1    3    3  502    0 -0.71911506644E+02  0.73331223670E+02 -0.22494993253E+03  0.24732302298E+03  0.41800000000E+01 0. -1.
         -5    1    3    3    0  502  0.35866301919E+01  0.58959533107E+02 -0.14167039468E+02  0.60887337498E+02  0.41800000000E+01 0. -1.
        -11    1    1    2    0    0 -0.26688375655E+01 -0.17062171090E+02  0.18627211053E+01  0.17369804437E+02  0.00000000000E+00 0.  1.
         11    1    1    2    0    0  0.70993714018E+02 -0.11522858569E+03 -0.27922812881E+03  0.31029998761E+03  0.00000000000E+00 0. -1.
</event>
<event>
 7    1  0.2732144E-009  0.1739939E+03  0.7561462E-02  0.1173746E+00
         -2   -1    0    0    0  501 -0.00000000000E+00  0.00000000000E+00  0.36481714125E+02  0.36481714125E+02  0.00000000000E+00 0.  1.
          2   -1    0    0  501    0  0.00000000000E+00 -0.00000000000E+00 -0.11380446742E+04  0.11380446742E+04  0.00000000000E+00 0. -1.
         25    2    1    2    0    0  0.26593225634E+02 -0.15409385545E+03 -0.75054192971E+03  0.77679704887E+03  0.12509336894E+03 0.  0.
          5    1    3    3  502    0  0.54604593824E+02 -0.11418287072E+03 -0.67508244757E+03  0.68685746196E+03  0.41800000000E+01 0.  1.
         -5    1    3    3    0  502 -0.28011368190E+02 -0.39910984723E+02 -0.75459482135E+02  0.89939586910E+02  0.41800000000E+01 0.  1.
        -11    1    1    2    0    0  0.23340872910E+02  0.77837090202E+02 -0.24387232685E+03  0.25705470383E+03  0.00000000000E+00 0. -1.
         11    1    1    2    0    0 -0.49934098544E+02  0.76256765244E+02 -0.10714870354E+03  0.14067463564E+03  0.00000000000E+00 0.  1.
</event>
<event>
 7    1  0.2732144E-009  0.1925645E+03  0.7561462E-02  0.1156168E+00
         -2   -1    0    0    0  501 -0.00000000000E+00  0.00000000000E+00  0.14033790468E+03  0.14033790468E+03  0.00000000000E+00 0. -1.
          2   -1    0    0  501    0  0.00000000000E+00 -0.00000000000E+00 -0.26608598622E+03  0.26608598622E+03  0.00000000000E+00 0.  1.
         25    2    1    2    0    0 -0.13035392204E+02  0.15985961301E+03 -0.71391202090E+02  0.21556695232E+03  0.12508952745E+03 0.  0.
          5    1    3    3  502    0  0.40868122213E+02  0.13955149727E+03 -0.47034169747E+02  0.15288724383E+03  0.41800000000E+01 0.  1.
         -5    1    3    3    0  502 -0.53903514417E+02  0.20308115735E+02 -0.24357032343E+02  0.62679708485E+02  0.41800000000E+01 0.  1.
        -11    1    1    2    0    0 -0.36563019561E+02 -0.78863539776E+02 -0.36189351725E+02  0.94159340927E+02  0.00000000000E+00 0. -1.
         11    1    1    2    0    0  0.49598411765E+02 -0.80996073229E+02 -0.18167527729E+02  0.96697597653E+02  0.00000000000E+00 0.  1.
</event>
<event>
 7    1  0.2732144E-009  0.1076283E+03  0.7561462E-02  0.1265026E+00
          2   -1    0    0  501    0  0.00000000000E+00  0.00000000000E+00  0.18279835982E+03  0.18279835982E+03  0.00000000000E+00 0. -1.
         -2   -1    0    0    0  501 -0.00000000000E+00 -0.00000000000E+00 -0.76206044643E+02  0.76206044643E+02  0.00000000000E+00 0.  1.
         25    2    1    2    0    0  0.18622151974E+02 -0.34885622719E+02  0.29919757780E+02  0.13456363019E+03  0.12509351481E+03 0.  0.
          5    1    3    3  502    0  0.70711861279E+02 -0.30558182198E+02  0.74112352901E+01  0.77500765372E+02  0.41800000000E+01 0. -1.
         -5    1    3    3    0  502 -0.52089709304E+02 -0.43274405202E+01  0.22508522490E+02  0.57062864821E+02  0.41800000000E+01 0. -1.
        -11    1    1    2    0    0  0.20614954128E+02  0.41070037332E+02  0.10305462336E+02  0.47094870783E+02  0.00000000000E+00 0.  1.
         11    1    1    2    0    0 -0.39237106102E+02 -0.61844146133E+01  0.66367095058E+02  0.77345903484E+02  0.00000000000E+00 0. -1.
</event>
<event>
 7    1  0.2732144E-009  0.1602700E+03  0.7561462E-02  0.1188392E+00
         -1   -1    0    0    0  501 -0.00000000000E+00  0.00000000000E+00  0.56278792706E+02  0.56278792706E+02  0.00000000000E+00 0.  1.
          1   -1    0    0  501    0  0.00000000000E+00 -0.00000000000E+00 -0.52276120809E+03  0.52276120809E+03  0.00000000000E+00 0. -1.
         25    2    1    2    0    0  0.19733493469E+01 -0.12357920611E+03 -0.16922953474E+03  0.24405148168E+03  0.12508707364E+03 0.  0.
          5    1    3    3  502    0 -0.16443281038E+02  0.18080993330E+02 -0.32241290180E+01  0.25003424146E+02  0.41800000000E+01 0.  1.
         -5    1    3    3    0  502  0.18416630385E+02 -0.14166019944E+03 -0.16600540572E+03  0.21904805754E+03  0.41800000000E+01 0.  1.
        -11    1    1    2    0    0 -0.22128176768E+02 -0.49971494742E+01 -0.28889157609E+02  0.36731609511E+02  0.00000000000E+00 0.  1.
         11    1    1    2    0    0  0.20154827422E+02  0.12857635559E+03 -0.26836372304E+03  0.29825690961E+03  0.00000000000E+00 0. -1.
</event>
<event>
 7    1  0.2732144E-009  0.7851032E+02  0.7561462E-02  0.1333333E+00
         -2   -1    0    0    0  501 -0.00000000000E+00  0.00000000000E+00  0.40232464440E+02  0.40232464440E+02  0.00000000000E+00 0.  1.
          2   -1    0    0  501    0  0.00000000000E+00 -0.00000000000E+00 -0.32052090227E+03  0.32052090227E+03  0.00000000000E+00 0. -1.
         25    2    1    2    0    0 -0.22483460831E+02  0.24340878740E+02 -0.17103561664E+03  0.21447181004E+03  0.12508793207E+03 0.  0.
          5    1    3    3  502    0  0.15879580475E+02 -0.24748748225E+02 -0.14295266731E+03  0.14600547629E+03  0.41800000000E+01 0. -1.
         -5    1    3    3    0  502 -0.38363041306E+02  0.49089626965E+02 -0.28082949335E+02  0.68466333750E+02  0.41800000000E+01 0. -1.
        -11    1    1    2    0    0 -0.18196208359E+02 -0.15823657888E+01  0.81222843831E+01  0.19989431801E+02  0.00000000000E+00 0.  1.
         11    1    1    2    0    0  0.40679669190E+02 -0.22758512951E+02 -0.11737510557E+03  0.12629212487E+03  0.00000000000E+00 0. -1.
</event>
<event>
 7    1  0.2732144E-009  0.1046773E+03  0.7561462E-02  0.1270757E+00
         -2   -1    0    0    0  501 -0.00000000000E+00  0.00000000000E+00  0.66702384085E+02  0.66702384085E+02  0.00000000000E+00 0.  1.
          2   -1    0    0  501    0  0.00000000000E+00 -0.00000000000E+00 -0.22959178376E+03  0.22959178376E+03  0.00000000000E+00 0. -1.
         25    2    1    2    0    0 -0.35566877043E+02 -0.42010843529E+01 -0.38329196057E+02  0.13563541761E+03  0.12508072349E+03 0.  0.
          5    1    3    3  502    0 -0.81738085536E+02 -0.35557961509E+01 -0.13454369131E+02  0.83019580594E+02  0.41800000000E+01 0.  1.
         -5    1    3    3    0  502  0.46171208493E+02 -0.64528820208E+00 -0.24874826926E+02  0.52615837018E+02  0.41800000000E+01 0.  1.
        -11    1    1    2    0    0  0.16926636166E+02  0.38485753337E+02 -0.11205009379E+03  0.11967826762E+03  0.00000000000E+00 0.  1.
         11    1    1    2    0    0  0.18640240877E+02 -0.34284668984E+02 -0.12510109825E+02  0.40980482612E+02  0.00000000000E+00 0. -1.
</event>
<event>
 7    1  0.2732144E-009  0.1350873E+03  0.7561462E-02  0.1220096E+00
          2   -1    0    0  501    0  0.00000000000E+00  0.00000000000E+00  0.21400041505E+04  0.21400041505E+04  0.00000000000E+00 0. -1.
         -2   -1    0    0    0  501 -0.00000000000E+00 -0.00000000000E+00 -0.11865559989E+02  0.11865559989E+02  0.00000000000E+00 0.  1.
         25    2    1    2    0    0  0.88750571962E+02 -0.20938757751E+02  0.16364634688E+04  0.16437689551E+04  0.12509435348E+03 0.  0.
          5    1    3    3  502    0  0.18180449956E+02 -0.63055481530E+02  0.49587819870E+03  0.50021913483E+03  0.41800000000E+01 0. -1.
         -5    1    3    3    0  502  0.70570122005E+02  0.42116723779E+02  0.11405852701E+04  0.11435498202E+04  0.41800000000E+01 0. -1.
        -11    1    1    2    0    0  0.11660651058E+01  0.31564930998E+02  0.69729498650E+02  0.76550033042E+02  0.00000000000E+00 0.  1.
         11    1    1    2    0    0 -0.89916637068E+02 -0.10626173248E+02  0.42194562300E+03  0.43155072234E+03  0.00000000000E+00 0. -1.
</event>
<event>
 7    1  0.2732144E-009  0.1092095E+03  0.7561462E-02  0.1262041E+00
          1   -1    0    0  501    0  0.00000000000E+00  0.00000000000E+00  0.28936844569E+02  0.28936844569E+02  0.00000000000E+00 0. -1.
         -1   -1    0    0    0  501 -0.00000000000E+00 -0.00000000000E+00 -0.62031067184E+03  0.62031067184E+03  0.00000000000E+00 0.  1.
         25    2    1    2    0    0  0.32371448260E+02 -0.66189716494E+02 -0.38161758886E+03  0.40829947565E+03  0.12508992147E+03 0.  0.
          5    1    3    3  502    0 -0.17196038015E+02 -0.87869946994E+02 -0.21064943079E+03  0.22892681450E+03  0.41800000000E+01 0.  1.
         -5    1    3    3    0  502  0.49567486275E+02  0.21680230500E+02 -0.17096815807E+03  0.17937266114E+03  0.41800000000E+01 0.  1.
        -11    1    1    2    0    0 -0.20954426041E+02  0.53473356961E+02 -0.21541986865E+03  0.22294440492E+03  0.00000000000E+00 0.  1.
         11    1    1    2    0    0 -0.11417022219E+02  0.12716359533E+02  0.56636302391E+01  0.18003635844E+02  0.00000000000E+00 0. -1.
</event>
<event>
 7    1  0.2732144E-009  0.1429417E+03  0.7561462E-02  0.1209425E+00
          2   -1    0    0  501    0  0.00000000000E+00  0.00000000000E+00  0.36400446072E+03  0.36400446072E+03  0.00000000000E+00 0. -1.
         -2   -1    0    0    0  501 -0.00000000000E+00 -0.00000000000E+00 -0.66498196653E+02  0.66498196653E+02  0.00000000000E+00 0.  1.
         25    2    1    2    0    0  0.11023094663E+03  0.12601473596E+02  0.16977163371E+03  0.23828516385E+03  0.12509097875E+03 0.  0.
          5    1    3    3  502    0  0.12783239436E+03 -0.13280040597E+01  0.92873863534E+02  0.15806932521E+03  0.41800000000E+01 0. -1.
         -5    1    3    3    0  502 -0.17601447738E+02  0.13929477655E+02  0.76897770179E+02  0.80215838640E+02  0.41800000000E+01 0. -1.
        -11    1    1    2    0    0 -0.10005504153E+03  0.19088652041E+02  0.63948446643E+02  0.12026966284E+03  0.00000000000E+00 0.  1.
         11    1    1    2    0    0 -0.10175905094E+02 -0.31690125637E+02  0.63786183715E+02  0.71947830685E+02  0.00000000000E+00 0. -1.
</event>
<event>
 7    1  0.2732144E-009  0.1196444E+03  0.7561462E-02  0.1243685E+00
          1   -1    0    0  501    0  0.00000000000E+00  0.00000000000E+00  0.19549711507E+04  0.19549711507E+04  0.00000000000E+00 0. -1.
         -1   -1    0    0    0  501 -0.00000000000E+00 -0.00000000000E+00 -0.15853315646E+02  0.15853315646E+02  0.00000000000E+00 0.  1.
         25    2    1    2    0    0  0.26760503735E+01 -0.10664853256E+03  0.15559453638E+04  0.15646068509E+04  0.12509017546E+03 0.  0.
          5    1    3    3  502    0  0.10900881821E+02  0.26552060915E+01  0.85888365268E+03  0.85896710099E+03  0.41800000000E+01 0. -1.
         -5    1    3    3    0  502 -0.82248314472E+01 -0.10930373865E+03  0.69706171109E+03  0.70563974988E+03  0.41800000000E+01 0. -1.
        -11    1    1    2    0    0  0.21295869385E+02  0.74732076624E+02  0.14298861396E+03  0.16273948830E+03  0.00000000000E+00 0.  1.
         11    1    1    2    0    0 -0.23971919759E+02  0.31916455939E+02  0.24018385736E+03  0.24347812721E+03  0.00000000000E+00 0. -1.
</event>
<event>
 7    1  0.2732144E-009  0.8036565E+02  0.7561462E-02  0.1328017E+00
          2   -1    0    0  501    0  0.00000000000E+00  0.00000000000E+00  0.62415523508E+02  0.62415523508E+02  0.00000000000E+00 0. -1.
         -2   -1    0    0    0  501 -0.00000000000E+00 -0.00000000000E+00 -0.25778262034E+03  0.25778262034E+03  0.00000000000E+00 0.  1.
         25    2    1    2    0    0 -0.32181749082E+02  0.43436663748E+01 -0.36012951842E+02  0.13416986803E+03  0.12510031326E+03 0.  0.
          5    1    3    3  502    0 -0.34450670718E+02  0.26107353713E+02 -0.76495290428E+02  0.87962744890E+02  0.41800000000E+01 0. -1.
         -5    1    3    3    0  502  0.22689216365E+01 -0.21763687339E+02  0.40482338586E+02  0.46207123145E+02  0.41800000000E+01 0. -1.
        -11    1    1    2    0    0 -0.31160849509E+02 -0.56594111161E+01 -0.65999625602E+02  0.73205041192E+02  0.00000000000E+00 0. -1.
         11    1    1    2    0    0  0.63342598590E+02  0.13157447414E+01 -0.93354519387E+02  0.11282323462E+03  0.00000000000E+00 0.  1.
</event>
<event>
 6    1  0.2732144E-009  0.1889614E+03  0.7561462E-02  0.1159401E+00
          2   -1    0    0  501    0  0.00000000000E+00  0.00000000000E+00  0.28622096514E+04  0.28622096514E+04  0.00000000000E+00 0. -1.
         -2   -1    0    0    0  501 -0.00000000000E+00 -0.00000000000E+00 -0.29162367956E+02  0.29162367956E+02  0.00000000000E+00 0.  1.
          5    1    1    2  502    0  0.12140189259E+03 -0.44502166511E+02  0.15676723799E+04  0.15730012795E+04  0.41800000000E+01 0. -1.
         -5    1    1    2    0  502  0.44117858949E+02  0.65616076379E+02  0.92291306396E+03  0.92630332558E+03  0.41800000000E+01 0. -1.
        -11    1    1    2    0    0 -0.58496221601E+02  0.64719651938E+01  0.43076822408E+02  0.72933578712E+02  0.00000000000E+00 0.  1.
         11    1    1    2    0    0 -0.10702352994E+03 -0.27585875062E+02  0.29938501719E+03  0.31913383553E+03  0.00000000000E+00 0. -1.
</event>
<event>
 7    1  0.2732144E-009  0.9030287E+02  0.7561462E-02  0.1302120E+00
         -2   -1    0    0    0  501 -0.00000000000E+00  0.00000000000E+00  0.70001049544E+02  0.70001049544E+02  0.00000000000E+00 0. -1.
          2   -1    0    0  501    0  0.00000000000E+00 -0.00000000000E+00 -0.33806531449E+03  0.33806531449E+03  0.00000000000E+00 0.  1.
         25    2    1    2    0    0  0.62852213481E+02  0.18964076174E+02 -0.25966673183E+03  0.29560992757E+03  0.12509348797E+03 0.  0.
          5    1    3    3  502    0  0.22298886498E+02 -0.38378318001E+02 -0.26065309098E+02  0.51643086372E+02  0.41800000000E+01 0. -1.
         -5    1    3    3    0  502  0.40553326982E+02  0.57342394175E+02 -0.23360142273E+03  0.24396684119E+03  0.41800000000E+01 0. -1.
        -11    1    1    2    0    0 -0.33488861921E+02 -0.93812472825E+01 -0.49837075230E+02  0.60772080274E+02  0.00000000000E+00 0.  1.
         11    1    1    2    0    0 -0.29363351560E+02 -0.95828288912E+01  0.41439542116E+02  0.51684356194E+02  0.00000000000E+00 0. -1.
</event>
<event>
 7    1  0.2732144E-009  0.1083297E+03  0.7561462E-02  0.1263695E+00
          1   -1    0    0  501    0  0.00000000000E+00  0.00000000000E+00  0.79006983751E+03  0.79006983751E+03  0.00000000000E+00 0. -1.
         -1   -1    0    0    0  501 -0.00000000000E+00 -0.00000000000E+00 -0.21190512402E+02  0.21190512402E+02  0.00000000000E+00 0.  1.
         25    2    1    2    0    0 -0.51710337950E+02  0.31653590080E+02  0.53698448062E+03  0.55468536034E+03  0.12509039827E+03 0.  0.
          5    1    3    3  502    0  0.10181277569E+02 -0.22966682294E+02  0.34146789587E+03  0.34241630104E+03  0.41800000000E+01 0. -1.
         -5    1    3    3    0  502 -0.61891615519E+02  0.54620272374E+02  0.19551658474E+03  0.21226905930E+03  0.41800000000E+01 0. -1.
        -11    1    1    2    0    0  0.12787613271E+02  0.31701389383E+02  0.92032779199E+02  0.98176033680E+02  0.00000000000E+00 0.  1.
         11    1    1    2    0    0  0.38922724679E+02 -0.63354979463E+02  0.13986206529E+03  0.15839895589E+03  0.00000000000E+00 0. -1.
</event>
<event>
 7    1  0.2732144E-009  0.9804271E+02  0.7561462E-02  0.1284467E+00
          1   -1    0    0  501    0  0.00000000000E+00  0.00000000000E+00  0.20604803562E+03  0.20604803562E+03  0.00000000000E+00 0. -1.
         -1   -1    0    0    0  501 -0.00000000000E+00 -0.00000000000E+00 -0.72469077436E+02  0.72469077436E+02  0.00000000000E+00 0.  1.
         25    2    1    2    0    0 -0.42267408888E+02 -0.37007637930E+02  0.64467743039E+02  0.15152364986E+03  0.12508887822E+03 0.  0.
          5    1    3    3  502    0 -0.29165234553E+02 -0.57941049228E+02  0.93058950975E+02  0.11351306907E+03  0.41800000000E+01 0. -1.
         -5    1    3    3    0  502 -0.13102174334E+02  0.20933411298E+02 -0.28591207937E+02  0.38010580792E+02  0.41800000000E+01 0. -1.
        -11    1    1    2    0    0  0.46420844726E+01  0.61153819379E+02  0.33825993596E+02  0.70039534662E+02  0.00000000000E+00 0.  1.
         11    1    1    2    0    0  0.37625324415E+02 -0.24146181449E+02  0.35285221550E+02  0.56953928537E+02  0.00000000000E+00 0. -1.
</event>
<event>
 7    1  0.2732144E-009  0.1835831E+03  0.7561462E-02  0.1164380E+00
          1   -1    0    0  501    0  0.00000000000E+00  0.00000000000E+00  0.35381126947E+03  0.35381126947E+03  0.00000000000E+00 0. -1.
         -1   -1    0    0    0  501 -0.00000000000E+00 -0.00000000000E+00 -0.10697381715E+03  0.10697381715E+03  0.00000000000E+00 0.  1.
         25    2    1    2    0    0  0.67912964668E+02  0.13937671286E+03  0.18401202772E+03  0.27119382419E+03  0.12509046756E+03 0.  0.
          5    1    3    3  502    0  0.61776264302E+02  0.85371031084E+01  0.91378129450E+02  0.11070963780E+03  0.41800000000E+01 0. -1.
         -5    1    3    3    0  502  0.61367003662E+01  0.13083960975E+03  0.92633898270E+02  0.16048418638E+03  0.41800000000E+01 0. -1.
        -11    1    1    2    0    0 -0.37851118120E+02 -0.78011069101E+01 -0.42441575569E+01  0.38879008286E+02  0.00000000000E+00 0.  1.
         11    1    1    2    0    0 -0.30061846549E+02 -0.13157560595E+03  0.67069582159E+02  0.15071225414E+03  0.00000000000E+00 0. -1.
</event>
<event>
 7    1  0.2732144E-009  0.1159070E+03  0.7561462E-02  0.1250006E+00
         -2   -1    0    0    0  501 -0.00000000000E+00  0.00000000000E+00  0.26768463316E+02  0.26768463316E+02  0.00000000000E+00 0.  1.
          2   -1    0    0  501    0  0.00000000000E+00 -0.00000000000E+00 -0.59230468914E+03  0.59230468914E+03  0.00000000000E+00 0. -1.
         25    2    1    2    0    0  0.60865946242E+02  0.56788279715E+01 -0.35436875241E+03  0.38073923361E+03  0.12509292078E+03 0.  0.
          5    1    3    3  502    0  0.14213156812E+02 -0.58159695323E+02 -0.14860069387E+03  0.16026291712E+03  0.41800000000E+01 0. -1.
         -5    1    3    3    0  502  0.46652789430E+02  0.63838523294E+02 -0.20576805854E+03  0.22047631649E+03  0.41800000000E+01 0. -1.
        -11    1    1    2    0    0 -0.36404519656E+01  0.26646269309E+02 -0.13631896235E+02  0.30151370674E+02  0.00000000000E+00 0.  1.
         11    1    1    2    0    0 -0.57225494276E+02 -0.32325097280E+02 -0.19753557718E+03  0.20818254817E+03  0.00000000000E+00 0. -1.
</event>
<event>
 7    1  0.2732144E-009  0.1162011E+03  0.7561462E-02  0.1249499E+00
          1   -1    0    0  501    0  0.00000000000E+00  0.00000000000E+00  0.61896651238E+02  0.61896651238E+02  0.00000000000E+00 0. -1.
         -1   -1    0    0    0  501 -0.00000000000E+00 -0.00000000000E+00 -0.30593241587E+03  0.30593241587E+03  0.00000000000E+00 0.  1.
         25    2    1    2    0    0  0.48787515078E+02 -0.66485224545E+02 -0.16024996024E+03  0.21938155318E+03  0.12509080465E+03 0.  0.
          5    1    3    3  502    0 -0.10196189562E+02 -0.71754341476E+02 -0.13809940295E+03  0.15601783647E+03  0.41800000000E+01 0.  1.
         -5    1    3    3    0  502  0.58983704640E+02  0.52691169309E+01 -0.22150557283E+02  0.63363716701E+02  0.41800000000E+01 0.  1.
        -11    1    1    2    0    0  0.22069057493E+01  0.45083226871E+02 -0.81418737148E+02  0.93093386107E+02  0.00000000000E+00 0.  1.
         11    1    1    2    0    0 -0.50994420827E+02  0.21401997674E+02 -0.23670672481E+01  0.55354127825E+02  0.00000000000E+00 0. -1.
</event>
<event>
 7    1  0.2946261E-009  0.9336871E+02  0.7561462E-02  0.1294893E+00
         -1   -1    0    0    0  501 -0.00000000000E+00  0.00000000000E+00  0.25556915907E+02  0.25556915907E+02  0.00000000000E+00 0.  1.
          1   -1    0    0  501    0  0.00000000000E+00 -0.00000000000E+00 -0.10203639086E+04  0.10203639086E+04  0.00000000000E+00 0. -1.
         25    2    1    2    0    0  0.65635678768E+02  0.16818594992E+02 -0.85117504736E+03  0.86298388200E+03  0.12510520324E+03 0.  0.
          5    1    3    3  502    0  0.65603879087E+02 -0.67163853257E+01 -0.18616840516E+03  0.19754778223E+03  0.41800000000E+01 0.  1.
         -5    1    3    3    0  502  0.31799680504E-01  0.23534980318E+02 -0.66500664220E+03  0.66543609977E+03  0.41800000000E+01 0.  1.
        -11    1    1    2    0    0  0.13170583302E+02 -0.11973843265E+02  0.13490208274E+01  0.17850967599E+02  0.00000000000E+00 0.  1.
         11    1    1    2    0    0 -0.78806262070E+02 -0.48447517274E+01 -0.14498096612E+03  0.16508597487E+03  0.00000000000E+00 0. -1.
</event>
<event>
 7    1  0.2732144E-009  0.9681190E+02  0.7561462E-02  0.1287147E+00
         -1   -1    0    0    0  501 -0.00000000000E+00  0.00000000000E+00  0.22685306654E+02  0.22685306654E+02  0.00000000000E+00 0.  1.
          1   -1    0    0  501    0  0.00000000000E+00 -0.00000000000E+00 -0.80476656984E+03  0.80476656984E+03  0.00000000000E+00 0. -1.
         25    2    1    2    0    0 -0.49767869492E+02  0.21847416100E+02 -0.60652294081E+03  0.62166803167E+03  0.12508762310E+03 0.  0.
          5    1    3    3  502    0 -0.64041381575E+02 -0.27307020917E+02 -0.48124234309E+03  0.48627012774E+03  0.41800000000E+01 0.  1.
         -5    1    3    3    0  502  0.14273512084E+02  0.49154437017E+02 -0.12528059772E+03  0.13539790394E+03  0.41800000000E+01 0.  1.
        -11    1    1    2    0    0 -0.69904627234E+01 -0.13434692305E+02  0.52974318230E+01  0.16044323306E+02  0.00000000000E+00 0.  1.
         11    1    1    2    0    0  0.56758332215E+02 -0.84127237944E+01 -0.18085575420E+03  0.18973952151E+03  0.00000000000E+00 0. -1.
</event>
<event>
 7    1  0.2732144E-009  0.1991100E+03  0.7561462E-02  0.1150492E+00
          1   -1    0    0  501    0  0.00000000000E+00  0.00000000000E+00  0.60138719134E+03  0.60138719134E+03  0.00000000000E+00 0. -1.
         -1   -1    0    0    0  501 -0.00000000000E+00 -0.00000000000E+00 -0.71054269386E+02  0.71054269386E+02  0.00000000000E+00 0.  1.
         25    2    1    2    0    0  0.19496419319E+02  0.17199281031E+03  0.33527535210E+03  0.39751529276E+03  0.12508880482E+03 0.  0.
          5    1    3    3  502    0  0.38088747735E+01  0.18815560700E+03  0.31480927083E+03  0.36679611417E+03  0.41800000000E+01 0. -1.
         -5    1    3    3    0  502  0.15687544545E+02 -0.16162796691E+02  0.20466081266E+02  0.30719178588E+02  0.41800000000E+01 0. -1.
        -11    1    1    2    0    0  0.23545140716E+02 -0.10375170221E+03  0.74572542152E+02  0.12992248999E+03  0.00000000000E+00 0.  1.
         11    1    1    2    0    0 -0.43041560035E+02 -0.68241108102E+02  0.12048502770E+03  0.14500367797E+03  0.00000000000E+00 0. -1.
</event>
<event>
 7    1  0.2732144E-009  0.1199028E+03  0.7561462E-02  0.1243257E+00
          2   -1    0    0  501    0  0.00000000000E+00  0.00000000000E+00  0.10966993220E+04  0.10966993220E+04  0.00000000000E+00 0. -1.
         -2   -1    0    0    0  501 -0.00000000000E+00 -0.00000000000E+00 -0.14229783637E+02  0.14229783637E+02  0.00000000000E+00 0.  1.
         25    2    1    2    0    0 -0.39970278842E+02 -0.41894027267E+02  0.69405569674E+03  0.70761326391E+03  0.12510191198E+03 0.  0.
          5    1    3    3  502    0  0.62725518431E+01  0.38623958966E+02  0.30913593921E+03  0.31163064102E+03  0.41800000000E+01 0.  1.
         -5    1    3    3    0  502 -0.46242830685E+02 -0.80517986234E+02  0.38491975753E+03  0.39598262290E+03  0.41800000000E+01 0.  1.
        -11    1    1    2    0    0  0.38004928583E+02 -0.21779281705E+02  0.13067733529E+03  0.13782335676E+03  0.00000000000E+00 0.  1.
         11    1    1    2    0    0  0.19653502586E+01  0.63673308972E+02  0.25773650632E+03  0.26549248495E+03  0.00000000000E+00 0. -1.
</event>
<event>
 7    1  0.2732144E-009  0.6033800E+02  0.7561462E-02  0.1396419E+00
          1   -1    0    0  501    0  0.00000000000E+00  0.00000000000E+00  0.24747421131E+03  0.24747421131E+03  0.00000000000E+00 0. -1.
         -1   -1    0    0    0  501 -0.00000000000E+00 -0.00000000000E+00 -0.51897130628E+02  0.51897130628E+02  0.00000000000E+00 0.  1.
         25    2    1    2    0    0  0.13444815290E+02 -0.19240911152E+02  0.12709681773E+03  0.17987002829E+03  0.12509456535E+03 0.  0.
          5    1    3    3  502    0  0.21406754054E+02 -0.75194585580E+01  0.15046503746E+03  0.15222349120E+03  0.41800000000E+01 0.  1.
         -5    1    3    3    0  502 -0.79619387637E+01 -0.11721452594E+02 -0.23368219729E+02  0.27646537090E+02  0.41800000000E+01 0.  1.
        -11    1    1    2    0    0 -0.33318024598E+02  0.41350479313E+02  0.72108688812E+02  0.89552308204E+02  0.00000000000E+00 0. -1.
         11    1    1    2    0    0  0.19873209308E+02 -0.22109568160E+02 -0.36284258649E+01  0.29949005438E+02  0.00000000000E+00 0.  1.
</event>
<event>
 7    1  0.2732144E-009  0.1161536E+03  0.7561462E-02  0.1249581E+00
         -1   -1    0    0    0  501 -0.00000000000E+00  0.00000000000E+00  0.12896035036E+03  0.12896035036E+03  0.00000000000E+00 0.  1.
          1   -1    0    0  501    0  0.00000000000E+00 -0.00000000000E+00 -0.19826332333E+03  0.19826332333E+03  0.00000000000E+00 0. -1.
         25    2    1    2    0    0 -0.61452564399E+02 -0.26936798799E+02 -0.13354122467E+03  0.19489178133E+03  0.12509012328E+03 0.  0.
          5    1    3    3  502    0 -0.37130426410E+02  0.48885719367E+02 -0.48789816856E+02  0.78526433462E+02  0.41800000000E+01 0. -1.
         -5    1    3    3    0  502 -0.24322137989E+02 -0.75822518165E+02 -0.84751407812E+02  0.11636534786E+03  0.41800000000E+01 0. -1.
        -11    1    1    2    0    0  0.15845851405E+02  0.40474643211E+02  0.72026003247E+02  0.84125102636E+02  0.00000000000E+00 0.  1.
         11    1    1    2    0    0  0.45606712994E+02 -0.13537844412E+02 -0.77877515507E+01  0.48206789725E+02  0.00000000000E+00 0. -1.
</event>
<event>
 7    1  0.3089951E-009  0.1297205E+03  0.7561462E-02  0.1227871E+00
         -2   -1    0    0    0  501 -0.00000000000E+00  0.00000000000E+00  0.11276139777E+02  0.11276139777E+02  0.00000000000E+00 0.  1.
          2   -1    0    0  501    0  0.00000000000E+00 -0.00000000000E+00 -0.15784637337E+04  0.15784637337E+04  0.00000000000E+00 0. -1.
         25    2    1    2    0    0  0.41337792595E+02 -0.65174163997E+02 -0.89194839303E+03  0.90397730231E+03  0.12508614034E+03 0.  0.
          5    1    3    3  502    0 -0.35756557728E+02  0.39534749586E+01 -0.12775740886E+03  0.13279152572E+03  0.41800000000E+01 0. -1.
         -5    1    3    3    0  502  0.77094350323E+02 -0.69127638956E+02 -0.76419098417E+03  0.77118577659E+03  0.41800000000E+01 0. -1.
        -11    1    1    2    0    0 -0.70538539543E+02  0.51561613730E+02 -0.50449553230E+03  0.51200588638E+03  0.00000000000E+00 0.  1.
         11    1    1    2    0    0  0.29200746948E+02  0.13612550268E+02 -0.17074366856E+03  0.17375668477E+03  0.00000000000E+00 0. -1.
</event>
<event>
 7    1  0.2732144E-009  0.1096477E+03  0.7561462E-02  0.1261224E+00
          1   -1    0    0  501    0  0.00000000000E+00  0.00000000000E+00  0.29698686410E+02  0.29698686410E+02  0.00000000000E+00 0. -1.
         -1   -1    0    0    0  501 -0.00000000000E+00 -0.00000000000E+00 -0.64529851307E+03  0.64529851307E+03  0.00000000000E+00 0.  1.
         25    2    1    2    0    0 -0.64374638142E+02 -0.44205544006E+02 -0.41598670391E+03  0.44134685964E+03  0.12507553129E+03 0.  0.
          5    1    3    3  502    0  0.14143149516E+02 -0.74434927661E+01 -0.12180825550E+00  0.16520335954E+02  0.41800000000E+01 0. -1.
         -5    1    3    3    0  502 -0.78517787659E+02 -0.36762051240E+02 -0.41586489565E+03  0.42482652368E+03  0.41800000000E+01 0. -1.
        -11    1    1    2    0    0  0.77936912623E+02  0.92513092824E+01 -0.99376457980E+02  0.12663107625E+03  0.00000000000E+00 0. -1.
         11    1    1    2    0    0 -0.13562274481E+02  0.34954234724E+02 -0.10023666478E+03  0.10701926359E+03  0.00000000000E+00 0.  1.
</event>
<event>
 7    1  0.2732144E-009  0.8412019E+02  0.7561462E-02  0.1317750E+00
          1   -1    0    0  501    0  0.00000000000E+00  0.00000000000E+00  0.38478118098E+02  0.38478118098E+02  0.00000000000E+00 0. -1.
         -1   -1    0    0    0  501 -0.00000000000E+00 -0.00000000000E+00 -0.50623248345E+03  0.50623248345E+03  0.00000000000E+00 0.  1.
         25    2    1    2    0    0 -0.10562494951E+02  0.49422850699E+02 -0.39010260276E+03  0.41277438476E+03  0.12509383505E+03 0.  0.
          5    1    3    3  502    0 -0.18642759880E+02  0.77220000020E+01 -0.35989523042E+03  0.36048471682E+03  0.41800000000E+01 0. -1.
         -5    1    3    3    0  502  0.80802649287E+01  0.41700850697E+02 -0.30207372338E+02  0.52289667944E+02  0.41800000000E+01 0. -1.
        -11    1    1    2    0    0  0.49279436627E+02 -0.43601686271E+02 -0.59772069131E+02  0.88894713949E+02  0.00000000000E+00 0. -1.
         11    1    1    2    0    0 -0.38716941675E+02 -0.58211644284E+01 -0.17879693459E+02  0.43041502834E+02  0.00000000000E+00 0.  1.
</event>
<event>
 7    1  0.2732144E-009  0.1700588E+03  0.7561462E-02  0.1177787E+00
         -1   -1    0    0    0  501 -0.00000000000E+00  0.00000000000E+00  0.93842108106E+02  0.93842108106E+02  0.00000000000E+00 0.  1.
          1   -1    0    0  501    0  0.00000000000E+00 -0.00000000000E+00 -0.37241694558E+03  0.37241694558E+03  0.00000000000E+00 0. -1.
         25    2    1    2    0    0 -0.11975490531E+03  0.75820029927E+02 -0.21411012721E+03  0.28563333228E+03  0.12511330725E+03 0.  0.
          5    1    3    3  502    0  0.19021869363E+02  0.16880368706E+02 -0.26742895574E+01  0.25911437365E+02  0.41800000000E+01 0. -1.
         -5    1    3    3    0  502 -0.13877677467E+03  0.58939661221E+02 -0.21143583765E+03  0.25972189491E+03  0.41800000000E+01 0. -1.
        -11    1    1    2    0    0  0.27469465481E+02 -0.65035570140E+02 -0.60107348476E+01  0.70854257816E+02  0.00000000000E+00 0. -1.
         11    1    1    2    0    0  0.92285439830E+02 -0.10784459787E+02 -0.58453975423E+02  0.10977146360E+03  0.00000000000E+00 0.  1.
</event>
<event>
 7    1  0.2732144E-009  0.9544306E+02  0.7561462E-02  0.1290181E+00
          1   -1    0    0  501    0  0.00000000000E+00  0.00000000000E+00  0.32071715730E+02  0.32071715730E+02  0.00000000000E+00 0. -1.
         -1   -1    0    0    0  501 -0.00000000000E+00 -0.00000000000E+00 -0.41813140220E+03  0.41813140220E+03  0.00000000000E+00 0.  1.
         25    2    1    2    0    0  0.11899379624E+02  0.29825918862E+02 -0.16663351979E+03  0.21082231724E+03  0.12509252120E+03 0.  0.
          5    1    3    3  502    0 -0.34534692532E+02  0.62667029867E+02 -0.10143151256E+03  0.12419994268E+03  0.41800000000E+01 0.  1.
         -5    1    3    3    0  502  0.46434072156E+02 -0.32841111005E+02 -0.65202007226E+02  0.86622374565E+02  0.41800000000E+01 0.  1.
        -11    1    1    2    0    0  0.47611275937E+01 -0.41543479547E+02 -0.21434831186E+03  0.21838893705E+03  0.00000000000E+00 0.  1.
         11    1    1    2    0    0 -0.16660507218E+02  0.11717560685E+02 -0.50778548187E+01  0.20991863631E+02  0.00000000000E+00 0. -1.
</event>
<event>
 7    1  0.2732144E-009  0.1187472E+03  0.7561462E-02  0.1245178E+00
          1   -1    0    0  501    0  0.00000000000E+00  0.00000000000E+00  0.43955172809E+03  0.43955172809E+03  0.00000000000E+00 0. -1.
         -1   -1    0    0    0  501 -0.00000000000E+00 -0.00000000000E+00 -0.54155214763E+02  0.54155214763E+02  0.00000000000E+00 0.  1.
         25    2    1    2    0    0  0.11051947094E+02  0.59303394925E+02  0.33434880457E+03  0.36204440466E+03  0.12509192478E+03 0.  0.
          5    1    3    3  502    0 -0.17772378053E+02 -0.33594496205E+02  0.62269659192E+02  0.73071406534E+02  0.41800000000E+01 0. -1.
         -5    1    3    3    0  502  0.28824325147E+02  0.92897891131E+02  0.27207914538E+03  0.28897299813E+03  0.41800000000E+01 0. -1.
        -11    1    1    2    0    0 -0.45197616981E+02 -0.18865689370E+02 -0.10909640194E+02  0.50177276385E+02  0.00000000000E+00 0.  1.
         11    1    1    2    0    0  0.34145669887E+02 -0.40437705555E+02  0.61957348942E+02  0.81485261800E+02  0.00000000000E+00 0. -1.
</event>
<event>
 7    1  0.2732144E-009  0.2410356E+03  0.7561462E-02  0.1119105E+00
         -2   -1    0    0    0  501 -0.00000000000E+00  0.00000000000E+00  0.15200963435E+03  0.15200963435E+03  0.00000000000E+00 0. -1.
          2   -1    0    0  501    0  0.00000000000E+00 -0.00000000000E+00 -0.44191867375E+03  0.44191867375E+03  0.00000000000E+00 0.  1.
         25    2    1    2    0    0  0.10483118408E+03 -0.19288709620E+03 -0.49031467561E+02  0.25738468698E+03  0.12509109979E+03 0.  0.
          5    1    3    3  502    0 -0.19812002813E+02 -0.71175915844E+02  0.70161135811E+01  0.74331855227E+02  0.41800000000E+01 0. -1.
         -5    1    3    3    0  502  0.12464318690E+03 -0.12171118035E+03 -0.56047581142E+02  0.18305283176E+03  0.41800000000E+01 0. -1.
        -11    1    1    2    0    0 -0.45413861451E+02  0.15910709470E+03 -0.18554525752E+03  0.24860516685E+03  0.00000000000E+00 0.  1.
         11    1    1    2    0    0 -0.59417322632E+02  0.33780001492E+02 -0.55332314326E+02  0.87938454263E+02  0.00000000000E+00 0. -1.
</event>
<event>
 7    1  0.2732144E-009  0.1247582E+03  0.7561462E-02  0.1235448E+00
          1   -1    0    0  501    0  0.00000000000E+00  0.00000000000E+00  0.15054004588E+03  0.15054004588E+03  0.00000000000E+00 0. -1.
         -1   -1    0    0    0  501 -0.00000000000E+00 -0.00000000000E+00 -0.17047196325E+03  0.17047196325E+03  0.00000000000E+00 0.  1.
         25    2    1    2    0    0 -0.63646106969E+02  0.73829498817E+02  0.53504889536E+02  0.16736901687E+03  0.12509193729E+03 0.  0.
          5    1    3    3  502    0 -0.68326185678E+02  0.81141658653E+02  0.84009294593E+02  0.13537898802E+03  0.41800000000E+01 0. -1.
         -5    1    3    3    0  502  0.46800787094E+01 -0.73121598354E+01 -0.30504405057E+02  0.31990028854E+02  0.41800000000E+01 0. -1.
        -11    1    1    2    0    0  0.85963768619E+02 -0.44301279377E+02 -0.43510800752E+02  0.10604509725E+03  0.00000000000E+00 0. -1.
         11    1    1    2    0    0 -0.22317661650E+02 -0.29528219440E+02 -0.29926006148E+02  0.47597895004E+02  0.00000000000E+00 0.  1.
</event>
<event>
 7    1  0.2732144E-009  0.1131538E+03  0.7561462E-02  0.1254839E+00
         -1   -1    0    0    0  501 -0.00000000000E+00  0.00000000000E+00  0.52149662948E+02  0.52149662948E+02  0.00000000000E+00 0.  1.
          1   -1    0    0  501    0  0.00000000000E+00 -0.00000000000E+00 -0.38905366340E+03  0.38905366340E+03  0.00000000000E+00 0. -1.
         25    2    1    2    0    0 -0.89362708704E+01  0.57618815816E+02 -0.29680876688E+03  0.32732690109E+03  0.12509065197E+03 0.  0.
          5    1    3    3  502    0 -0.52071413063E+02 -0.12563394742E+01 -0.60367594664E+02  0.79841902112E+02  0.41800000000E+01 0.  1.
         -5    1    3    3    0  502  0.43135142193E+02  0.58875155290E+02 -0.23644117221E+03  0.24748499898E+03  0.41800000000E+01 0.  1.
        -11    1    1    2    0    0  0.40977961964E+02 -0.55292782681E+02 -0.94315731345E+01  0.69465385302E+02  0.00000000000E+00 0.  1.
         11    1    1    2    0    0 -0.32041691094E+02 -0.23260331350E+01 -0.30663660437E+02  0.44411039953E+02  0.00000000000E+00 0. -1.
</event>
<event>
 7    1  0.2732144E-009  0.2880610E+03  0.7561462E-02  0.1091366E+00
          1   -1    0    0  501    0  0.00000000000E+00  0.00000000000E+00  0.59599870141E+03  0.59599870141E+03  0.00000000000E+00 0. -1.
         -1   -1    0    0    0  501 -0.00000000000E+00 -0.00000000000E+00 -0.15157523101E+03  0.15157523101E+03  0.00000000000E+00 0.  1.
         25    2    1    2    0    0 -0.26294247395E+03  0.70521605169E+02  0.30835295700E+03  0.42993147789E+03  0.12508992040E+03 0.  0.
          5    1    3    3  502    0 -0.16281128767E+03 -0.14654351242E+02  0.13327790105E+03  0.21095671762E+03  0.41800000000E+01 0.  1.
         -5    1    3    3    0  502 -0.10013118628E+03  0.85175956411E+02  0.17507505595E+03  0.21897476027E+03  0.41800000000E+01 0.  1.
        -11    1    1    2    0    0  0.10013722191E+03  0.77395796870E+01  0.80300159864E+02  0.12859035726E+03  0.00000000000E+00 0. -1.
         11    1    1    2    0    0  0.16280525205E+03 -0.78261184856E+02  0.55770353544E+02  0.18905209727E+03  0.00000000000E+00 0.  1.
</event>
<event>
 7    1  0.2732144E-009  0.1804206E+03  0.7561462E-02  0.1167397E+00
          2   -1    0    0  501    0  0.00000000000E+00  0.00000000000E+00  0.51723182016E+03  0.51723182016E+03  0.00000000000E+00 0. -1.
         -2   -1    0    0    0  501 -0.00000000000E+00 -0.00000000000E+00 -0.77242618816E+02  0.77242618816E+02  0.00000000000E+00 0.  1.
         25    2    1    2    0    0 -0.14781382996E+03  0.55132364574E+01  0.34864528983E+03  0.39884809404E+03  0.12508772882E+03 0.  0.
          5    1    3    3  502    0 -0.15070827447E+03  0.40954353432E+02  0.30229804943E+03  0.34028198034E+03  0.41800000000E+01 0.  1.
         -5    1    3    3    0  502  0.28944445082E+01 -0.35441116975E+02  0.46347240398E+02  0.58566113700E+02  0.41800000000E+01 0.  1.
        -11    1    1    2    0    0  0.80428915939E+02  0.37627974648E+02  0.69288867677E+02  0.11263046737E+03  0.00000000000E+00 0. -1.
         11    1    1    2    0    0  0.67384914024E+02 -0.43141211105E+02  0.22055043839E+02  0.82995877563E+02  0.00000000000E+00 0.  1.
</event>
<event>
 7    1  0.2732144E-009  0.1802930E+03  0.7561462E-02  0.1167520E+00
          2   -1    0    0  501    0  0.00000000000E+00  0.00000000000E+00  0.54190894320E+03  0.54190894320E+03  0.00000000000E+00 0. -1.
         -2   -1    0    0    0  501 -0.00000000000E+00 -0.00000000000E+00 -0.72012764587E+02  0.72012764587E+02  0.00000000000E+00 0.  1.
         25    2    1    2    0    0  0.10695619133E+03 -0.12301330415E+03  0.28588415386E+03  0.35206163144E+03  0.12508294466E+03 0.  0.
          5    1    3    3  502    0  0.26013695285E+01  0.18271317044E+02  0.76127090535E+02  0.78443702509E+02  0.41800000000E+01 0.  1.
         -5    1    3    3    0  502  0.10435482180E+03 -0.14128462120E+03  0.20975706333E+03  0.27361792893E+03  0.41800000000E+01 0.  1.
        -11    1    1    2    0    0 -0.21876570439E+02  0.47148499102E+02  0.86299098121E+01  0.52688145205E+02  0.00000000000E+00 0. -1.
         11    1    1    2    0    0 -0.85079620887E+02  0.75864805049E+02  0.17538211494E+03  0.20917193114E+03  0.00000000000E+00 0.  1.
</event>
<event>
 7    1  0.2732144E-009  0.1477124E+03  0.7561462E-02  0.1203313E+00
          1   -1    0    0  501    0  0.00000000000E+00  0.00000000000E+00  0.11562277319E+04  0.11562277319E+04  0.00000000000E+00 0. -1.
         -1   -1    0    0    0  501 -0.00000000000E+00 -0.00000000000E+00 -0.27128714706E+02  0.27128714706E+02  0.00000000000E+00 0.  1.
         25    2    1    2    0    0  0.10406498372E+03  0.51031179918E+02  0.86083136820E+03  0.87755869225E+03  0.12507962149E+03 0.  0.
          5    1    3    3  502    0  0.24673248119E+02  0.81480022635E+02  0.44938180907E+03  0.45739397239E+03  0.41800000000E+01 0. -1.
         -5    1    3    3    0  502  0.79391735601E+02 -0.30448842717E+02  0.41144955913E+03  0.42016471986E+03  0.41800000000E+01 0. -1.
        -11    1    1    2    0    0 -0.95745347898E+02 -0.26784898955E+02  0.12238019039E+03  0.15767534194E+03  0.00000000000E+00 0.  1.
         11    1    1    2    0    0 -0.83196358223E+01 -0.24246280963E+02  0.14588745856E+03  0.14812241237E+03  0.00000000000E+00 0. -1.
</event>
<event>
 7    1  0.2732144E-009  0.1134448E+03  0.7561462E-02  0.1254320E+00
         -2   -1    0    0    0  501 -0.00000000000E+00  0.00000000000E+00  0.10866959542E+03  0.10866959542E+03  0.00000000000E+00 0. -1.
          2   -1    0    0  501    0  0.00000000000E+00 -0.00000000000E+00 -0.16069932803E+03  0.16069932803E+03  0.00000000000E+00 0.  1.
         25    2    1    2    0    0 -0.18339501470E+02  0.73251182451E+02 -0.24513454752E+02  0.14815513759E+03  0.12508781829E+03 0.  0.
          5    1    3    3  502    0  0.52848092862E+02  0.43334240090E+02 -0.16334783233E+02  0.70392292381E+02  0.41800000000E+01 0.  1.
         -5    1    3    3    0  502 -0.71187594332E+02  0.29916942361E+02 -0.81786715186E+01  0.77762845208E+02  0.41800000000E+01 0.  1.
        -11    1    1    2    0    0  0.23632207002E+02 -0.33566328898E+02 -0.57884349446E+02  0.70963212683E+02  0.00000000000E+00 0.  1.
         11    1    1    2    0    0 -0.52927055316E+01 -0.39684853552E+02  0.30368071588E+02  0.50250573184E+02  0.00000000000E+00 0. -1.
</event>
<event>
 7    1  0.2732144E-009  0.1323214E+03  0.7561462E-02  0.1224051E+00
         -2   -1    0    0    0  501 -0.00000000000E+00  0.00000000000E+00  0.19001545598E+02  0.19001545598E+02  0.00000000000E+00 0.  1.
          2   -1    0    0  501    0  0.00000000000E+00 -0.00000000000E+00 -0.11367155146E+04  0.11367155146E+04  0.00000000000E+00 0. -1.
         25    2    1    2    0    0  0.44048471367E+02  0.81149210697E+02 -0.73449404838E+03  0.75076907853E+03  0.12508892813E+03 0.  0.
          5    1    3    3  502    0 -0.30625741719E+02  0.31023317187E+02 -0.90804282390E+02  0.10081305652E+03  0.41800000000E+01 0. -1.
         -5    1    3    3    0  502  0.74674213086E+02  0.50125893509E+02 -0.64368976599E+03  0.64995602200E+03  0.41800000000E+01 0. -1.
        -11    1    1    2    0    0 -0.62136081577E+02 -0.17367624348E+02 -0.19457691236E+03  0.20499439464E+03  0.00000000000E+00 0. -1.
         11    1    1    2    0    0  0.18087610210E+02 -0.63781586349E+02 -0.18864300822E+03  0.19995358700E+03  0.00000000000E+00 0.  1.
</event>
<event>
 7    1  0.2732144E-009  0.1143909E+03  0.7561462E-02  0.1252648E+00
          2   -1    0    0  501    0  0.00000000000E+00  0.00000000000E+00  0.80510069805E+02  0.80510069805E+02  0.00000000000E+00 0. -1.
         -2   -1    0    0    0  501 -0.00000000000E+00 -0.00000000000E+00 -0.18277999963E+03  0.18277999963E+03  0.00000000000E+00 0.  1.
         25    2    1    2    0    0 -0.45262947514E+02  0.26647117654E+02 -0.50850186278E+02  0.14488609727E+03  0.12508971357E+03 0.  0.
          5    1    3    3  502    0  0.43068769896E+02  0.76052609182E-01 -0.14190573227E+02  0.45538659322E+02  0.41800000000E+01 0.  1.
         -5    1    3    3    0  502 -0.88331717410E+02  0.26571065045E+02 -0.36659613051E+02  0.99347437950E+02  0.41800000000E+01 0.  1.
        -11    1    1    2    0    0  0.43299469898E+02  0.19142867846E+02  0.27798888394E+01  0.47423847005E+02  0.00000000000E+00 0.  1.
         11    1    1    2    0    0  0.19634776156E+01 -0.45789985500E+02 -0.54199632383E+02  0.70980125154E+02  0.00000000000E+00 0. -1.
</event>
<event>
 7    1  0.2732144E-009  0.1496398E+03  0.7561462E-02  0.1200916E+00
         -4   -1    0    0    0  501 -0.00000000000E+00  0.00000000000E+00  0.93524674361E+02  0.93524674361E+02  0.00000000000E+00 0.  1.
          4   -1    0    0  501    0  0.00000000000E+00 -0.00000000000E+00 -0.32367563411E+03  0.32367563411E+03  0.00000000000E+00 0. -1.
         25    2    1    2    0    0  0.34829201977E+02  0.10887719171E+03 -0.21067608151E+03  0.27037434009E+03  0.12510218332E+03 0.  0.
          5    1    3    3  502    0  0.71519838320E+02  0.82155576026E+02 -0.19266339707E+03  0.22136233400E+03  0.41800000000E+01 0.  1.
         -5    1    3    3    0  502 -0.36690636343E+02  0.26721615681E+02 -0.18012684449E+02  0.49012006089E+02  0.41800000000E+01 0.  1.
        -11    1    1    2    0    0  0.26497693065E+02 -0.62244109681E+02 -0.16954243691E+02  0.69741689877E+02  0.00000000000E+00 0.  1.
         11    1    1    2    0    0 -0.61326895042E+02 -0.46633082026E+02 -0.25206345477E+01  0.77084278509E+02  0.00000000000E+00 0. -1.
</event>
<event>
 7    1  0.2732144E-009  0.1217997E+03  0.7561462E-02  0.1240157E+00
          2   -1    0    0  501    0  0.00000000000E+00  0.00000000000E+00  0.19212677843E+03  0.19212677843E+03  0.00000000000E+00 0. -1.
         -2   -1    0    0    0  501 -0.00000000000E+00 -0.00000000000E+00 -0.10490383811E+03  0.10490383811E+03  0.00000000000E+00 0.  1.
         25    2    1    2    0    0 -0.80829904604E+02  0.32140179129E+02  0.75934658854E+02  0.17023573892E+03  0.12509064633E+03 0.  0.
          5    1    3    3  502    0  0.27902663273E+02  0.32983537125E+02  0.18372727554E+02  0.47132810830E+02  0.41800000000E+01 0. -1.
         -5    1    3    3    0  502 -0.10873256788E+03 -0.84335799601E+00  0.57561931300E+02  0.12310292809E+03  0.41800000000E+01 0. -1.
        -11    1    1    2    0    0  0.24589773310E+02  0.34395040127E+01 -0.37009209379E+02  0.44566452833E+02  0.00000000000E+00 0.  1.
         11    1    1    2    0    0  0.56240131294E+02 -0.35579683142E+02  0.48297490845E+02  0.82228424783E+02  0.00000000000E+00 0. -1.
</event>
<event>
 7    1  0.2732144E-009  0.8124110E+02  0.7561462E-02  0.1325566E+00
          1   -1    0    0  501    0  0.00000000000E+00  0.00000000000E+00  0.34912744033E+03  0.34912744033E+03  0.00000000000E+00 0. -1.
         -1   -1    0    0    0  501 -0.00000000000E+00 -0.00000000000E+00 -0.42693726401E+02  0.42693726401E+02  0.00000000000E+00 0.  1.
         25    2    1    2    0    0 -0.22992043989E+02  0.12259527696E+02  0.10037658266E+03  0.16248486255E+03  0.12508773763E+03 0.  0.
          5    1    3    3  502    0 -0.61008891129E+02  0.27854141853E+02  0.10084135258E+03  0.12117915994E+03  0.41800000000E+01 0.  1.
         -5    1    3    3    0  502  0.38016847139E+02 -0.15594614156E+02 -0.46476991254E+00  0.41305702611E+02  0.41800000000E+01 0.  1.
        -11    1    1    2    0    0  0.39052786025E+01  0.17883254442E+02 -0.18428471760E+01  0.18397230121E+02  0.00000000000E+00 0.  1.
         11    1    1    2    0    0  0.19086765387E+02 -0.30142782138E+02  0.20789997844E+03  0.21093907405E+03  0.00000000000E+00 0. -1.
</event>
<event>
 7    1  0.2732144E-009  0.1023255E+03  0.7561462E-02  0.1275480E+00
          1   -1    0    0  501    0  0.00000000000E+00  0.00000000000E+00  0.14508123023E+04  0.14508123023E+04  0.00000000000E+00 0.  1.
         -1   -1    0    0    0  501 -0.00000000000E+00 -0.00000000000E+00 -0.15436892977E+02  0.15436892977E+02  0.00000000000E+00 0. -1.
         25    2    1    2    0    0 -0.18101448492E+02 -0.46766614224E+02  0.12353910475E+04  0.12427204649E+04  0.12509330500E+03 0.  0.
          5    1    3    3  502    0 -0.50375866780E+02 -0.75481238273E+02  0.88561471986E+03  0.89026178719E+03  0.41800000000E+01 0.  1.
         -5    1    3    3    0  502  0.32274418288E+02  0.28714624049E+02  0.34977632767E+03  0.35245867773E+03  0.41800000000E+01 0.  1.
        -11    1    1    2    0    0  0.31229085846E+02  0.12370514445E+02  0.17692919725E+03  0.18008949517E+03  0.00000000000E+00 0.  1.
         11    1    1    2    0    0 -0.13127637354E+02  0.34396099779E+02  0.23055164551E+02  0.43439235203E+02  0.00000000000E+00 0. -1.
</event>
<event>
 7    1  0.2732144E-009  0.4597791E+03  0.7561462E-02  0.1024845E+00
         -4   -1    0    0    0  501 -0.00000000000E+00  0.00000000000E+00  0.21357117256E+03  0.21357117256E+03  0.00000000000E+00 0.  1.
          4   -1    0    0  501    0  0.00000000000E+00 -0.00000000000E+00 -0.15615738284E+04  0.15615738284E+04  0.00000000000E+00 0. -1.
         25    2    1    2    0    0  0.28302686690E+03  0.35440067047E+03 -0.12007171218E+04  0.12896021176E+04  0.12509185657E+03 0.  0.
          5    1    3    3  502    0  0.22268263211E+02  0.66269623107E+02 -0.98358765245E+02  0.12074542473E+03  0.41800000000E+01 0. -1.
         -5    1    3    3    0  502  0.26075860369E+03  0.28813104736E+03 -0.11023583565E+04  0.11688566929E+04  0.41800000000E+01 0. -1.
        -11    1    1    2    0    0 -0.23554617327E+03 -0.23648147908E+03 -0.87424052360E+02  0.34503399053E+03  0.00000000000E+00 0.  1.
         11    1    1    2    0    0 -0.47480693633E+02 -0.11791919139E+03 -0.59861481671E+02  0.14050889279E+03  0.00000000000E+00 0. -1.
</event>
<event>
 7    1  0.2732144E-009  0.1698463E+03  0.7561462E-02  0.1178008E+00
         -2   -1    0    0    0  501 -0.00000000000E+00  0.00000000000E+00  0.54949647799E+02  0.54949647799E+02  0.00000000000E+00 0.  1.
          2   -1    0    0  501    0  0.00000000000E+00 -0.00000000000E+00 -0.62824498929E+03  0.62824498929E+03  0.00000000000E+00 0. -1.
         25    2    1    2    0    0 -0.32981370367E+02  0.14031275211E+03 -0.38017625739E+03  0.42539036953E+03  0.12509012996E+03 0.  0.
          5    1    3    3  502    0 -0.67297012828E+02  0.33655583191E+02 -0.19316399235E+03  0.20734364364E+03  0.41800000000E+01 0. -1.
         -5    1    3    3    0  502  0.34315642462E+02  0.10665716892E+03 -0.18701226503E+03  0.21804672589E+03  0.41800000000E+01 0. -1.
        -11    1    1    2    0    0 -0.12952451831E+02 -0.27060626488E+02 -0.99299791327E+02  0.10373279169E+03  0.00000000000E+00 0. -1.
         11    1    1    2    0    0  0.45933822198E+02 -0.11325212562E+03 -0.93819292777E+02  0.15407147587E+03  0.00000000000E+00 0.  1.
</event>
<event>
 7    1  0.2732144E-009  0.1210839E+03  0.7561462E-02  0.1241320E+00
          2   -1    0    0  501    0  0.00000000000E+00  0.00000000000E+00  0.84259823417E+03  0.84259823417E+03  0.00000000000E+00 0.  1.
         -2   -1    0    0    0  501 -0.00000000000E+00 -0.00000000000E+00 -0.20927932968E+02  0.20927932968E+02  0.00000000000E+00 0. -1.
         25    2    1    2    0    0  0.39552883240E+02 -0.53332130102E+02  0.58081903730E+03  0.59783561376E+03  0.12509164770E+03 0.  0.
          5    1    3    3  502    0  0.57220500129E+02 -0.85542658673E+02  0.46442757521E+03  0.47571228396E+03  0.41800000000E+01 0. -1.
         -5    1    3    3    0  502 -0.17667616889E+02  0.32210528571E+02  0.11639146208E+03  0.12212332981E+03  0.41800000000E+01 0. -1.
        -11    1    1    2    0    0 -0.19376318367E+02  0.72086578778E+02  0.11678168618E+03  0.13859970700E+03  0.00000000000E+00 0. -1.
         11    1    1    2    0    0 -0.20176564873E+02 -0.18754448676E+02  0.12406957772E+03  0.12709084637E+03  0.00000000000E+00 0.  1.
</event>
<event>
 7    1  0.2732144E-009  0.1602250E+03  0.7561462E-02  0.1188443E+00
          2   -1    0    0  501    0  0.00000000000E+00  0.00000000000E+00  0.85629360600E+03  0.85629360600E+03  0.00000000000E+00 0. -1.
         -2   -1    0    0    0  501 -0.00000000000E+00 -0.00000000000E+00 -0.31301751188E+02  0.31301751188E+02  0.00000000000E+00 0.  1.
         25    2    1    2    0    0  0.66497369161E+02 -0.10154352636E+03  0.38451918500E+03  0.42217446262E+03  0.12507312024E+03 0.  0.
          5    1    3    3  502    0 -0.10809370488E+02  0.22647679158E+02  0.35137838989E+02  0.43380871250E+02  0.41800000000E+01 0. -1.
         -5    1    3    3    0  502  0.77306739650E+02 -0.12419120552E+03  0.34938134601E+03  0.37879359137E+03  0.41800000000E+01 0. -1.
        -11    1    1    2    0    0  0.18772231766E+02  0.41669910329E+01  0.84121651721E+02  0.86291440989E+02  0.00000000000E+00 0.  1.
         11    1    1    2    0    0 -0.85269600927E+02  0.97376535329E+02  0.35635101809E+03  0.37912945358E+03  0.00000000000E+00 0. -1.
</event>
<event>
 7    1  0.2732144E-009  0.1509509E+03  0.7561462E-02  0.1199309E+00
          1   -1    0    0  501    0  0.00000000000E+00  0.00000000000E+00  0.10364510647E+04  0.10364510647E+04  0.00000000000E+00 0. -1.
         -1   -1    0    0    0  501 -0.00000000000E+00 -0.00000000000E+00 -0.44241872367E+02  0.44241872367E+02  0.00000000000E+00 0.  1.
         25    2    1    2    0    0  0.12672122325E+03 -0.59518301643E+02  0.84317400636E+03  0.86382358966E+03  0.12509233550E+03 0.  0.
          5    1    3    3  502    0  0.84760140719E+02 -0.76707880424E+02  0.76376454709E+03  0.77228371482E+03  0.41800000000E+01 0.  1.
         -5    1    3    3    0  502  0.41961082528E+02  0.17189578781E+02  0.79409459269E+02  0.91539874847E+02  0.41800000000E+01 0.  1.
        -11    1    1    2    0    0 -0.11125271115E+03  0.60183096566E+02  0.88471545428E+02  0.15435797744E+03  0.00000000000E+00 0.  1.
         11    1    1    2    0    0 -0.15468512101E+02 -0.66479492265E+00  0.60563640583E+02  0.62511370002E+02  0.00000000000E+00 0. -1.
</event>
<event>
 7    1  0.2732144E-009  0.1452975E+03  0.7561462E-02  0.1206373E+00
         -2   -1    0    0    0  501 -0.00000000000E+00  0.00000000000E+00  0.59665315481E+02  0.59665315481E+02  0.00000000000E+00 0. -1.
          2   -1    0    0  501    0  0.00000000000E+00 -0.00000000000E+00 -0.78347568671E+03  0.78347568671E+03  0.00000000000E+00 0.  1.
         25    2    1    2    0    0  0.91745476574E+02  0.75796670601E+02 -0.65693340164E+03  0.67924594728E+03  0.12510473595E+03 0.  0.
          5    1    3    3  502    0  0.36121105088E+02 -0.32934519492E+02 -0.15133759171E+03  0.15909103014E+03  0.41800000000E+01 0.  1.
         -5    1    3    3    0  502  0.55624371486E+02  0.10873119009E+03 -0.50559580993E+03  0.52015491714E+03  0.41800000000E+01 0.  1.
        -11    1    1    2    0    0 -0.61575756230E+02 -0.45401871539E+02  0.87308735456E+01  0.77000856148E+02  0.00000000000E+00 0. -1.
         11    1    1    2    0    0 -0.30169720343E+02 -0.30394799062E+02 -0.75607843139E+02  0.86894198769E+02  0.00000000000E+00 0.  1.
</event>
<event>
 7    1  0.2732144E-009  0.1097572E+03  0.7561462E-02  0.1261020E+00
         -1   -1    0    0    0  501 -0.00000000000E+00  0.00000000000E+00  0.20380476951E+03  0.20380476951E+03  0.00000000000E+00 0.  1.
          1   -1    0    0  501    0  0.00000000000E+00 -0.00000000000E+00 -0.68548526560E+02  0.68548526560E+02  0.00000000000E+00 0. -1.
         25    2    1    2    0    0  0.31176490773E+02  0.39323566198E+02  0.73370071927E+02  0.15345591222E+03  0.12508890081E+03 0.  0.
          5    1    3    3  502    0 -0.28506951879E+02  0.55436027788E+02  0.73387015629E+01  0.62905710576E+02  0.41800000000E+01 0.  1.
         -5    1    3    3    0  502  0.59683442652E+02 -0.16112461591E+02  0.66031370364E+02  0.90550201642E+02  0.41800000000E+01 0.  1.
        -11    1    1    2    0    0 -0.39771539722E+02 -0.60398367173E+02  0.26896900673E+02  0.77156862267E+02  0.00000000000E+00 0. -1.
         11    1    1    2    0    0  0.85950489490E+01  0.21074800976E+02  0.34989270352E+02  0.41740521587E+02  0.00000000000E+00 0.  1.
</event>
<event>
 7    1  0.2732144E-009  0.1282418E+03  0.7561462E-02  0.1230088E+00
         -1   -1    0    0    0  501 -0.00000000000E+00  0.00000000000E+00  0.48100278820E+02  0.48100278820E+02  0.00000000000E+00 0.  1.
          1   -1    0    0  501    0  0.00000000000E+00 -0.00000000000E+00 -0.79339894773E+03  0.79339894773E+03  0.00000000000E+00 0. -1.
         25    2    1    2    0    0  0.79742809897E+02  0.39012486748E+02 -0.68071360956E+03  0.69778200205E+03  0.12509122388E+03 0.  0.
          5    1    3    3  502    0  0.26130802863E+01 -0.26954606435E+02 -0.36725146570E+03  0.36827230476E+03  0.41800000000E+01 0. -1.
         -5    1    3    3    0  502  0.77129729611E+02  0.65967093183E+02 -0.31346214386E+03  0.32950969729E+03  0.41800000000E+01 0. -1.
        -11    1    1    2    0    0 -0.49993041407E+02 -0.69036477013E+02 -0.35094021723E+02  0.92178792073E+02  0.00000000000E+00 0. -1.
         11    1    1    2    0    0 -0.29749768491E+02  0.30023990264E+02 -0.29491037625E+02  0.51538432425E+02  0.00000000000E+00 0.  1.
</event>
<event>
 7    1  0.2732144E-009  0.9324910E+02  0.7561462E-02  0.1295169E+00
         -1   -1    0    0    0  501 -0.00000000000E+00  0.00000000000E+00  0.85649840279E+02  0.85649840279E+02  0.00000000000E+00 0.  1.
          1   -1    0    0  501    0  0.00000000000E+00 -0.00000000000E+00 -0.14616781152E+03  0.14616781152E+03  0.00000000000E+00 0. -1.
         25    2    1    2    0    0  0.13702235908E+02 -0.14374627127E+02 -0.60840186962E+02  0.14050938841E+03  0.12508788394E+03 0.  0.
          5    1    3    3  502    0  0.46419296909E+02  0.21483391297E+02  0.12163038017E+02  0.52741815678E+02  0.41800000000E+01 0. -1.
         -5    1    3    3    0  502 -0.32717061001E+02 -0.35858018423E+02 -0.73003224979E+02  0.87767572731E+02  0.41800000000E+01 0. -1.
        -11    1    1    2    0    0 -0.14290243324E+02 -0.34623177503E+02  0.14705448891E+02  0.40239603648E+02  0.00000000000E+00 0.  1.
         11    1    1    2    0    0  0.58800741591E+00  0.48997804629E+02 -0.14383233167E+02  0.51068659739E+02  0.00000000000E+00 0. -1.
</event>
<event>
 7    1  0.2732144E-009  0.1095934E+03  0.7561462E-02  0.1261325E+00
         -4   -1    0    0    0  501 -0.00000000000E+00  0.00000000000E+00  0.25542725962E+02  0.25542725962E+02  0.00000000000E+00 0.  1.
          4   -1    0    0  501    0  0.00000000000E+00 -0.00000000000E+00 -0.50752999645E+03  0.50752999645E+03  0.00000000000E+00 0. -1.
         25    2    1    2    0    0  0.19704435223E+02 -0.13392062061E+02 -0.21874930025E+03  0.25311339602E+03  0.12509005873E+03 0.  0.
          5    1    3    3  502    0 -0.19682286658E+02 -0.59922595940E+02 -0.83733167218E+02  0.10491341956E+03  0.41800000000E+01 0. -1.
         -5    1    3    3    0  502  0.39386721881E+02  0.46530533879E+02 -0.13501613303E+03  0.14819997646E+03  0.41800000000E+01 0. -1.
        -11    1    1    2    0    0 -0.56489312570E+01  0.52763844321E+02 -0.13384925903E+03  0.14398457499E+03  0.00000000000E+00 0. -1.
         11    1    1    2    0    0 -0.14055503966E+02 -0.39371782259E+02 -0.12938871122E+03  0.13597475141E+03  0.00000000000E+00 0.  1.
</event>
<event>
 7    1  0.2732144E-009  0.1401437E+03  0.7561462E-02  0.1213136E+00
         -2   -1    0    0    0  501 -0.00000000000E+00  0.00000000000E+00  0.12803534067E+03  0.12803534067E+03  0.00000000000E+00 0.  1.
          2   -1    0    0  501    0  0.00000000000E+00 -0.00000000000E+00 -0.20269709030E+03  0.20269709030E+03  0.00000000000E+00 0. -1.
         25    2    1    2    0    0 -0.93001925451E+02 -0.58869780304E+02 -0.20080019249E+02  0.16782428253E+03  0.12508706353E+03 0.  0.
          5    1    3    3  502    0 -0.13181842690E+01 -0.30478656777E+02 -0.57095894029E+02  0.64869866993E+02  0.41800000000E+01 0.  1.
         -5    1    3    3    0  502 -0.91683741182E+02 -0.28391123527E+02  0.37015874780E+02  0.10295441553E+03  0.41800000000E+01 0.  1.
        -11    1    1    2    0    0  0.11701217654E+03  0.43090628201E+02 -0.46224473339E+02  0.13298629115E+03  0.00000000000E+00 0.  1.
         11    1    1    2    0    0 -0.24010251091E+02  0.15779152103E+02 -0.83572570480E+01  0.29921857294E+02  0.00000000000E+00 0. -1.
</event>
<event>
 7    1  0.2732144E-009  0.1488590E+03  0.7561462E-02  0.1201882E+00
          1   -1    0    0  501    0  0.00000000000E+00  0.00000000000E+00  0.30021993445E+03  0.30021993445E+03  0.00000000000E+00 0. -1.
         -1   -1    0    0    0  501 -0.00000000000E+00 -0.00000000000E+00 -0.10352567071E+03  0.10352567071E+03  0.00000000000E+00 0.  1.
         25    2    1    2    0    0 -0.11185984662E+03  0.12250575910E+02  0.11515501646E+02  0.16865092548E+03  0.12509127065E+03 0.  0.
          5    1    3    3  502    0  0.43598382971E+01 -0.32528192937E+02 -0.21844251316E+02  0.39645116235E+02  0.41800000000E+01 0. -1.
         -5    1    3    3    0  502 -0.11621968492E+03  0.44778768847E+02  0.33359752961E+02  0.12900580925E+03  0.41800000000E+01 0. -1.
        -11    1    1    2    0    0  0.69095485475E+02  0.34014295128E+02  0.71307710049E+02  0.10495688590E+03  0.00000000000E+00 0.  1.
         11    1    1    2    0    0  0.42764361146E+02 -0.46264871038E+02  0.11387105204E+03  0.13013779378E+03  0.00000000000E+00 0. -1.
</event>
<event>
 7    1  0.2732144E-009  0.7910990E+02  0.7561462E-02  0.1331597E+00
          4   -1    0    0  501    0  0.00000000000E+00  0.00000000000E+00  0.25019430171E+03  0.25019430171E+03  0.00000000000E+00 0. -1.
         -4   -1    0    0    0  501 -0.00000000000E+00 -0.00000000000E+00 -0.54359857415E+02  0.54359857415E+02  0.00000000000E+00 0.  1.
         25    2    1    2    0    0  0.32042941271E+02 -0.28773782270E+02  0.10258554003E+03  0.16742417098E+03  0.12510946956E+03 0.  0.
          5    1    3    3  502    0  0.18589094901E+02  0.13457932198E+02  0.11802134596E+03  0.12030453395E+03  0.41800000000E+01 0. -1.
         -5    1    3    3    0  502  0.13453846370E+02 -0.42231714468E+02 -0.15435805929E+02  0.47119637029E+02  0.41800000000E+01 0. -1.
        -11    1    1    2    0    0  0.12951007318E+02  0.41614289826E+02  0.75323416257E+02  0.87023529835E+02  0.00000000000E+00 0. -1.
         11    1    1    2    0    0 -0.44993948589E+02 -0.12840507556E+02  0.17925488014E+02  0.50106458311E+02  0.00000000000E+00 0.  1.
</event>
<event>
 7    1  0.2732144E-009  0.9771197E+02  0.7561462E-02  0.1285182E+00
         -2   -1    0    0    0  501 -0.00000000000E+00  0.00000000000E+00  0.35939355305E+02  0.35939355305E+02  0.00000000000E+00 0.  1.
          2   -1    0    0  501    0  0.00000000000E+00 -0.00000000000E+00 -0.50133217436E+03  0.50133217436E+03  0.00000000000E+00 0. -1.
         25    2    1    2    0    0 -0.34273161244E+02  0.65461111130E+02 -0.20078058691E+03  0.24783354476E+03  0.12509522443E+03 0.  0.
          5    1    3    3  502    0 -0.16736948499E+02  0.10227698840E+02 -0.18706328253E+03  0.18813525810E+03  0.41800000000E+01 0.  1.
         -5    1    3    3    0  502 -0.17536212745E+02  0.55233412290E+02 -0.13717304379E+02  0.59698286659E+02  0.41800000000E+01 0.  1.
        -11    1    1    2    0    0  0.51390412697E+01 -0.83068005844E+02 -0.18970744665E+03  0.20716085213E+03  0.00000000000E+00 0.  1.
         11    1    1    2    0    0  0.29134119975E+02  0.17606894714E+02 -0.74904785494E+02  0.82277132778E+02  0.00000000000E+00 0. -1.
</event>
<event>
 7    1  0.2732144E-009  0.1058145E+03  0.7561462E-02  0.1268523E+00
         -1   -1    0    0    0  501 -0.00000000000E+00  0.00000000000E+00  0.28169316327E+03  0.28169316327E+03  0.00000000000E+00 0.  1.
          1   -1    0    0  501    0  0.00000000000E+00 -0.00000000000E+00 -0.49831657227E+02  0.49831657227E+02  0.00000000000E+00 0. -1.
         25    2    1    2    0    0 -0.39874313322E+02 -0.34502925248E+02  0.14177262087E+03  0.19628538776E+03  0.12509222481E+03 0.  0.
          5    1    3    3  502    0  0.30229638617E+02 -0.54556005814E+02  0.70773041928E+02  0.94427139558E+02  0.41800000000E+01 0.  1.
         -5    1    3    3    0  502 -0.70103951939E+02  0.20053080566E+02  0.70999578939E+02  0.10185824820E+03  0.41800000000E+01 0.  1.
        -11    1    1    2    0    0  0.38132146695E+02 -0.32673966072E+01  0.89593708797E+02  0.97425710919E+02  0.00000000000E+00 0.  1.
         11    1    1    2    0    0  0.17421666271E+01  0.37770321855E+02  0.49517637497E+00  0.37813721812E+02  0.00000000000E+00 0. -1.
</event>
<event>
 7    1  0.2732144E-009  0.7072609E+02  0.7561462E-02  0.1357641E+00
          1   -1    0    0  501    0  0.00000000000E+00  0.00000000000E+00  0.57679506651E+02  0.57679506651E+02  0.00000000000E+00 0. -1.
         -1   -1    0    0    0  501 -0.00000000000E+00 -0.00000000000E+00 -0.23116403009E+03  0.23116403009E+03  0.00000000000E+00 0.  1.
         25    2    1    2    0    0 -0.18078376747E+01  0.10003310991E+02 -0.48731309904E+02  0.13463154538E+03  0.12509027915E+03 0.  0.
          5    1    3    3  502    0 -0.20046026264E+01 -0.36054372461E+02 -0.73624982195E+02  0.82109966560E+02  0.41800000000E+01 0.  1.
         -5    1    3    3    0  502  0.19676495173E+00  0.46057683452E+02  0.24893672292E+02  0.52521578819E+02  0.41800000000E+01 0.  1.
        -11    1    1    2    0    0  0.22057578439E+02 -0.25233871367E+02 -0.12443743070E+03  0.12887187122E+03  0.00000000000E+00 0.  1.
         11    1    1    2    0    0 -0.20249740765E+02  0.15230560376E+02 -0.31578283624E+00  0.25340120149E+02  0.00000000000E+00 0. -1.
</event>
<event>
 7    1  0.3897555E-009  0.8771531E+02  0.7561462E-02  0.1308481E+00
          1   -1    0    0  501    0  0.00000000000E+00  0.00000000000E+00  0.11467104416E+04  0.11467104416E+04  0.00000000000E+00 0. -1.
         -1   -1    0    0    0  501 -0.00000000000E+00 -0.00000000000E+00 -0.12201439891E+02  0.12201439891E+02  0.00000000000E+00 0.  1.
         25    2    1    2    0    0  0.43178242742E+02  0.10070783120E+02  0.72462260883E+03  0.73667505619E+03  0.12508569807E+03 0.  0.
          5    1    3    3  502    0  0.40209857394E+02 -0.21524986038E+02  0.87614029923E+02  0.98862775072E+02  0.41800000000E+01 0. -1.
         -5    1    3    3    0  502  0.29683853478E+01  0.31595769158E+02  0.63700857891E+03  0.63781228112E+03  0.41800000000E+01 0. -1.
        -11    1    1    2    0    0 -0.12063485895E+02 -0.47465856768E+02  0.14866067221E+03  0.15652006489E+03  0.00000000000E+00 0.  1.
         11    1    1    2    0    0 -0.31114756847E+02  0.37395073648E+02  0.26122572065E+03  0.26571676040E+03  0.00000000000E+00 0. -1.
</event>
<event>
 7    1  0.2732144E-009  0.6301044E+02  0.7561462E-02  0.1385616E+00
          2   -1    0    0  501    0  0.00000000000E+00  0.00000000000E+00  0.61653171274E+02  0.61653171274E+02  0.00000000000E+00 0. -1.
         -2   -1    0    0    0  501 -0.00000000000E+00 -0.00000000000E+00 -0.23332382689E+03  0.23332382689E+03  0.00000000000E+00 0.  1.
         25    2    1    2    0    0 -0.29117467024E+02  0.24582387643E+02 -0.96933594513E+02  0.16276895293E+03  0.12508193165E+03 0.  0.
          5    1    3    3  502    0 -0.15445306857E+02  0.35385710704E+02  0.20542687823E+02  0.43933818966E+02  0.41800000000E+01 0. -1.
         -5    1    3    3    0  502 -0.13672160167E+02 -0.10803323061E+02 -0.11747628234E+03  0.11883513396E+03  0.41800000000E+01 0. -1.
        -11    1    1    2    0    0  0.27356652000E+02 -0.42891157713E+02  0.43045624653E+01  0.51054550009E+02  0.00000000000E+00 0. -1.
         11    1    1    2    0    0  0.17608150232E+01  0.18308770070E+02 -0.79041623570E+02  0.81153495227E+02  0.00000000000E+00 0.  1.
</event>
<event>
 7    1  0.3298204E-009  0.1302247E+03  0.7561462E-02  0.1227123E+00
         -2   -1    0    0    0  501 -0.00000000000E+00  0.00000000000E+00  0.27773125324E+02  0.27773125324E+02  0.00000000000E+00 0.  1.
          2   -1    0    0  501    0  0.00000000000E+00 -0.00000000000E+00 -0.10785704335E+04  0.10785704335E+04  0.00000000000E+00 0. -1.
         25    2    1    2    0    0  0.71015759609E+02 -0.88671991698E+02 -0.79033825833E+03  0.80820095337E+03  0.12509299828E+03 0.  0.
          5    1    3    3  502    0 -0.96032142927E+01 -0.59824745821E+02 -0.14517804973E+03  0.15737013841E+03  0.41800000000E+01 0.  1.
         -5    1    3    3    0  502  0.80618973902E+02 -0.28847245877E+02 -0.64516020860E+03  0.65083081496E+03  0.41800000000E+01 0.  1.
        -11    1    1    2    0    0 -0.51150895740E+02  0.56846111433E+02 -0.68862190548E+02  0.10290721941E+03  0.00000000000E+00 0.  1.
         11    1    1    2    0    0 -0.19864863869E+02  0.31825880265E+02 -0.19159685928E+03  0.19523538603E+03  0.00000000000E+00 0. -1.
</event>
<event>
 7    1  0.2732144E-009  0.1202097E+03  0.7561462E-02  0.1242752E+00
         -2   -1    0    0    0  501 -0.00000000000E+00  0.00000000000E+00  0.21768945389E+02  0.21768945389E+02  0.00000000000E+00 0.  1.
          2   -1    0    0  501    0  0.00000000000E+00 -0.00000000000E+00 -0.96943453581E+03  0.96943453581E+03  0.00000000000E+00 0. -1.
         25    2    1    2    0    0  0.56532128623E+02  0.82578738226E+00 -0.77954648311E+03  0.79154039071E+03  0.12508759852E+03 0.  0.
          5    1    3    3  502    0  0.22315739839E+02  0.60845004862E+02 -0.46171355281E+03  0.46625849494E+03  0.41800000000E+01 0. -1.
         -5    1    3    3    0  502  0.34216388784E+02 -0.60019217480E+02 -0.31783293031E+03  0.32528189577E+03  0.41800000000E+01 0. -1.
        -11    1    1    2    0    0 -0.83342182338E+01  0.41371733371E+02 -0.51262904266E+02  0.66400036668E+02  0.00000000000E+00 0.  1.
         11    1    1    2    0    0 -0.48197910389E+02 -0.42197520754E+02 -0.11685620304E+03  0.13326305382E+03  0.00000000000E+00 0. -1.
</event>
<event>
 7    1  0.2732144E-009  0.8212417E+02  0.7561462E-02  0.1323129E+00
         -2   -1    0    0    0  501 -0.00000000000E+00  0.00000000000E+00  0.12830319672E+03  0.12830319672E+03  0.00000000000E+00 0.  1.
          2   -1    0    0  501    0  0.00000000000E+00 -0.00000000000E+00 -0.91912459006E+02  0.91912459006E+02  0.00000000000E+00 0. -1.
         25    2    1    2    0    0  0.72553769478E+00  0.22151337830E+01  0.22560296803E+02  0.12712924039E+03  0.12508974198E+03 0.  0.
          5    1    3    3  502    0 -0.38578251813E+02 -0.11078256598E+02  0.59181625898E+02  0.71630625616E+02  0.41800000000E+01 0.  1.
         -5    1    3    3    0  502  0.39303789508E+02  0.13293390381E+02 -0.36621329094E+02  0.55498614777E+02  0.41800000000E+01 0.  1.
        -11    1    1    2    0    0  0.38708787274E+02  0.11598539702E+02 -0.14132422771E+02  0.42809131138E+02  0.00000000000E+00 0. -1.
         11    1    1    2    0    0 -0.39434324969E+02 -0.13813673485E+02  0.27962863684E+02  0.50277284198E+02  0.00000000000E+00 0.  1.
</event>
<event>
 7    1  0.2732144E-009  0.1871097E+03  0.7561462E-02  0.1161094E+00
          1   -1    0    0  501    0  0.00000000000E+00  0.00000000000E+00  0.14742787921E+04  0.14742787921E+04  0.00000000000E+00 0. -1.
         -1   -1    0    0    0  501 -0.00000000000E+00 -0.00000000000E+00 -0.27247692634E+02  0.27247692634E+02  0.00000000000E+00 0.  1.
         25    2    1    2    0    0  0.91081079518E+02 -0.13242429701E+03  0.56292259066E+03  0.59863253091E+03  0.12508839477E+03 0.  0.
          5    1    3    3  502    0 -0.24422988669E+02 -0.64122015027E+02  0.21416293704E+03  0.22492521244E+03  0.41800000000E+01 0.  1.
         -5    1    3    3    0  502  0.11550406819E+03 -0.68302281983E+02  0.34875965361E+03  0.37370731847E+03  0.41800000000E+01 0.  1.
        -11    1    1    2    0    0 -0.39407836616E+02  0.13665696252E+02  0.10306243972E+03  0.11118271144E+03  0.00000000000E+00 0.  1.
         11    1    1    2    0    0 -0.51673242902E+02  0.11875860076E+03  0.78104606907E+03  0.79171124237E+03  0.00000000000E+00 0. -1.
</event>
<event>
 7    1  0.3000894E-009  0.9840751E+02  0.7561462E-02  0.1283681E+00
         -1   -1    0    0    0  501 -0.00000000000E+00  0.00000000000E+00  0.42185776914E+02  0.42185776914E+02  0.00000000000E+00 0.  1.
          1   -1    0    0  501    0  0.00000000000E+00 -0.00000000000E+00 -0.53245416587E+03  0.53245416587E+03  0.00000000000E+00 0. -1.
         25    2    1    2    0    0  0.52196372753E+01 -0.63195977155E+02 -0.42159135314E+03  0.44430456871E+03  0.12508518932E+03 0.  0.
          5    1    3    3  502    0 -0.49033214588E+02 -0.15474790108E+02 -0.28591214700E+03  0.29052874808E+03  0.41800000000E+01 0. -1.
         -5    1    3    3    0  502  0.54252851863E+02 -0.47721187047E+02 -0.13567920615E+03  0.15377582063E+03  0.41800000000E+01 0. -1.
        -11    1    1    2    0    0  0.10929424902E+02  0.52161381347E+02  0.55428478852E+01  0.53581575148E+02  0.00000000000E+00 0.  1.
         11    1    1    2    0    0 -0.16149062177E+02  0.11034595808E+02 -0.74219883699E+02  0.76753798929E+02  0.00000000000E+00 0. -1.
</event>
<event>
 7    1  0.2732144E-009  0.1201456E+03  0.7561462E-02  0.1242857E+00
          1   -1    0    0  501    0  0.00000000000E+00  0.00000000000E+00  0.13240448744E+04  0.13240448744E+04  0.00000000000E+00 0. -1.
         -1   -1    0    0    0  501 -0.00000000000E+00 -0.00000000000E+00 -0.16935575425E+02  0.16935575425E+02  0.00000000000E+00 0.  1.
         25    2    1    2    0    0 -0.98566331871E+02  0.63675227435E+01  0.83057884704E+03  0.84573290291E+03  0.12508818803E+03 0.  0.
          5    1    3    3  502    0 -0.95952161637E+02  0.28601210570E+02  0.33589193785E+03  0.35052205763E+03  0.41800000000E+01 0.  1.
         -5    1    3    3    0  502 -0.26141702335E+01 -0.22233687827E+02  0.49468690919E+03  0.49521084528E+03  0.41800000000E+01 0.  1.
        -11    1    1    2    0    0 -0.21511862082E+01  0.14324439224E+02  0.10199742558E+02  0.17715866037E+02  0.00000000000E+00 0.  1.
         11    1    1    2    0    0  0.10071751808E+03 -0.20691961968E+02  0.46633070935E+03  0.47753168085E+03  0.00000000000E+00 0. -1.
</event>
<event>
 7    1  0.2732144E-009  0.1342233E+03  0.7561462E-02  0.1221320E+00
         -1   -1    0    0    0  501 -0.00000000000E+00  0.00000000000E+00  0.51861378469E+03  0.51861378469E+03  0.00000000000E+00 0.  1.
          1   -1    0    0  501    0  0.00000000000E+00 -0.00000000000E+00 -0.39743302378E+02  0.39743302378E+02  0.00000000000E+00 0. -1.
         25    2    1    2    0    0 -0.92581935433E+02  0.60675714733E+01  0.24208834974E+03  0.28785808969E+03  0.12508909036E+03 0.  0.
          5    1    3    3  502    0 -0.15898104177E+02  0.48359903338E+02  0.32162512244E+02  0.60359999678E+02  0.41800000000E+01 0. -1.
         -5    1    3    3    0  502 -0.76683831256E+02 -0.42292331864E+02  0.20992583750E+03  0.22749809002E+03  0.41800000000E+01 0. -1.
        -11    1    1    2    0    0  0.13468074744E+02 -0.41042937718E+02  0.95924869479E+02  0.10520214997E+03  0.00000000000E+00 0.  1.
         11    1    1    2    0    0  0.79113860689E+02  0.34975366244E+02  0.14085726309E+03  0.16529684740E+03  0.00000000000E+00 0. -1.
</event>
<event>
 7    1  0.2847861E-009  0.1101916E+03  0.7561462E-02  0.1260215E+00
         -2   -1    0    0    0  501 -0.00000000000E+00  0.00000000000E+00  0.39111553987E+02  0.39111553987E+02  0.00000000000E+00 0.  1.
          2   -1    0    0  501    0  0.00000000000E+00 -0.00000000000E+00 -0.39425723328E+03  0.39425723328E+03  0.00000000000E+00 0. -1.
         25    2    1    2    0    0 -0.47242237003E+01 -0.57076527912E+02 -0.16661427967E+03  0.21607380706E+03  0.12509006187E+03 0.  0.
          5    1    3    3  502    0  0.54787667690E+02 -0.55203557867E+02 -0.93867975712E+02  0.12197454897E+03  0.41800000000E+01 0. -1.
         -5    1    3    3    0  502 -0.59511891390E+02 -0.18729700455E+01 -0.72746303956E+02  0.94099258089E+02  0.41800000000E+01 0. -1.
        -11    1    1    2    0    0 -0.26983977938E+02  0.17788213376E+02 -0.15090954745E+03  0.15433161411E+03  0.00000000000E+00 0. -1.
         11    1    1    2    0    0  0.31708201639E+02  0.39288314536E+02 -0.37621852176E+02  0.62963366106E+02  0.00000000000E+00 0.  1.
</event>
<event>
 7    1  0.2732144E-009  0.1144045E+03  0.7561462E-02  0.1252624E+00
          1   -1    0    0  501    0  0.00000000000E+00  0.00000000000E+00  0.52849346909E+02  0.52849346909E+02  0.00000000000E+00 0. -1.
         -1   -1    0    0    0  501 -0.00000000000E+00 -0.00000000000E+00 -0.33639598068E+03  0.33639598068E+03  0.00000000000E+00 0.  1.
         25    2    1    2    0    0 -0.46151307555E+02 -0.42922904058E+02 -0.72331781289E+02  0.15764016029E+03  0.12508482990E+03 0.  0.
          5    1    3    3  502    0 -0.74905583273E+02 -0.65078011638E+02 -0.34738590044E+02  0.10521518922E+03  0.41800000000E+01 0.  1.
         -5    1    3    3    0  502  0.28754275719E+02  0.22155107580E+02 -0.37593191245E+02  0.52424971073E+02  0.41800000000E+01 0.  1.
        -11    1    1    2    0    0 -0.10110105514E+02 -0.11059235887E+02 -0.19138181731E+02  0.24306191225E+02  0.00000000000E+00 0. -1.
         11    1    1    2    0    0  0.56261413069E+02  0.53982139945E+02 -0.19207667075E+03  0.20729897607E+03  0.00000000000E+00 0.  1.
</event>
<event>
 7    1  0.2732144E-009  0.1331424E+03  0.7561462E-02  0.1222866E+00
          2   -1    0    0  501    0  0.00000000000E+00  0.00000000000E+00  0.24305435187E+03  0.24305435187E+03  0.00000000000E+00 0. -1.
         -2   -1    0    0    0  501 -0.00000000000E+00 -0.00000000000E+00 -0.95371314447E+02  0.95371314447E+02  0.00000000000E+00 0.  1.
         25    2    1    2    0    0  0.74863514275E+02  0.56607570747E+02  0.21184952022E+02  0.15781357363E+03  0.12508940400E+03 0.  0.
          5    1    3    3  502    0  0.73443897220E+02 -0.92748105389E+01  0.46021739384E+02  0.87266838177E+02  0.41800000000E+01 0.  1.
         -5    1    3    3    0  502  0.14196170544E+01  0.65882381286E+02 -0.24836787362E+02  0.70546735453E+02  0.41800000000E+01 0.  1.
        -11    1    1    2    0    0 -0.65751848588E+02  0.29896809725E+01  0.47184602125E+02  0.80985371906E+02  0.00000000000E+00 0. -1.
         11    1    1    2    0    0 -0.91116656864E+01 -0.59597251720E+02  0.79313483272E+02  0.99626720778E+02  0.00000000000E+00 0.  1.
</event>
<event>
 7    1  0.2732144E-009  0.8491751E+02  0.7561462E-02  0.1315648E+00
         -1   -1    0    0    0  501 -0.00000000000E+00  0.00000000000E+00  0.33670559788E+03  0.33670559788E+03  0.00000000000E+00 0.  1.
          1   -1    0    0  501    0  0.00000000000E+00 -0.00000000000E+00 -0.54417097209E+02  0.54417097209E+02  0.00000000000E+00 0. -1.
         25    2    1    2    0    0  0.32292824886E+02  0.37923864865E+02  0.62676233234E+02  0.14851821315E+03  0.12509317871E+03 0.  0.
          5    1    3    3  502    0  0.16040469585E+02  0.68698931916E+02  0.82193573913E+02  0.10839785931E+03  0.41800000000E+01 0.  1.
         -5    1    3    3    0  502  0.16252355301E+02 -0.30775067051E+02 -0.19517340679E+02  0.40120353837E+02  0.41800000000E+01 0.  1.
        -11    1    1    2    0    0  0.57768426121E+01 -0.22171209073E+02  0.42070070800E+01  0.23294491428E+02  0.00000000000E+00 0. -1.
         11    1    1    2    0    0 -0.38069667498E+02 -0.15752655792E+02  0.21540526035E+03  0.21930999051E+03  0.00000000000E+00 0.  1.
</event>
<event>
 7    1  0.2732144E-009  0.1142302E+03  0.7561462E-02  0.1252931E+00
          1   -1    0    0  501    0  0.00000000000E+00  0.00000000000E+00  0.21106173511E+02  0.21106173511E+02  0.00000000000E+00 0. -1.
         -1   -1    0    0    0  501 -0.00000000000E+00 -0.00000000000E+00 -0.66022205847E+03  0.66022205847E+03  0.00000000000E+00 0.  1.
         25    2    1    2    0    0 -0.16376860869E+02  0.37434391799E+02 -0.42341848909E+03  0.44339642941E+03  0.12509053303E+03 0.  0.
          5    1    3    3  502    0  0.51709796819E+02  0.57477188561E+00 -0.13173307542E+03  0.14158145715E+03  0.41800000000E+01 0. -1.
         -5    1    3    3    0  502 -0.68086657687E+02  0.36859619913E+02 -0.29168541367E+03  0.30181497226E+03  0.41800000000E+01 0. -1.
        -11    1    1    2    0    0  0.83335926105E+01 -0.67452516424E+02 -0.16524440272E+03  0.17867569327E+03  0.00000000000E+00 0.  1.
         11    1    1    2    0    0  0.80432682584E+01  0.30018124625E+02 -0.50452993156E+02  0.59256109294E+02  0.00000000000E+00 0. -1.
</event>
<event>
 7    1  0.2732144E-009  0.1442274E+03  0.7561462E-02  0.1207751E+00
         -2   -1    0    0    0  501 -0.00000000000E+00  0.00000000000E+00  0.64991459186E+03  0.64991459186E+03  0.00000000000E+00 0.  1.
          2   -1    0    0  501    0  0.00000000000E+00 -0.00000000000E+00 -0.37556903406E+02  0.37556903406E+02  0.00000000000E+00 0. -1.
         25    2    1    2    0    0 -0.11302254200E+03 -0.71210231890E+01  0.37548407723E+03  0.41165583410E+03  0.12508968590E+03 0.  0.
          5    1    3    3  502    0  0.18040558909E+02 -0.29027905108E+02  0.10017332502E+03  0.10592567435E+03  0.41800000000E+01 0.  1.
         -5    1    3    3    0  502 -0.13106310091E+03  0.21906881919E+02  0.27531075221E+03  0.30573015975E+03  0.41800000000E+01 0.  1.
        -11    1    1    2    0    0  0.97846223396E+02  0.21487914025E+02  0.23422703906E+03  0.25475070109E+03  0.00000000000E+00 0.  1.
         11    1    1    2    0    0  0.15176318607E+02 -0.14366890836E+02  0.26465721656E+01  0.21064960076E+02  0.00000000000E+00 0. -1.
</event>
<event>
 7    1  0.2830592E-009  0.1713160E+03  0.7561462E-02  0.1176482E+00
          2   -1    0    0  501    0  0.00000000000E+00  0.00000000000E+00  0.18486218985E+03  0.18486218985E+03  0.00000000000E+00 0. -1.
         -2   -1    0    0    0  501 -0.00000000000E+00 -0.00000000000E+00 -0.24901052901E+03  0.24901052901E+03  0.00000000000E+00 0.  1.
         25    2    1    2    0    0 -0.10643982459E+03  0.11974559019E+03 -0.12613232245E+03  0.23922275368E+03  0.12509884285E+03 0.  0.
          5    1    3    3  502    0 -0.19599022251E+01  0.57666504563E+02  0.77395265639E+01  0.58366425595E+02  0.41800000000E+01 0.  1.
         -5    1    3    3    0  502 -0.10447992236E+03  0.62079085629E+02 -0.13387184902E+03  0.18085632809E+03  0.41800000000E+01 0.  1.
        -11    1    1    2    0    0  0.79005358190E+02 -0.10678983003E+03  0.84377115298E+01  0.13310563247E+03  0.00000000000E+00 0.  1.
         11    1    1    2    0    0  0.27434466398E+02 -0.12955760166E+02  0.53546271766E+02  0.61544332705E+02  0.00000000000E+00 0. -1.
</event>
<event>
 7    1  0.2732144E-009  0.1086071E+03  0.7561462E-02  0.1263171E+00
         -2   -1    0    0    0  501 -0.00000000000E+00  0.00000000000E+00  0.28330468660E+02  0.28330468660E+02  0.00000000000E+00 0.  1.
          2   -1    0    0  501    0  0.00000000000E+00 -0.00000000000E+00 -0.94538418172E+03  0.94538418172E+03  0.00000000000E+00 0. -1.
         25    2    1    2    0    0  0.53854257348E+01  0.42999546853E+02 -0.83055866689E+03  0.84104314255E+03  0.12509158504E+03 0.  0.
          5    1    3    3  502    0 -0.47002734354E+02 -0.17949801661E+02 -0.38203213970E+03  0.38535370841E+03  0.41800000000E+01 0. -1.
         -5    1    3    3    0  502  0.52388160089E+02  0.60949348514E+02 -0.44852652719E+03  0.45568943415E+03  0.41800000000E+01 0. -1.
        -11    1    1    2    0    0  0.31966929775E+02 -0.36179505360E+02 -0.81013280616E+02  0.94307968080E+02  0.00000000000E+00 0. -1.
         11    1    1    2    0    0 -0.37352355510E+02 -0.68200414927E+01 -0.54817655497E+01  0.38363539743E+02  0.00000000000E+00 0.  1.
</event>
<event>
 7    1  0.2732144E-009  0.1174409E+03  0.7561462E-02  0.1247379E+00
          2   -1    0    0  501    0  0.00000000000E+00  0.00000000000E+00  0.28451878373E+03  0.28451878373E+03  0.00000000000E+00 0.  1.
         -2   -1    0    0    0  501 -0.00000000000E+00 -0.00000000000E+00 -0.11552279587E+03  0.11552279587E+03  0.00000000000E+00 0. -1.
         25    2    1    2    0    0  0.62001842378E+02  0.36835105911E+02  0.22848027129E+03  0.27028166388E+03  0.12509152638E+03 0.  0.
          5    1    3    3  502    0  0.16611162802E+02 -0.44204806363E+02  0.49193961296E+02  0.68319205669E+02  0.41800000000E+01 0. -1.
         -5    1    3    3    0  502  0.45390679575E+02  0.81039912274E+02  0.17928630999E+03  0.20196245821E+03  0.41800000000E+01 0. -1.
        -11    1    1    2    0    0 -0.51985085677E+02  0.42949878271E+01  0.52363843045E+01  0.52424381482E+02  0.00000000000E+00 0. -1.
         11    1    1    2    0    0 -0.10016756701E+02 -0.41130093738E+02 -0.64720667733E+02  0.77335534249E+02  0.00000000000E+00 0.  1.
</event>
<event>
 7    1  0.2732144E-009  0.1858951E+03  0.7561462E-02  0.1162217E+00
         -1   -1    0    0    0  501 -0.00000000000E+00  0.00000000000E+00  0.14738053019E+03  0.14738053019E+03  0.00000000000E+00 0.  1.
          1   -1    0    0  501    0  0.00000000000E+00 -0.00000000000E+00 -0.25219277986E+03  0.25219277986E+03  0.00000000000E+00 0. -1.
         25    2    1    2    0    0  0.66543255095E+01 -0.15826454635E+03 -0.67589095478E+02  0.21285177880E+03  0.12508256166E+03 0.  0.
          5    1    3    3  502    0 -0.58613179292E+02 -0.73269784286E+02 -0.22936528499E+02  0.96682587965E+02  0.41800000000E+01 0.  1.
         -5    1    3    3    0  502  0.65267504801E+02 -0.84994762065E+02 -0.44652566979E+02  0.11616919083E+03  0.41800000000E+01 0.  1.
        -11    1    1    2    0    0  0.27698191059E+02  0.90573719100E+02  0.13145144863E+02  0.95622085383E+02  0.00000000000E+00 0.  1.
         11    1    1    2    0    0 -0.34352516569E+02  0.67690827251E+02 -0.50368299056E+02  0.91099445873E+02  0.00000000000E+00 0. -1.
</event>
<event>
 7    1  0.2732144E-009  0.9819148E+02  0.7561462E-02  0.1284146E+00
         -1   -1    0    0    0  501 -0.00000000000E+00  0.00000000000E+00  0.21134665249E+02  0.21134665249E+02  0.00000000000E+00 0.  1.
          1   -1    0    0  501    0  0.00000000000E+00 -0.00000000000E+00 -0.67822084781E+03  0.67822084781E+03  0.00000000000E+00 0. -1.
         25    2    1    2    0    0 -0.26050369608E+02 -0.26787860104E+02 -0.44761904897E+03  0.46626863797E+03  0.12508964205E+03 0.  0.
          5    1    3    3  502    0  0.32959006747E+02 -0.55234677069E+02 -0.20237460703E+03  0.21239143026E+03  0.41800000000E+01 0. -1.
         -5    1    3    3    0  502 -0.59009376355E+02  0.28446816965E+02 -0.24524444194E+03  0.25387720771E+03  0.41800000000E+01 0. -1.
        -11    1    1    2    0    0 -0.68198385800E+01  0.32250767275E+02 -0.15765275847E+02  0.36539924886E+02  0.00000000000E+00 0.  1.
         11    1    1    2    0    0  0.32870208188E+02 -0.54629071716E+01 -0.19370185774E+03  0.19654695020E+03  0.00000000000E+00 0. -1.
</event>
<event>
 7    1  0.2732144E-009  0.1177709E+03  0.7561462E-02  0.1246820E+00
          2   -1    0    0  501    0  0.00000000000E+00  0.00000000000E+00  0.57392390955E+03  0.57392390955E+03  0.00000000000E+00 0. -1.
         -2   -1    0    0    0  501 -0.00000000000E+00 -0.00000000000E+00 -0.38934812158E+02  0.38934812158E+02  0.00000000000E+00 0.  1.
         25    2    1    2    0    0 -0.75195919870E+02 -0.39916130605E+02  0.40729354422E+03  0.43449196553E+03  0.12509001998E+03 0.  0.
          5    1    3    3  502    0 -0.94289669379E+02 -0.12502582585E+02  0.17019186176E+03  0.19501179075E+03  0.41800000000E+01 0.  1.
         -5    1    3    3    0  502  0.19093749509E+02 -0.27413548020E+02  0.23710168246E+03  0.23948017478E+03  0.41800000000E+01 0.  1.
        -11    1    1    2    0    0  0.85530179248E+02  0.26120707186E+02  0.13305456822E+03  0.16031600366E+03  0.00000000000E+00 0. -1.
         11    1    1    2    0    0 -0.10334259378E+02  0.13795423420E+02 -0.53590150464E+01  0.18050752519E+02  0.00000000000E+00 0.  1.
</event>
<event>
 7    1  0.2732144E-009  0.1802744E+03  0.7561462E-02  0.1167538E+00
          2   -1    0    0  501    0  0.00000000000E+00  0.00000000000E+00  0.70642746761E+03  0.70642746761E+03  0.00000000000E+00 0. -1.
         -2   -1    0    0    0  501 -0.00000000000E+00 -0.00000000000E+00 -0.56463444700E+02  0.56463444700E+02  0.00000000000E+00 0.  1.
         25    2    1    2    0    0 -0.15112209859E+03 -0.71535839250E+02  0.32428834471E+03  0.38570288013E+03  0.12509402960E+03 0.  0.
          5    1    3    3  502    0 -0.72889114883E+02 -0.66218204690E+02  0.27705806604E+03  0.29406856013E+03  0.41800000000E+01 0. -1.
         -5    1    3    3    0  502 -0.78232983705E+02 -0.53176345599E+01  0.47230278672E+02  0.91634319990E+02  0.41800000000E+01 0. -1.
        -11    1    1    2    0    0  0.81660660835E+02  0.78971851368E+02  0.24763107811E+03  0.27244479749E+03  0.00000000000E+00 0. -1.
         11    1    1    2    0    0  0.69461437753E+02 -0.74360121183E+01  0.78044600090E+02  0.10474323469E+03  0.00000000000E+00 0.  1.
</event>
<event>
 7    1  0.2732144E-009  0.1243831E+03  0.7561462E-02  0.1236037E+00
         -1   -1    0    0    0  501 -0.00000000000E+00  0.00000000000E+00  0.26230186370E+02  0.26230186370E+02  0.00000000000E+00 0.  1.
          1   -1    0    0  501    0  0.00000000000E+00 -0.00000000000E+00 -0.59606332462E+03  0.59606332462E+03  0.00000000000E+00 0. -1.
         25    2    1    2    0    0 -0.45847622241E+02 -0.33048064873E+02 -0.32231547066E+03  0.35032602250E+03  0.12508749081E+03 0.  0.
          5    1    3    3  502    0  0.36027351260E+02  0.17841669339E+02 -0.84071990916E+02  0.93283799560E+02  0.41800000000E+01 0.  1.
         -5    1    3    3    0  502 -0.81874973501E+02 -0.50889734212E+02 -0.23824347975E+03  0.25704222294E+03  0.41800000000E+01 0.  1.
        -11    1    1    2    0    0 -0.25965597742E+02  0.30417079203E+02 -0.73072939204E+02  0.83301052918E+02  0.00000000000E+00 0. -1.
         11    1    1    2    0    0  0.71813219983E+02  0.26309856703E+01 -0.17444472839E+03  0.18866643557E+03  0.00000000000E+00 0.  1.
</event>
<event>
 7    1  0.2732144E-009  0.1596393E+03  0.7561462E-02  0.1189105E+00
         -2   -1    0    0    0  501 -0.00000000000E+00  0.00000000000E+00  0.38628210717E+02  0.38628210717E+02  0.00000000000E+00 0.  1.
          2   -1    0    0  501    0  0.00000000000E+00 -0.00000000000E+00 -0.83767371591E+03  0.83767371591E+03  0.00000000000E+00 0. -1.
         25    2    1    2    0    0 -0.11989358919E+03 -0.53891709516E+02 -0.28916433323E+03  0.34138686198E+03  0.12510071476E+03 0.  0.
          5    1    3    3  502    0  0.17439597562E+02  0.16420546449E+02 -0.63437900175E+02  0.67938306481E+02  0.41800000000E+01 0. -1.
         -5    1    3    3    0  502 -0.13733318675E+03 -0.70312255966E+02 -0.22572643306E+03  0.27344855550E+03  0.41800000000E+01 0. -1.
        -11    1    1    2    0    0  0.55762012914E+02  0.52327971278E+02 -0.14010220851E+03  0.15961280492E+03  0.00000000000E+00 0.  1.
         11    1    1    2    0    0  0.64131576277E+02  0.15637382387E+01 -0.36977896345E+03  0.37530225974E+03  0.00000000000E+00 0. -1.
</event>
<event>
 7    1  0.2732144E-009  0.1042649E+03  0.7561462E-02  0.1271575E+00
          1   -1    0    0  501    0  0.00000000000E+00  0.00000000000E+00  0.52860514185E+03  0.52860514185E+03  0.00000000000E+00 0. -1.
         -1   -1    0    0    0  501 -0.00000000000E+00 -0.00000000000E+00 -0.47490268522E+02  0.47490268522E+02  0.00000000000E+00 0.  1.
         25    2    1    2    0    0  0.23824023603E+01 -0.69002302821E+02  0.42469498235E+03  0.44808587372E+03  0.12509248004E+03 0.  0.
          5    1    3    3  502    0  0.23301208375E+02 -0.99412125935E+02  0.26246918284E+03  0.28166160802E+03  0.41800000000E+01 0.  1.
         -5    1    3    3    0  502 -0.20918806015E+02  0.30409823114E+02  0.16222579951E+03  0.16642426570E+03  0.41800000000E+01 0.  1.
        -11    1    1    2    0    0 -0.37481387169E+01  0.51919733763E+02 -0.15311067500E+02  0.54259893898E+02  0.00000000000E+00 0.  1.
         11    1    1    2    0    0  0.13657363566E+01  0.17082569058E+02  0.71730958479E+02  0.73749642750E+02  0.00000000000E+00 0. -1.
</event>
<event>
 7    1  0.2732144E-009  0.2100254E+03  0.7561462E-02  0.1141546E+00
          3   -1    0    0  501    0  0.00000000000E+00  0.00000000000E+00  0.20723355697E+03  0.20723355697E+03  0.00000000000E+00 0. -1.
         -3   -1    0    0    0  501 -0.00000000000E+00 -0.00000000000E+00 -0.30663348793E+03  0.30663348793E+03  0.00000000000E+00 0.  1.
         25    2    1    2    0    0 -0.37864400694E+02 -0.18821958206E+03 -0.17443145853E+03  0.28795987161E+03  0.12503691463E+03 0.  0.
          5    1    3    3  502    0  0.18063196309E+02 -0.16675151273E+03 -0.11454952560E+03  0.20315366665E+03  0.41800000000E+01 0.  1.
         -5    1    3    3    0  502 -0.55927597002E+02 -0.21468069331E+02 -0.59881932937E+02  0.84806204959E+02  0.41800000000E+01 0.  1.
        -11    1    1    2    0    0  0.22781485530E+02  0.13480167855E+03  0.53467226171E+01  0.13681767454E+03  0.00000000000E+00 0.  1.
         11    1    1    2    0    0  0.15082915164E+02  0.53417903510E+02  0.69684804959E+02  0.89089498749E+02  0.00000000000E+00 0. -1.
</event>
<event>
 7    1  0.2732144E-009  0.2022282E+03  0.7561462E-02  0.1147873E+00
         -2   -1    0    0    0  501 -0.00000000000E+00  0.00000000000E+00  0.61824972096E+02  0.61824972096E+02  0.00000000000E+00 0.  1.
          2   -1    0    0  501    0  0.00000000000E+00 -0.00000000000E+00 -0.71084955598E+03  0.71084955598E+03  0.00000000000E+00 0. -1.
         25    2    1    2    0    0 -0.65104039375E+02 -0.16416309263E+03 -0.29353480710E+03  0.36468963334E+03  0.12509112183E+03 0.  0.
          5    1    3    3  502    0  0.57973860022E+01  0.14975918948E+02 -0.43067532394E+01  0.17143755606E+02  0.41800000000E+01 0.  1.
         -5    1    3    3    0  502 -0.70901425377E+02 -0.17913901158E+03 -0.28922805386E+03  0.34754587774E+03  0.41800000000E+01 0.  1.
        -11    1    1    2    0    0  0.78812288990E+02  0.16341667779E+03 -0.34773038971E+03  0.39221526156E+03  0.00000000000E+00 0. -1.
         11    1    1    2    0    0 -0.13708249615E+02  0.74641484203E+00 -0.77593870708E+01  0.15769633171E+02  0.00000000000E+00 0.  1.
</event>
<event>
 7    1  0.2732144E-009  0.1057614E+03  0.7561462E-02  0.1268627E+00
          3   -1    0    0  501    0  0.00000000000E+00  0.00000000000E+00  0.27505182042E+03  0.27505182042E+03  0.00000000000E+00 0. -1.
         -3   -1    0    0    0  501 -0.00000000000E+00 -0.00000000000E+00 -0.70516811128E+02  0.70516811128E+02  0.00000000000E+00 0.  1.
         25    2    1    2    0    0  0.50037858124E+02  0.66188590285E+02  0.14048887122E+03  0.20559569466E+03  0.12509096689E+03 0.  0.
          5    1    3    3  502    0  0.21097424417E+02  0.67451998522E+02  0.95660185876E+01  0.71441266319E+02  0.41800000000E+01 0.  1.
         -5    1    3    3    0  502  0.28940433708E+02 -0.12634082366E+01  0.13092285263E+03  0.13415442835E+03  0.41800000000E+01 0.  1.
        -11    1    1    2    0    0 -0.10711244926E+02  0.16626756224E+02  0.40879348101E+02  0.45412563147E+02  0.00000000000E+00 0. -1.
         11    1    1    2    0    0 -0.39326613198E+02 -0.82815346509E+02  0.23166789967E+02  0.94560373733E+02  0.00000000000E+00 0.  1.
</event>
<event>
 7    1  0.2732144E-009  0.2559903E+03  0.7561462E-02  0.1109577E+00
         -2   -1    0    0    0  501 -0.00000000000E+00  0.00000000000E+00  0.47329653887E+02  0.47329653887E+02  0.00000000000E+00 0.  1.
          2   -1    0    0  501    0  0.00000000000E+00 -0.00000000000E+00 -0.19879558463E+04  0.19879558463E+04  0.00000000000E+00 0. -1.
         25    2    1    2    0    0  0.16328659488E+03  0.19500099095E+03 -0.14215560927E+04  0.14495369235E+04  0.12509064445E+03 0.  0.
          5    1    3    3  502    0  0.32941418070E+02  0.45610025331E+02 -0.11584041876E+03  0.12884830792E+03  0.41800000000E+01 0.  1.
         -5    1    3    3    0  502  0.13034517681E+03  0.14939096561E+03 -0.13057156739E+04  0.13206886155E+04  0.41800000000E+01 0.  1.
        -11    1    1    2    0    0 -0.13893366183E+02 -0.38361080437E+02 -0.17150009931E+03  0.17628636413E+03  0.00000000000E+00 0. -1.
         11    1    1    2    0    0 -0.14939322870E+03 -0.15663991051E+03 -0.34757000046E+03  0.40946221262E+03  0.00000000000E+00 0.  1.
</event>
<event>
 7    1  0.2732144E-009  0.9220057E+02  0.7561462E-02  0.1297609E+00
         -2   -1    0    0    0  501 -0.00000000000E+00  0.00000000000E+00  0.45620498139E+02  0.45620498139E+02  0.00000000000E+00 0.  1.
          2   -1    0    0  501    0  0.00000000000E+00 -0.00000000000E+00 -0.30842094332E+03  0.30842094332E+03  0.00000000000E+00 0. -1.
         25    2    1    2    0    0 -0.33470112457E+02  0.67286888792E+01 -0.19720602430E+03  0.23601531667E+03  0.12508992766E+03 0.  0.
          5    1    3    3  502    0 -0.57967583357E+02 -0.74289018809E+01 -0.19891340523E+03  0.20736307406E+03  0.41800000000E+01 0.  1.
         -5    1    3    3    0  502  0.24497470900E+02  0.14157590760E+02  0.17073809380E+01  0.28652242605E+02  0.41800000000E+01 0.  1.
        -11    1    1    2    0    0  0.50856725814E+02  0.28229087424E+02 -0.31260058776E+02  0.66033924705E+02  0.00000000000E+00 0.  1.
         11    1    1    2    0    0 -0.17386613357E+02 -0.34957776303E+02 -0.34334362108E+02  0.51992200083E+02  0.00000000000E+00 0. -1.
</event>
<event>
 7    1  0.2732144E-009  0.8585611E+02  0.7561462E-02  0.1313209E+00
         -1   -1    0    0    0  501 -0.00000000000E+00  0.00000000000E+00  0.42280461551E+02  0.42280461551E+02  0.00000000000E+00 0.  1.
          1   -1    0    0  501    0  0.00000000000E+00 -0.00000000000E+00 -0.32707120650E+03  0.32707120650E+03  0.00000000000E+00 0. -1.
         25    2    1    2    0    0  0.17881795542E+02  0.36905960337E+02 -0.14020061600E+03  0.19232849987E+03  0.12510887505E+03 0.  0.
          5    1    3    3  502    0  0.63901621855E+02  0.26358099651E+02 -0.12438227014E+03  0.14236076784E+03  0.41800000000E+01 0.  1.
         -5    1    3    3    0  502 -0.46019826313E+02  0.10547860686E+02 -0.15818345854E+02  0.49967732033E+02  0.41800000000E+01 0.  1.
        -11    1    1    2    0    0  0.10219643958E+02 -0.19479830256E+02  0.60355427790E+01  0.22810801960E+02  0.00000000000E+00 0.  1.
         11    1    1    2    0    0 -0.28101439500E+02 -0.17426130081E+02 -0.15062567173E+03  0.15421236622E+03  0.00000000000E+00 0. -1.
</event>
<event>
 7    1  0.2732144E-009  0.8665299E+02  0.7561462E-02  0.1311166E+00
         -1   -1    0    0    0  501 -0.00000000000E+00  0.00000000000E+00  0.97941415280E+02  0.97941415280E+02  0.00000000000E+00 0.  1.
          1   -1    0    0  501    0  0.00000000000E+00 -0.00000000000E+00 -0.19263642525E+03  0.19263642525E+03  0.00000000000E+00 0. -1.
         25    2    1    2    0    0 -0.43133380018E+02  0.17905396636E+02 -0.12739435889E+03  0.18455777627E+03  0.12510458986E+03 0.  0.
          5    1    3    3  502    0  0.34915698801E+02  0.68596923633E+01 -0.13719544759E+01  0.35854094064E+02  0.41800000000E+01 0.  1.
         -5    1    3    3    0  502 -0.78049078819E+02  0.11045704272E+02 -0.12602240441E+03  0.14870368220E+03  0.41800000000E+01 0.  1.
        -11    1    1    2    0    0  0.32190988910E+02 -0.28731220458E+02 -0.22536953456E+02  0.48679123524E+02  0.00000000000E+00 0. -1.
         11    1    1    2    0    0  0.10942391108E+02  0.10825823822E+02  0.55236302374E+02  0.57340940736E+02  0.00000000000E+00 0.  1.
</event>
<event>
 7    1  0.2732144E-009  0.1126164E+03  0.7561462E-02  0.1255800E+00
          4   -1    0    0  501    0  0.00000000000E+00  0.00000000000E+00  0.95420389355E+02  0.95420389355E+02  0.00000000000E+00 0. -1.
         -4   -1    0    0    0  501 -0.00000000000E+00 -0.00000000000E+00 -0.16832068020E+03  0.16832068020E+03  0.00000000000E+00 0.  1.
         25    2    1    2    0    0 -0.20146488406E+02 -0.47945082277E+02 -0.77228778565E+02  0.15593611566E+03  0.12508867263E+03 0.  0.
          5    1    3    3  502    0  0.43599292532E+02 -0.19618956858E+02  0.47358606758E+01  0.48225538398E+02  0.41800000000E+01 0.  1.
         -5    1    3    3    0  502 -0.63745780938E+02 -0.28326125420E+02 -0.81964639241E+02  0.10771057726E+03  0.41800000000E+01 0.  1.
        -11    1    1    2    0    0  0.46641002493E+02 -0.62274768764E+01  0.62606270629E+01  0.47469569547E+02  0.00000000000E+00 0.  1.
         11    1    1    2    0    0 -0.26494514087E+02  0.54172559154E+02 -0.19321393443E+01  0.60335384348E+02  0.00000000000E+00 0. -1.
</event>
<event>
 7    1  0.2732144E-009  0.1196750E+03  0.7561462E-02  0.1243634E+00
          3   -1    0    0  501    0  0.00000000000E+00  0.00000000000E+00  0.14746073442E+03  0.14746073442E+03  0.00000000000E+00 0. -1.
         -3   -1    0    0    0  501 -0.00000000000E+00 -0.00000000000E+00 -0.14097402925E+03  0.14097402925E+03  0.00000000000E+00 0.  1.
         25    2    1    2    0    0 -0.17275970621E+02  0.81840980275E+02  0.27181731623E+02  0.15291342890E+03  0.12508902826E+03 0.  0.
          5    1    3    3  502    0  0.40466743293E+02  0.70312187796E+02 -0.11925569006E+02  0.82103913802E+02  0.41800000000E+01 0.  1.
         -5    1    3    3    0  502 -0.57742713914E+02  0.11528792479E+02  0.39107300629E+02  0.70809515099E+02  0.41800000000E+01 0.  1.
        -11    1    1    2    0    0  0.35988338560E+02 -0.62856185975E+02 -0.55807967122E+02  0.91436260979E+02  0.00000000000E+00 0.  1.
         11    1    1    2    0    0 -0.18712367940E+02 -0.18984794300E+02  0.35112940672E+02  0.44085073791E+02  0.00000000000E+00 0. -1.
</event>
<event>
 7    1  0.2732144E-009  0.8265871E+02  0.7561462E-02  0.1321671E+00
          2   -1    0    0  501    0  0.00000000000E+00  0.00000000000E+00  0.37231160896E+03  0.37231160896E+03  0.00000000000E+00 0.  1.
         -2   -1    0    0    0  501 -0.00000000000E+00 -0.00000000000E+00 -0.53564018702E+02  0.53564018702E+02  0.00000000000E+00 0. -1.
         25    2    1    2    0    0  0.65903667606E+02  0.45638434084E+02  0.25275807696E+03  0.29318027584E+03  0.12506745621E+03 0.  0.
          5    1    3    3  502    0  0.27972874996E+02  0.31508880964E+02  0.24870859826E+03  0.25228700039E+03  0.41800000000E+01 0. -1.
         -5    1    3    3    0  502  0.37930792610E+02  0.14129553120E+02  0.40494786975E+01  0.40893275451E+02  0.41800000000E+01 0. -1.
        -11    1    1    2    0    0 -0.14920298415E+02 -0.17692578586E+01  0.63645860153E+02  0.65395268122E+02  0.00000000000E+00 0.  1.
         11    1    1    2    0    0 -0.50983369191E+02 -0.43869176225E+02  0.23436531495E+01  0.67300083706E+02  0.00000000000E+00 0. -1.
</event>
<event>
 7    1  0.2732144E-009  0.1732821E+03  0.7561462E-02  0.1174468E+00
          2   -1    0    0  501    0  0.00000000000E+00  0.00000000000E+00  0.97808478197E+02  0.97808478197E+02  0.00000000000E+00 0. -1.
         -2   -1    0    0    0  501 -0.00000000000E+00 -0.00000000000E+00 -0.37154542779E+03  0.37154542779E+03  0.00000000000E+00 0.  1.
         25    2    1    2    0    0 -0.17030421816E+02 -0.15141014335E+03 -0.18508136039E+03  0.27040277273E+03  0.12508989873E+03 0.  0.
          5    1    3    3  502    0  0.51717867271E+02 -0.59475359243E+02 -0.51601906003E+02  0.94298914391E+02  0.41800000000E+01 0. -1.
         -5    1    3    3    0  502 -0.68748289086E+02 -0.91934784107E+02 -0.13347945438E+03  0.17610385834E+03  0.41800000000E+01 0. -1.
        -11    1    1    2    0    0  0.96604354506E+01  0.12413977516E+03 -0.10790696878E+03  0.16476626385E+03  0.00000000000E+00 0.  1.
         11    1    1    2    0    0  0.73699863652E+01  0.27270368188E+02  0.19251379581E+02  0.34184869400E+02  0.00000000000E+00 0. -1.
</event>
<event>
 7    1  0.2732144E-009  0.1110337E+03  0.7561462E-02  0.1258668E+00
         -2   -1    0    0    0  501 -0.00000000000E+00  0.00000000000E+00  0.14801248942E+03  0.14801248942E+03  0.00000000000E+00 0.  1.
          2   -1    0    0  501    0  0.00000000000E+00 -0.00000000000E+00 -0.16459458461E+03  0.16459458461E+03  0.00000000000E+00 0. -1.
         25    2    1    2    0    0 -0.42325815767E+02  0.30726999084E+02  0.89011378753E+02  0.16219069441E+03  0.12508865916E+03 0.  0.
          5    1    3    3  502    0 -0.84509193008E+02  0.37440063575E+02  0.57355340355E+02  0.10886078050E+03  0.41800000000E+01 0.  1.
         -5    1    3    3    0  502  0.42183377241E+02 -0.67130644906E+01  0.31656038399E+02  0.53329913908E+02  0.41800000000E+01 0.  1.
        -11    1    1    2    0    0  0.58799184319E+02 -0.91971517581E+01 -0.10788387608E+03  0.12321064238E+03  0.00000000000E+00 0. -1.
         11    1    1    2    0    0 -0.16473368553E+02 -0.21529847326E+02  0.22904021337E+01  0.27205737249E+02  0.00000000000E+00 0.  1.
</event>
<event>
 7    1  0.2732144E-009  0.5818943E+02  0.7561462E-02  0.1405591E+00
         -2   -1    0    0    0  501 -0.00000000000E+00  0.00000000000E+00  0.40976051361E+02  0.40976051361E+02  0.00000000000E+00 0.  1.
          2   -1    0    0  501    0  0.00000000000E+00 -0.00000000000E+00 -0.34340417083E+03  0.34340417083E+03  0.00000000000E+00 0. -1.
         25    2    1    2    0    0 -0.14722061586E+02 -0.11541267676E+02 -0.24966448289E+03  0.27987941522E+03  0.12510073178E+03 0.  0.
          5    1    3    3  502    0  0.46217651863E+01  0.21182200050E-01  0.13945686705E+02  0.15274676422E+02  0.41800000000E+01 0. -1.
         -5    1    3    3    0  502 -0.19343826772E+02 -0.11562449876E+02 -0.26361016959E+03  0.26460473880E+03  0.41800000000E+01 0. -1.
        -11    1    1    2    0    0 -0.69536467788E+01  0.45997237112E+02 -0.41307456461E+02  0.62212578991E+02  0.00000000000E+00 0. -1.
         11    1    1    2    0    0  0.21675708365E+02 -0.34455969435E+02 -0.11456180120E+02  0.42288227981E+02  0.00000000000E+00 0.  1.
</event>
<event>
 7    1  0.2732144E-009  0.9665695E+02  0.7561462E-02  0.1287487E+00
          1   -1    0    0  501    0  0.00000000000E+00  0.00000000000E+00  0.13224508640E+03  0.13224508640E+03  0.00000000000E+00 0. -1.
         -1   -1    0    0    0  501 -0.00000000000E+00 -0.00000000000E+00 -0.11239589971E+03  0.11239589971E+03  0.00000000000E+00 0.  1.
         25    2    1    2    0    0  0.61846124103E+01 -0.31295607759E+02 -0.36551800676E+02  0.13416968901E+03  0.12509119401E+03 0.  0.
          5    1    3    3  502    0 -0.34710524731E+02 -0.49968575852E+02 -0.58019968287E+02  0.84175223313E+02  0.41800000000E+01 0.  1.
         -5    1    3    3    0  502  0.40895137142E+02  0.18672968093E+02  0.21468167612E+02  0.49994465692E+02  0.41800000000E+01 0.  1.
        -11    1    1    2    0    0  0.37512307642E+02  0.17171428201E+02  0.48835872503E+02  0.63929442468E+02  0.00000000000E+00 0.  1.
         11    1    1    2    0    0 -0.43696920052E+02  0.14124179558E+02  0.75651148696E+01  0.46541854639E+02  0.00000000000E+00 0. -1.
</event>
<event>
 7    1  0.2972312E-009  0.1319602E+03  0.7561462E-02  0.1224576E+00
          4   -1    0    0  501    0  0.00000000000E+00  0.00000000000E+00  0.17247845452E+03  0.17247845452E+03  0.00000000000E+00 0. -1.
         -4   -1    0    0    0  501 -0.00000000000E+00 -0.00000000000E+00 -0.12659731586E+03  0.12659731586E+03  0.00000000000E+00 0.  1.
         25    2    1    2    0    0  0.48367246015E+02  0.86857805057E+02  0.13723013397E+02  0.16037362557E+03  0.12509080660E+03 0.  0.
          5    1    3    3  502    0  0.65001067128E+02 -0.53134872820E+01  0.12920934642E+02  0.66616775867E+02  0.41800000000E+01 0.  1.
         -5    1    3    3    0  502 -0.16633821112E+02  0.92171292340E+02  0.80207875508E+00  0.93756849705E+02  0.41800000000E+01 0.  1.
        -11    1    1    2    0    0 -0.34542711402E+02 -0.83823112701E+02 -0.12807372196E+02  0.91561683670E+02  0.00000000000E+00 0.  1.
         11    1    1    2    0    0 -0.13824534613E+02 -0.30346923563E+01  0.44965497458E+02  0.47140461141E+02  0.00000000000E+00 0. -1.
</event>
<event>
 7    1  0.2732144E-009  0.8267122E+02  0.7561462E-02  0.1321637E+00
         -2   -1    0    0    0  501 -0.00000000000E+00  0.00000000000E+00  0.84832900113E+02  0.84832900113E+02  0.00000000000E+00 0.  1.
          2   -1    0    0  501    0  0.00000000000E+00 -0.00000000000E+00 -0.13393585146E+03  0.13393585146E+03  0.00000000000E+00 0. -1.
         25    2    1    2    0    0 -0.83906335204E+00 -0.59977830003E+01 -0.27956349122E+02  0.12831936824E+03  0.12509046879E+03 0.  0.
          5    1    3    3  502    0  0.17992584458E+02 -0.52209900566E+02 -0.49051792376E+02  0.73980791750E+02  0.41800000000E+01 0.  1.
         -5    1    3    3    0  502 -0.18831647810E+02  0.46212117566E+02  0.21095443254E+02  0.54338576493E+02  0.41800000000E+01 0.  1.
        -11    1    1    2    0    0  0.20205207379E+01 -0.26894930194E+02 -0.43130364499E+02  0.50868930754E+02  0.00000000000E+00 0. -1.
         11    1    1    2    0    0 -0.11814573858E+01  0.32892713194E+02  0.21983762272E+02  0.39580452580E+02  0.00000000000E+00 0.  1.
</event>
<event>
 7    1  0.2732144E-009  0.1419226E+03  0.7561462E-02  0.1210765E+00
         -1   -1    0    0    0  501 -0.00000000000E+00  0.00000000000E+00  0.54824534398E+03  0.54824534398E+03  0.00000000000E+00 0.  1.
          1   -1    0    0  501    0  0.00000000000E+00 -0.00000000000E+00 -0.76727948560E+02  0.76727948560E+02  0.00000000000E+00 0. -1.
         25    2    1    2    0    0  0.79925834292E+02  0.11545684837E+03  0.90246533828E+02  0.20859119893E+03  0.12508968214E+03 0.  0.
          5    1    3    3  502    0  0.54203104729E+02  0.60424855235E+02  0.11668873943E+03  0.14220715173E+03  0.41800000000E+01 0. -1.
         -5    1    3    3    0  502  0.25722729563E+02  0.55031993138E+02 -0.26442205606E+02  0.66384047197E+02  0.41800000000E+01 0. -1.
        -11    1    1    2    0    0 -0.57382858898E+02 -0.96253058315E+02  0.36657864661E+03  0.38332407683E+03  0.00000000000E+00 0.  1.
         11    1    1    2    0    0 -0.22542975394E+02 -0.19203790058E+02  0.14692214980E+02  0.33058016777E+02  0.00000000000E+00 0. -1.
</event>
<event>
 7    1  0.2732144E-009  0.1497591E+03  0.7561462E-02  0.1200769E+00
         -1   -1    0    0    0  501 -0.00000000000E+00  0.00000000000E+00  0.76127337823E+02  0.76127337823E+02  0.00000000000E+00 0.  1.
          1   -1    0    0  501    0  0.00000000000E+00 -0.00000000000E+00 -0.42027574555E+03  0.42027574555E+03  0.00000000000E+00 0. -1.
         25    2    1    2    0    0 -0.11928677405E+03 -0.42684888032E+02 -0.96372868998E+02  0.20245346633E+03  0.12509333325E+03 0.  0.
          5    1    3    3  502    0  0.10722060488E+02  0.16815412696E+02 -0.46841845678E+02  0.51081812730E+02  0.41800000000E+01 0.  1.
         -5    1    3    3    0  502 -0.13000883453E+03 -0.59500300728E+02 -0.49531023320E+02  0.15137165360E+03  0.41800000000E+01 0.  1.
        -11    1    1    2    0    0  0.37501428969E+02  0.39191685293E+02 -0.17898358055E+03  0.18702263894E+03  0.00000000000E+00 0. -1.
         11    1    1    2    0    0  0.81785345077E+02  0.34932027392E+01 -0.68791958181E+02  0.10692697810E+03  0.00000000000E+00 0.  1.
</event>
<event>
 7    1  0.2732144E-009  0.8991341E+02  0.7561462E-02  0.1303062E+00
          2   -1    0    0  501    0  0.00000000000E+00  0.00000000000E+00  0.68673289712E+03  0.68673289712E+03  0.00000000000E+00 0. -1.
         -2   -1    0    0    0  501 -0.00000000000E+00 -0.00000000000E+00 -0.24226783033E+02  0.24226783033E+02  0.00000000000E+00 0.  1.
         25    2    1    2    0    0 -0.25680475557E+02 -0.60492895202E+02  0.31208567755E+03  0.34258296816E+03  0.12508694076E+03 0.  0.
          5    1    3    3  502    0 -0.70262025877E+01  0.16127722952E+02  0.22220258318E+03  0.22293705691E+03  0.41800000000E+01 0.  1.
         -5    1    3    3    0  502 -0.18654272969E+02 -0.76620618154E+02  0.89883094370E+02  0.11964591125E+03  0.41800000000E+01 0.  1.
        -11    1    1    2    0    0  0.24712740544E+02  0.25713397103E+01  0.17345840155E+02  0.30301971946E+02  0.00000000000E+00 0.  1.
         11    1    1    2    0    0  0.96773501285E+00  0.57921555491E+02  0.33307459638E+03  0.33807474004E+03  0.00000000000E+00 0. -1.
</event>
<event>
 7    1  0.2732144E-009  0.1441876E+03  0.7561462E-02  0.1207803E+00
          2   -1    0    0  501    0  0.00000000000E+00  0.00000000000E+00  0.18243972418E+04  0.18243972418E+04  0.00000000000E+00 0. -1.
         -2   -1    0    0    0  501 -0.00000000000E+00 -0.00000000000E+00 -0.43595154079E+02  0.43595154079E+02  0.00000000000E+00 0.  1.
         25    2    1    2    0    0 -0.18516202270E+02 -0.11246496509E+03  0.16838116098E+04  0.16922944876E+04  0.12509147640E+03 0.  0.
          5    1    3    3  502    0  0.30726229953E+02 -0.72491485413E+02  0.45061609798E+03  0.45746197309E+03  0.41800000000E+01 0. -1.
         -5    1    3    3    0  502 -0.49242432223E+02 -0.39973479678E+02  0.12331955118E+04  0.12348325145E+04  0.41800000000E+01 0. -1.
        -11    1    1    2    0    0  0.52383547290E+02  0.39768321583E+02  0.51191806643E+02  0.83343605007E+02  0.00000000000E+00 0.  1.
         11    1    1    2    0    0 -0.33867345020E+02  0.72696643508E+02  0.45798671285E+02  0.92354303243E+02  0.00000000000E+00 0. -1.
</event>
<event>
 7    1  0.3158556E-009  0.1430513E+03  0.7561462E-02  0.1209281E+00
          1   -1    0    0  501    0  0.00000000000E+00  0.00000000000E+00  0.14541528928E+03  0.14541528928E+03  0.00000000000E+00 0. -1.
         -1   -1    0    0    0  501 -0.00000000000E+00 -0.00000000000E+00 -0.18735036544E+03  0.18735036544E+03  0.00000000000E+00 0.  1.
         25    2    1    2    0    0  0.11317289838E+03 -0.17783077997E+02  0.24696252013E+02  0.17141311136E+03  0.12509279393E+03 0.  0.
          5    1    3    3  502    0 -0.74097519714E+01 -0.26412430648E+02 -0.28044308958E+02  0.39452206300E+02  0.41800000000E+01 0.  1.
         -5    1    3    3    0  502  0.12058265035E+03  0.86293526507E+01  0.52740560971E+02  0.13196090506E+03  0.41800000000E+01 0.  1.
        -11    1    1    2    0    0 -0.34864488556E+02 -0.29709425080E+02 -0.50813557788E+02  0.68411988394E+02  0.00000000000E+00 0. -1.
         11    1    1    2    0    0 -0.78308409822E+02  0.47492503077E+02 -0.15817770391E+02  0.92940554967E+02  0.00000000000E+00 0.  1.
</event>
<event>
 7    1  0.2732144E-009  0.1031285E+03  0.7561462E-02  0.1273851E+00
         -1   -1    0    0    0  501 -0.00000000000E+00  0.00000000000E+00  0.65540131151E+02  0.65540131151E+02  0.00000000000E+00 0.  1.
          1   -1    0    0  501    0  0.00000000000E+00 -0.00000000000E+00 -0.19955094919E+03  0.19955094919E+03  0.00000000000E+00 0. -1.
         25    2    1    2    0    0  0.21766884508E+02  0.12376401414E+01 -0.10935087478E+03  0.16757297665E+03  0.12509100556E+03 0.  0.
          5    1    3    3  502    0 -0.30496893747E+02  0.41729637852E+02 -0.18334345817E+02  0.55000398544E+02  0.41800000000E+01 0. -1.
         -5    1    3    3    0  502  0.52263778255E+02 -0.40491997710E+02 -0.91016528967E+02  0.11257257811E+03  0.41800000000E+01 0. -1.
        -11    1    1    2    0    0 -0.50638804346E+02  0.17682400054E+02  0.23486599557E+01  0.53688657842E+02  0.00000000000E+00 0.  1.
         11    1    1    2    0    0  0.28871919839E+02 -0.18920040195E+02 -0.27008603211E+02  0.43829445851E+02  0.00000000000E+00 0. -1.
</event>
<event>
 7    1  0.2732144E-009  0.1393035E+03  0.7561462E-02  0.1214269E+00
         -2   -1    0    0    0  501 -0.00000000000E+00  0.00000000000E+00  0.13674577541E+03  0.13674577541E+03  0.00000000000E+00 0.  1.
          2   -1    0    0  501    0  0.00000000000E+00 -0.00000000000E+00 -0.24088074571E+03  0.24088074571E+03  0.00000000000E+00 0. -1.
         25    2    1    2    0    0 -0.11626609989E+03  0.21538395243E+02  0.30684053757E+02  0.17484296283E+03  0.12508733766E+03 0.  0.
          5    1    3    3  502    0 -0.93385537045E+02 -0.14614693466E+02  0.69123262641E+02  0.11717485068E+03  0.41800000000E+01 0.  1.
         -5    1    3    3    0  502 -0.22880562844E+02  0.36153088710E+02 -0.38439208884E+02  0.57668112150E+02  0.41800000000E+01 0.  1.
        -11    1    1    2    0    0  0.75493162168E+02  0.24629151581E+02 -0.38001186991E+02  0.88033532557E+02  0.00000000000E+00 0. -1.
         11    1    1    2    0    0  0.40772937721E+02 -0.46167546824E+02 -0.96817837068E+02  0.11475002573E+03  0.00000000000E+00 0.  1.
</event>
<event>
 7    1  0.2732144E-009  0.1816360E+03  0.7561462E-02  0.1166229E+00
         -1   -1    0    0    0  501 -0.00000000000E+00  0.00000000000E+00  0.51853378213E+02  0.51853378213E+02  0.00000000000E+00 0.  1.
          1   -1    0    0  501    0  0.00000000000E+00 -0.00000000000E+00 -0.86927309847E+03  0.86927309847E+03  0.00000000000E+00 0. -1.
         25    2    1    2    0    0 -0.15873031812E+03 -0.87235579776E+02 -0.37458696228E+03  0.43447153748E+03  0.12507903221E+03 0.  0.
          5    1    3    3  502    0 -0.39423203103E+02 -0.23103042121E+02 -0.12059039842E+02  0.47442937726E+02  0.41800000000E+01 0.  1.
         -5    1    3    3    0  502 -0.11930711502E+03 -0.64132537655E+02 -0.36252792244E+03  0.38702859976E+03  0.41800000000E+01 0.  1.
        -11    1    1    2    0    0  0.29695101511E+02  0.23962304986E+02 -0.20696875886E+03  0.21045678477E+03  0.00000000000E+00 0. -1.
         11    1    1    2    0    0  0.12903521661E+03  0.63273274790E+02 -0.23586399911E+03  0.27619815442E+03  0.00000000000E+00 0.  1.
</event>
<event>
 7    1  0.2732144E-009  0.1588955E+03  0.7561462E-02  0.1189949E+00
         -1   -1    0    0    0  501 -0.00000000000E+00  0.00000000000E+00  0.46433465100E+03  0.46433465100E+03  0.00000000000E+00 0. -1.
          1   -1    0    0  501    0  0.00000000000E+00 -0.00000000000E+00 -0.64300248883E+02  0.64300248883E+02  0.00000000000E+00 0.  1.
         25    2    1    2    0    0 -0.95838774617E+02  0.93859358497E+02  0.21012260555E+03  0.27891656034E+03  0.12509311880E+03 0.  0.
          5    1    3    3  502    0 -0.54827079864E+02 -0.19535749006E+02  0.98824631776E+02  0.11476686988E+03  0.41800000000E+01 0. -1.
         -5    1    3    3    0  502 -0.41011694753E+02  0.11339510750E+03  0.11129797377E+03  0.16414969046E+03  0.41800000000E+01 0. -1.
        -11    1    1    2    0    0  0.69196708689E+02 -0.87200361707E+02  0.19225409799E+03  0.22215698452E+03  0.00000000000E+00 0. -1.
         11    1    1    2    0    0  0.26642065928E+02 -0.66589967904E+01 -0.23423014206E+01  0.27561355031E+02  0.00000000000E+00 0.  1.
</event>
<event>
 7    1  0.2732144E-009  0.8772016E+02  0.7561462E-02  0.1308468E+00
          2   -1    0    0  501    0  0.00000000000E+00  0.00000000000E+00  0.35491855384E+03  0.35491855384E+03  0.00000000000E+00 0. -1.
         -2   -1    0    0    0  501 -0.00000000000E+00 -0.00000000000E+00 -0.46008812280E+02  0.46008812280E+02  0.00000000000E+00 0.  1.
         25    2    1    2    0    0 -0.79095038507E+01  0.17260004375E+02  0.70028190848E+02  0.14460196939E+03  0.12508122975E+03 0.  0.
          5    1    3    3  502    0  0.22809338808E+02 -0.38881776437E+02 -0.54023613618E+01  0.45592942261E+02  0.41800000000E+01 0.  1.
         -5    1    3    3    0  502 -0.30718842659E+02  0.56141780812E+02  0.75430552210E+02  0.99009027133E+02  0.41800000000E+01 0.  1.
        -11    1    1    2    0    0  0.28357248467E+02 -0.30523396617E+02  0.22384130663E+03  0.22768562061E+03  0.00000000000E+00 0. -1.
         11    1    1    2    0    0 -0.20447744616E+02  0.13263392242E+02  0.15040244087E+02  0.28639776114E+02  0.00000000000E+00 0.  1.
</event>
<event>
 7    1  0.2732144E-009  0.1219654E+03  0.7561462E-02  0.1239889E+00
         -3   -1    0    0    0  501 -0.00000000000E+00  0.00000000000E+00  0.14772647945E+04  0.14772647945E+04  0.00000000000E+00 0.  1.
          3   -1    0    0  501    0  0.00000000000E+00 -0.00000000000E+00 -0.14604682845E+02  0.14604682845E+02  0.00000000000E+00 0. -1.
         25    2    1    2    0    0  0.92364975203E+02 -0.33407125207E+02  0.85988246763E+03  0.87446714980E+03  0.12509042047E+03 0.  0.
          5    1    3    3  502    0  0.11346750841E+02 -0.26897475585E+02  0.62844483041E+03  0.62913639238E+03  0.41800000000E+01 0.  1.
         -5    1    3    3    0  502  0.81018224361E+02 -0.65096496220E+01  0.23143763721E+03  0.24533075742E+03  0.41800000000E+01 0.  1.
        -11    1    1    2    0    0 -0.51900917963E+02  0.63946749176E+02  0.34583705694E+03  0.35550831491E+03  0.00000000000E+00 0. -1.
         11    1    1    2    0    0 -0.40464057240E+02 -0.30539623968E+02  0.25694058709E+03  0.26189401263E+03  0.00000000000E+00 0.  1.
</event>
<event>
 7    1  0.2732144E-009  0.6675132E+02  0.7561462E-02  0.1371502E+00
          4   -1    0    0  501    0  0.00000000000E+00  0.00000000000E+00  0.25776137170E+03  0.25776137170E+03  0.00000000000E+00 0. -1.
         -4   -1    0    0    0  501 -0.00000000000E+00 -0.00000000000E+00 -0.53991025783E+02  0.53991025783E+02  0.00000000000E+00 0.  1.
         25    2    1    2    0    0  0.10206710527E+02  0.40441164530E+02  0.14532467071E+03  0.19623041646E+03  0.12508977456E+03 0.  0.
          5    1    3    3  502    0  0.49127011155E+01  0.37983188216E+02 -0.10743741384E+02  0.39996969863E+02  0.41800000000E+01 0. -1.
         -5    1    3    3    0  502  0.52940094114E+01  0.24579763137E+01  0.15606841209E+03  0.15623344660E+03  0.41800000000E+01 0. -1.
        -11    1    1    2    0    0  0.36122288981E+01 -0.62045520325E+02  0.13235324890E+02  0.63544225662E+02  0.00000000000E+00 0.  1.
         11    1    1    2    0    0 -0.13818939425E+02  0.21604355796E+02  0.45210350317E+02  0.51977755357E+02  0.00000000000E+00 0. -1.
</event>
<event>
 7    1  0.2732144E-009  0.1870355E+03  0.7561462E-02  0.1161163E+00
         -1   -1    0    0    0  501 -0.00000000000E+00  0.00000000000E+00  0.30813946314E+02  0.30813946314E+02  0.00000000000E+00 0.  1.
          1   -1    0    0  501    0  0.00000000000E+00 -0.00000000000E+00 -0.12677689212E+04  0.12677689212E+04  0.00000000000E+00 0. -1.
         25    2    1    2    0    0  0.31652209938E+02 -0.15121449397E+03 -0.45846481035E+03  0.49970497254E+03  0.12508953463E+03 0.  0.
          5    1    3    3  502    0 -0.45272091484E+02 -0.63292899577E+02 -0.13654915163E+03  0.15722180706E+03  0.41800000000E+01 0. -1.
         -5    1    3    3    0  502  0.76924301422E+02 -0.87921594393E+02 -0.32191565872E+03  0.34248316549E+03  0.41800000000E+01 0. -1.
        -11    1    1    2    0    0  0.15836805472E+02 -0.44879760443E+01 -0.78912008599E+02  0.80610492106E+02  0.00000000000E+00 0.  1.
         11    1    1    2    0    0 -0.47489015410E+02  0.15570247001E+03 -0.69957815593E+03  0.71826740286E+03  0.00000000000E+00 0. -1.
</event>
<event>
 7    1  0.2975970E-009  0.2201426E+03  0.7561462E-02  0.1133777E+00
          2   -1    0    0  501    0  0.00000000000E+00  0.00000000000E+00  0.61683429716E+03  0.61683429716E+03  0.00000000000E+00 0. -1.
         -2   -1    0    0    0  501 -0.00000000000E+00 -0.00000000000E+00 -0.95758322827E+02  0.95758322827E+02  0.00000000000E+00 0.  1.
         25    2    1    2    0    0  0.40148924057E+02 -0.21094550345E+03  0.22215433168E+03  0.33332904705E+03  0.12508303240E+03 0.  0.
          5    1    3    3  502    0  0.28959046540E+02 -0.10786378079E+03  0.31258154433E+02  0.11605070530E+03  0.41800000000E+01 0. -1.
         -5    1    3    3    0  502  0.11189877516E+02 -0.10308172267E+03  0.19089617725E+03  0.21727834175E+03  0.41800000000E+01 0. -1.
        -11    1    1    2    0    0 -0.58278936604E+02  0.14276409474E+03  0.24883935970E+03  0.29274399761E+03  0.00000000000E+00 0. -1.
         11    1    1    2    0    0  0.18130012547E+02  0.68181408717E+02  0.50082282948E+02  0.86519575328E+02  0.00000000000E+00 0.  1.
</event>
<event>
 7    1  0.2732144E-009  0.1056041E+03  0.7561462E-02  0.1268934E+00
          2   -1    0    0  501    0  0.00000000000E+00  0.00000000000E+00  0.26050496265E+03  0.26050496265E+03  0.00000000000E+00 0. -1.
         -2   -1    0    0    0  501 -0.00000000000E+00 -0.00000000000E+00 -0.73853888628E+02  0.73853888628E+02  0.00000000000E+00 0.  1.
         25    2    1    2    0    0 -0.46623352238E+02  0.20919188993E+02  0.19080528737E+02  0.13646073805E+03  0.12508443952E+03 0.  0.
          5    1    3    3  502    0 -0.48701141409E+02 -0.28346278556E+02 -0.32332488170E+02  0.65101266299E+02  0.41800000000E+01 0.  1.
         -5    1    3    3    0  502  0.20777891710E+01  0.49265467549E+02  0.51413016907E+02  0.71359471748E+02  0.41800000000E+01 0.  1.
        -11    1    1    2    0    0 -0.22220729820E+02  0.15730882050E+02  0.40427133098E+02  0.48739866376E+02  0.00000000000E+00 0.  1.
         11    1    1    2    0    0  0.68844082058E+02 -0.36650071044E+02  0.12714341218E+03  0.14915824685E+03  0.00000000000E+00 0. -1.
</event>
<event>
 7    1  0.2732144E-009  0.3823814E+03  0.7561462E-02  0.1050057E+00
          2   -1    0    0  501    0  0.00000000000E+00  0.00000000000E+00  0.45805589785E+03  0.45805589785E+03  0.00000000000E+00 0. -1.
         -2   -1    0    0    0  501 -0.00000000000E+00 -0.00000000000E+00 -0.36064808047E+03  0.36064808047E+03  0.00000000000E+00 0.  1.
         25    2    1    2    0    0  0.18889422747E+03 -0.32252435765E+03  0.16668448056E+03  0.42794234863E+03  0.12509175529E+03 0.  0.
          5    1    3    3  502    0  0.16648183969E+03 -0.19020577251E+03  0.69481886850E+02  0.26218246288E+03  0.41800000000E+01 0. -1.
         -5    1    3    3    0  502  0.22412387781E+02 -0.13231858514E+03  0.97202593710E+02  0.16575988575E+03  0.41800000000E+01 0. -1.
        -11    1    1    2    0    0 -0.43582898381E+02  0.36426467543E+02 -0.38034064659E+02  0.68358954377E+02  0.00000000000E+00 0. -1.
         11    1    1    2    0    0 -0.14531132909E+03  0.28609789011E+03 -0.31242598517E+02  0.32240267531E+03  0.00000000000E+00 0.  1.
</event>
<event>
 7    1  0.2732144E-009  0.2231239E+03  0.7561462E-02  0.1131575E+00
         -2   -1    0    0    0  501 -0.00000000000E+00  0.00000000000E+00  0.32024863886E+02  0.32024863886E+02  0.00000000000E+00 0.  1.
          2   -1    0    0  501    0  0.00000000000E+00 -0.00000000000E+00 -0.24151179509E+04  0.24151179509E+04  0.00000000000E+00 0. -1.
         25    2    1    2    0    0  0.71345374262E+02 -0.20181414892E+03 -0.18483978948E+04  0.18649508655E+04  0.12509132633E+03 0.  0.
          5    1    3    3  502    0  0.89132389228E+01 -0.12382848033E+03 -0.60977160352E+03  0.62229560438E+03  0.41800000000E+01 0.  1.
         -5    1    3    3    0  502  0.62432135339E+02 -0.77985668593E+02 -0.12386262913E+04  0.12426552611E+04  0.41800000000E+01 0.  1.
        -11    1    1    2    0    0 -0.66745815803E+02  0.10062076447E+03 -0.36617940153E+03  0.38557346418E+03  0.00000000000E+00 0. -1.
         11    1    1    2    0    0 -0.45995584592E+01  0.10119338445E+03 -0.16851579066E+03  0.19661848513E+03  0.00000000000E+00 0.  1.
</event>
<event>
 7    1  0.2732144E-009  0.1056240E+03  0.7561462E-02  0.1268895E+00
          2   -1    0    0  501    0  0.00000000000E+00  0.00000000000E+00  0.16264323949E+03  0.16264323949E+03  0.00000000000E+00 0.  1.
         -2   -1    0    0    0  501 -0.00000000000E+00 -0.00000000000E+00 -0.10928468056E+03  0.10928468056E+03  0.00000000000E+00 0. -1.
         25    2    1    2    0    0 -0.70919116119E+02 -0.11303615538E+02 -0.24702134725E+01  0.14425621077E+03  0.12508580909E+03 0.  0.
          5    1    3    3  502    0 -0.75256281087E+02  0.34774851548E+02 -0.32261195253E+02  0.89056472322E+02  0.41800000000E+01 0. -1.
         -5    1    3    3    0  502  0.43371649686E+01 -0.46078467086E+02  0.29790981780E+02  0.55199738445E+02  0.41800000000E+01 0. -1.
        -11    1    1    2    0    0  0.12588840959E+02  0.19146722739E+02 -0.20869744588E+02  0.30993905006E+02  0.00000000000E+00 0. -1.
         11    1    1    2    0    0  0.58330275160E+02 -0.78431072013E+01  0.76698516990E+02  0.96677804274E+02  0.00000000000E+00 0.  1.
</event>
<event>
 7    1  0.2732144E-009  0.1300882E+03  0.7561462E-02  0.1227325E+00
          2   -1    0    0  501    0  0.00000000000E+00  0.00000000000E+00  0.55476128763E+03  0.55476128763E+03  0.00000000000E+00 0. -1.
         -2   -1    0    0    0  501 -0.00000000000E+00 -0.00000000000E+00 -0.31085729168E+02  0.31085729168E+02  0.00000000000E+00 0.  1.
         25    2    1    2    0    0  0.64391653567E+02 -0.34161236776E+02  0.25941115646E+03  0.29707647176E+03  0.12508799635E+03 0.  0.
          5    1    3    3  502    0  0.87863369872E+02 -0.61617873559E+02  0.17758943420E+03  0.20753846305E+03  0.41800000000E+01 0. -1.
         -5    1    3    3    0  502 -0.23471716305E+02  0.27456636783E+02  0.81821722265E+02  0.89538008712E+02  0.41800000000E+01 0. -1.
        -11    1    1    2    0    0  0.23298057545E+02  0.10727428979E+02  0.57959415462E+02  0.63381156968E+02  0.00000000000E+00 0.  1.
         11    1    1    2    0    0 -0.87689711112E+02  0.23433807797E+02  0.20630498653E+03  0.22538938806E+03  0.00000000000E+00 0. -1.
</event>
<event>
 7    1  0.2732144E-009  0.1179589E+03  0.7561462E-02  0.1246503E+00
         -2   -1    0    0    0  501 -0.00000000000E+00  0.00000000000E+00  0.25331176613E+02  0.25331176613E+02  0.00000000000E+00 0.  1.
          2   -1    0    0  501    0  0.00000000000E+00 -0.00000000000E+00 -0.55706988856E+03  0.55706988856E+03  0.00000000000E+00 0. -1.
         25    2    1    2    0    0 -0.12610286395E+02  0.43203027770E+02 -0.31618817675E+03  0.34299857291E+03  0.12509011541E+03 0.  0.
          5    1    3    3  502    0  0.55927943056E+02  0.19404885065E+02 -0.16241027079E+03  0.17291342584E+03  0.41800000000E+01 0. -1.
         -5    1    3    3    0  502 -0.68538229451E+02  0.23798142705E+02 -0.15377790595E+03  0.17008514707E+03  0.41800000000E+01 0. -1.
        -11    1    1    2    0    0 -0.39492146256E+02 -0.31456348032E+02 -0.96127284533E+02  0.10857986130E+03  0.00000000000E+00 0. -1.
         11    1    1    2    0    0  0.52102432651E+02 -0.11746679737E+02 -0.11942325066E+03  0.13082263096E+03  0.00000000000E+00 0.  1.
</event>
<event>
 7    1  0.2732144E-009  0.9042644E+02  0.7561462E-02  0.1301822E+00
         -2   -1    0    0    0  501 -0.00000000000E+00  0.00000000000E+00  0.44658316737E+02  0.44658316737E+02  0.00000000000E+00 0. -1.
          2   -1    0    0  501    0  0.00000000000E+00 -0.00000000000E+00 -0.32372418197E+03  0.32372418197E+03  0.00000000000E+00 0.  1.
         25    2    1    2    0    0  0.39067012088E+02 -0.38380613764E+02 -0.16303754019E+03  0.21266954315E+03  0.12509113529E+03 0.  0.
          5    1    3    3  502    0  0.57135604376E+02  0.24629129386E+01 -0.15732667674E+03  0.16745058626E+03  0.41800000000E+01 0. -1.
         -5    1    3    3    0  502 -0.18068592288E+02 -0.40843526702E+02 -0.57108634507E+01  0.45218956889E+02  0.41800000000E+01 0. -1.
        -11    1    1    2    0    0  0.14792724908E+02  0.85454056548E+01  0.67439424731E+01  0.18366530105E+02  0.00000000000E+00 0. -1.
         11    1    1    2    0    0 -0.53859736995E+02  0.29835208109E+02 -0.12277226752E+03  0.13734642545E+03  0.00000000000E+00 0.  1.
</event>
<event>
 7    1  0.2732144E-009  0.1267644E+03  0.7561462E-02  0.1232337E+00
         -1   -1    0    0    0  501 -0.00000000000E+00  0.00000000000E+00  0.63829804924E+02  0.63829804924E+02  0.00000000000E+00 0.  1.
          1   -1    0    0  501    0  0.00000000000E+00 -0.00000000000E+00 -0.40918189188E+03  0.40918189188E+03  0.00000000000E+00 0. -1.
         25    2    1    2    0    0  0.10419646198E+03 -0.24063395249E+02 -0.26227270547E+03  0.30963196792E+03  0.12509609843E+03 0.  0.
          5    1    3    3  502    0  0.65542380711E+02 -0.50233138328E+02 -0.24679229945E+03  0.26027501479E+03  0.41800000000E+01 0.  1.
         -5    1    3    3    0  502  0.38654081271E+02  0.26169743079E+02 -0.15480406021E+02  0.49356953130E+02  0.41800000000E+01 0.  1.
        -11    1    1    2    0    0 -0.45046977451E+02 -0.20919487054E+02 -0.73135766880E+02  0.88406422353E+02  0.00000000000E+00 0. -1.
         11    1    1    2    0    0 -0.59149484531E+02  0.44982882304E+02 -0.99436146023E+01  0.74973306530E+02  0.00000000000E+00 0.  1.
</event>
<event>
 7    1  0.2732144E-009  0.8550439E+02  0.7561462E-02  0.1314119E+00
         -2   -1    0    0    0  501 -0.00000000000E+00  0.00000000000E+00  0.92122329828E+02  0.92122329828E+02  0.00000000000E+00 0.  1.
          2   -1    0    0  501    0  0.00000000000E+00 -0.00000000000E+00 -0.19595490549E+03  0.19595490549E+03  0.00000000000E+00 0. -1.
         25    2    1    2    0    0 -0.37209328472E+02  0.30069093418E+02 -0.12394342839E+03  0.18246901240E+03  0.12507710638E+03 0.  0.
          5    1    3    3  502    0  0.35720785484E+02  0.32091033213E+02 -0.13531583866E+02  0.50063810185E+02  0.41800000000E+01 0.  1.
         -5    1    3    3    0  502 -0.72930113957E+02 -0.20219397950E+01 -0.11041184452E+03  0.13240520222E+03  0.41800000000E+01 0.  1.
        -11    1    1    2    0    0  0.16483046453E+02 -0.50451912590E+01 -0.36482766425E+02  0.40350179940E+02  0.00000000000E+00 0. -1.
         11    1    1    2    0    0  0.20726282020E+02 -0.25023902159E+02  0.56593619148E+02  0.65258042983E+02  0.00000000000E+00 0.  1.
</event>
<event>
 7    1  0.2732144E-009  0.1126720E+03  0.7561462E-02  0.1255700E+00
          1   -1    0    0  501    0  0.00000000000E+00  0.00000000000E+00  0.34911830235E+03  0.34911830235E+03  0.00000000000E+00 0. -1.
         -1   -1    0    0    0  501 -0.00000000000E+00 -0.00000000000E+00 -0.38882317266E+02  0.38882317266E+02  0.00000000000E+00 0.  1.
         25    2    1    2    0    0 -0.10000349048E+02 -0.37116259634E+02  0.14548491503E+03  0.19567943800E+03  0.12508780214E+03 0.  0.
          5    1    3    3  502    0  0.49380846594E+02  0.13459605378E+02  0.71978026259E+02  0.88419102300E+02  0.41800000000E+01 0. -1.
         -5    1    3    3    0  502 -0.59381195641E+02 -0.50575865013E+02  0.73506888770E+02  0.10726033570E+03  0.41800000000E+01 0. -1.
        -11    1    1    2    0    0 -0.38136471021E+02  0.61158517748E+01  0.91729184608E+02  0.99529078031E+02  0.00000000000E+00 0. -1.
         11    1    1    2    0    0  0.48136820069E+02  0.31000407860E+02  0.73021885448E+02  0.92792103588E+02  0.00000000000E+00 0.  1.
</event>
<event>
 7    1  0.2732144E-009  0.1518313E+03  0.7561462E-02  0.1198241E+00
         -1   -1    0    0    0  501 -0.00000000000E+00  0.00000000000E+00  0.11682467976E+03  0.11682467976E+03  0.00000000000E+00 0.  1.
          1   -1    0    0  501    0  0.00000000000E+00 -0.00000000000E+00 -0.34228050031E+03  0.34228050031E+03  0.00000000000E+00 0. -1.
         25    2    1    2    0    0  0.10983716297E+03 -0.30300043672E+02  0.23488862911E+02  0.17082217254E+03  0.12508474302E+03 0.  0.
          5    1    3    3  502    0 -0.23941451086E+02 -0.25544804422E+02  0.57267956079E+01  0.35721124016E+02  0.41800000000E+01 0.  1.
         -5    1    3    3    0  502  0.13377861405E+03 -0.47552392506E+01  0.17762067303E+02  0.13510104853E+03  0.41800000000E+01 0.  1.
        -11    1    1    2    0    0 -0.26918336381E+02  0.42858416407E+02 -0.44827058115E+02  0.67608474541E+02  0.00000000000E+00 0.  1.
         11    1    1    2    0    0 -0.82918826586E+02 -0.12558372735E+02 -0.20411762535E+03  0.22067453298E+03  0.00000000000E+00 0. -1.
</event>
<event>
 7    1  0.2732144E-009  0.1073136E+03  0.7561462E-02  0.1265627E+00
         -2   -1    0    0    0  501 -0.00000000000E+00  0.00000000000E+00  0.27427465628E+03  0.27427465628E+03  0.00000000000E+00 0. -1.
          2   -1    0    0  501    0  0.00000000000E+00 -0.00000000000E+00 -0.61158093305E+02  0.61158093305E+02  0.00000000000E+00 0.  1.
         25    2    1    2    0    0  0.76322713773E+01  0.49006121155E+02  0.18744456644E+03  0.23074385627E+03  0.12508960885E+03 0.  0.
          5    1    3    3  502    0 -0.16617221941E+02  0.82095752373E+02  0.16163450654E+03  0.18209621283E+03  0.41800000000E+01 0.  1.
         -5    1    3    3    0  502  0.24249493319E+02 -0.33089631218E+02  0.25810059895E+02  0.48647643439E+02  0.41800000000E+01 0.  1.
        -11    1    1    2    0    0 -0.38674218716E+02 -0.10516736858E+02 -0.12761907246E+02  0.42061422040E+02  0.00000000000E+00 0.  1.
         11    1    1    2    0    0  0.31041947339E+02 -0.38489384297E+02  0.38433903785E+02  0.62627471275E+02  0.00000000000E+00 0. -1.
</event>
<event>
 7    1  0.2732144E-009  0.1196486E+03  0.7561462E-02  0.1243678E+00
         -2   -1    0    0    0  501 -0.00000000000E+00  0.00000000000E+00  0.21844970549E+02  0.21844970549E+02  0.00000000000E+00 0.  1.
          2   -1    0    0  501    0  0.00000000000E+00 -0.00000000000E+00 -0.66201118795E+03  0.66201118795E+03  0.00000000000E+00 0. -1.
         25    2    1    2    0    0 -0.12041422764E+02  0.50505454322E+02 -0.33472088710E+03  0.36108265870E+03  0.12508723905E+03 0.  0.
          5    1    3    3  502    0  0.54042904126E+02  0.42121572895E+02 -0.17428020232E+03  0.18731236935E+03  0.41800000000E+01 0. -1.
         -5    1    3    3    0  502 -0.66084326890E+02  0.83838814272E+01 -0.16044068478E+03  0.17377028935E+03  0.41800000000E+01 0. -1.
        -11    1    1    2    0    0  0.48893078187E+02 -0.45365103700E+02 -0.20974543481E+03  0.22009469133E+03  0.00000000000E+00 0. -1.
         11    1    1    2    0    0 -0.36851655422E+02 -0.51403506222E+01 -0.95699895484E+02  0.10267880846E+03  0.00000000000E+00 0.  1.
</event>
<event>
 7    1  0.2732144E-009  0.1045215E+03  0.7561462E-02  0.1271065E+00
          4   -1    0    0  501    0  0.00000000000E+00  0.00000000000E+00  0.24010538407E+03  0.24010538407E+03  0.00000000000E+00 0. -1.
         -4   -1    0    0    0  501 -0.00000000000E+00 -0.00000000000E+00 -0.64714025825E+02  0.64714025825E+02  0.00000000000E+00 0.  1.
         25    2    1    2    0    0 -0.18234624055E+02 -0.60970196022E+02  0.10173498381E+03  0.17334206666E+03  0.12509036265E+03 0.  0.
          5    1    3    3  502    0 -0.36644267984E+02 -0.85817853511E+02  0.35140880901E+02  0.99799099534E+02  0.41800000000E+01 0. -1.
         -5    1    3    3    0  502  0.18409643929E+02  0.24847657489E+02  0.66594102904E+02  0.73542967127E+02  0.41800000000E+01 0. -1.
        -11    1    1    2    0    0  0.81381524961E+01 -0.99160572705E+01  0.56379923792E+02  0.57820874471E+02  0.00000000000E+00 0. -1.
         11    1    1    2    0    0  0.10096471559E+02  0.70886253292E+02  0.17276450649E+02  0.73656468764E+02  0.00000000000E+00 0.  1.
</event>
<event>
 7    1  0.2732144E-009  0.1032718E+03  0.7561462E-02  0.1273562E+00
         -1   -1    0    0    0  501 -0.00000000000E+00  0.00000000000E+00  0.44462104794E+03  0.44462104794E+03  0.00000000000E+00 0.  1.
          1   -1    0    0  501    0  0.00000000000E+00 -0.00000000000E+00 -0.39248343174E+02  0.39248343174E+02  0.00000000000E+00 0. -1.
         25    2    1    2    0    0  0.47670958204E+02 -0.58820448219E+02  0.23377107497E+03  0.27573456521E+03  0.12509304367E+03 0.  0.
          5    1    3    3  502    0 -0.21128863399E+02 -0.40518903568E+02  0.19413645200E+02  0.49825419565E+02  0.41800000000E+01 0. -1.
         -5    1    3    3    0  502  0.68799821603E+02 -0.18301544652E+02  0.21435742977E+03  0.22590914565E+03  0.41800000000E+01 0. -1.
        -11    1    1    2    0    0  0.22276985848E+00  0.36501275904E+02  0.14393415069E+03  0.14849051318E+03  0.00000000000E+00 0.  1.
         11    1    1    2    0    0 -0.47893728062E+02  0.22319172315E+02  0.27667479113E+02  0.59644312730E+02  0.00000000000E+00 0. -1.
</event>
<event>
 7    1  0.2732144E-009  0.1149745E+03  0.7561462E-02  0.1251626E+00
         -2   -1    0    0    0  501 -0.00000000000E+00  0.00000000000E+00  0.42313259855E+02  0.42313259855E+02  0.00000000000E+00 0.  1.
          2   -1    0    0  501    0  0.00000000000E+00 -0.00000000000E+00 -0.47648158574E+03  0.47648158574E+03  0.00000000000E+00 0. -1.
         25    2    1    2    0    0 -0.53402923831E+02 -0.73991956207E+02 -0.25915291268E+03  0.30188584502E+03  0.12509256339E+03 0.  0.
          5    1    3    3  502    0  0.23041202627E+02  0.91046099783E+01 -0.78037594997E+01  0.26308971924E+02  0.41800000000E+01 0. -1.
         -5    1    3    3    0  502 -0.76444126458E+02 -0.83096566185E+02 -0.25134915318E+03  0.27557687310E+03  0.41800000000E+01 0. -1.
        -11    1    1    2    0    0  0.35908497054E+02  0.41065797807E+02 -0.17090258330E+03  0.17939763903E+03  0.00000000000E+00 0. -1.
         11    1    1    2    0    0  0.17494426777E+02  0.32926158400E+02 -0.41128299062E+01  0.37511361546E+02  0.00000000000E+00 0.  1.
</event>
<event>
 7    1  0.2732144E-009  0.8653103E+02  0.7561462E-02  0.1311477E+00
          2   -1    0    0  501    0  0.00000000000E+00  0.00000000000E+00  0.48356927155E+02  0.48356927155E+02  0.00000000000E+00 0. -1.
         -2   -1    0    0    0  501 -0.00000000000E+00 -0.00000000000E+00 -0.34264233890E+03  0.34264233890E+03  0.00000000000E+00 0.  1.
         25    2    1    2    0    0 -0.31738710170E+02  0.34587068283E+02 -0.85107522904E+02  0.15841310787E+03  0.12509121181E+03 0.  0.
          5    1    3    3  502    0 -0.54834140972E+02  0.92387537784E+01  0.10510657994E+02  0.56745783270E+02  0.41800000000E+01 0.  1.
         -5    1    3    3    0  502  0.23095430802E+02  0.25348314504E+02 -0.95618180898E+02  0.10166732460E+03  0.41800000000E+01 0.  1.
        -11    1    1    2    0    0  0.50150013097E+02 -0.85656282512E+01 -0.18688932389E+03  0.19369050876E+03  0.00000000000E+00 0.  1.
         11    1    1    2    0    0 -0.18411302927E+02 -0.26021440031E+02 -0.22288564953E+02  0.38895649428E+02  0.00000000000E+00 0. -1.
</event>
<event>
 7    1  0.2732144E-009  0.1504048E+03  0.7561462E-02  0.1199976E+00
         -1   -1    0    0    0  501 -0.00000000000E+00  0.00000000000E+00  0.23978954741E+02  0.23978954741E+02  0.00000000000E+00 0.  1.
          1   -1    0    0  501    0  0.00000000000E+00 -0.00000000000E+00 -0.10344352893E+04  0.10344352893E+04  0.00000000000E+00 0. -1.
         25    2    1    2    0    0  0.11186026813E+03 -0.69319639960E+01 -0.63306384989E+03  0.65496505721E+03  0.12509442999E+03 0.  0.
          5    1    3    3  502    0 -0.25437855914E+02  0.11657734482E+02 -0.13748946532E+03  0.14037027021E+03  0.41800000000E+01 0.  1.
         -5    1    3    3    0  502  0.13729812405E+03 -0.18589698478E+02 -0.49557438458E+03  0.51459478700E+03  0.41800000000E+01 0.  1.
        -11    1    1    2    0    0 -0.10390152454E+03  0.31101910100E+02 -0.23525278261E+03  0.25904966192E+03  0.00000000000E+00 0.  1.
         11    1    1    2    0    0 -0.79587435918E+01 -0.24169946104E+02 -0.14213970205E+03  0.14439952491E+03  0.00000000000E+00 0. -1.
</event>
<event>
 7    1  0.2732144E-009  0.8652059E+02  0.7561462E-02  0.1311503E+00
          1   -1    0    0  501    0  0.00000000000E+00  0.00000000000E+00  0.32015464577E+02  0.32015464577E+02  0.00000000000E+00 0. -1.
         -1   -1    0    0    0  501 -0.00000000000E+00 -0.00000000000E+00 -0.50942115201E+03  0.50942115201E+03  0.00000000000E+00 0.  1.
         25    2    1    2    0    0 -0.53338975963E+02 -0.78757917760E+01 -0.34494480041E+03  0.37086543522E+03  0.12508869357E+03 0.  0.
          5    1    3    3  502    0  0.18525839201E+02 -0.99468070722E+00 -0.61871047306E+00  0.19027645951E+02  0.41800000000E+01 0. -1.
         -5    1    3    3    0  502 -0.71864815164E+02 -0.68811110687E+01 -0.34432608994E+03  0.35183778927E+03  0.41800000000E+01 0. -1.
        -11    1    1    2    0    0  0.63417743585E+02  0.19477111293E+02 -0.41348930362E+02  0.78172259196E+02  0.00000000000E+00 0. -1.
         11    1    1    2    0    0 -0.10078767622E+02 -0.11601319517E+02 -0.91111956657E+02  0.92398922164E+02  0.00000000000E+00 0.  1.
</event>
<event>
 7    1  0.2732144E-009  0.1025883E+03  0.7561462E-02  0.1274945E+00
         -1   -1    0    0    0  501 -0.00000000000E+00  0.00000000000E+00  0.18927406965E+02  0.18927406965E+02  0.00000000000E+00 0.  1.
          1   -1    0    0  501    0  0.00000000000E+00 -0.00000000000E+00 -0.73377159097E+03  0.73377159097E+03  0.00000000000E+00 0. -1.
         25    2    1    2    0    0  0.92782114915E+01  0.43249416615E+02 -0.55128710001E+03  0.56702786261E+03  0.12508610272E+03 0.  0.
          5    1    3    3  502    0  0.62869336269E+02  0.45586788152E+02 -0.36088561461E+03  0.36917016121E+03  0.41800000000E+01 0.  1.
         -5    1    3    3    0  502 -0.53591124778E+02 -0.23373715367E+01 -0.19040148540E+03  0.19785770140E+03  0.41800000000E+01 0.  1.
        -11    1    1    2    0    0  0.17442135810E+02 -0.43514555712E+02 -0.48117413396E+02  0.67179089993E+02  0.00000000000E+00 0.  1.
         11    1    1    2    0    0 -0.26720347302E+02  0.26513909679E+00 -0.11543967061E+03  0.11849204534E+03  0.00000000000E+00 0. -1.
</event>
<event>
 7    1  0.2732144E-009  0.3124547E+03  0.7561462E-02  0.1079175E+00
         -1   -1    0    0    0  501 -0.00000000000E+00  0.00000000000E+00  0.31305892512E+03  0.31305892512E+03  0.00000000000E+00 0.  1.
          1   -1    0    0  501    0  0.00000000000E+00 -0.00000000000E+00 -0.33585187460E+03  0.33585187460E+03  0.00000000000E+00 0. -1.
         25    2    1    2    0    0  0.29381608364E+03  0.48159170544E+02  0.27688200363E+02  0.32413348307E+03  0.12509469091E+03 0.  0.
          5    1    3    3  502    0  0.27888912065E+02 -0.24162740636E+02 -0.23297880844E+02  0.43839401262E+02  0.41800000000E+01 0.  1.
         -5    1    3    3    0  502  0.26592717157E+03  0.72321911179E+02  0.50986081207E+02  0.28029408180E+03  0.41800000000E+01 0.  1.
        -11    1    1    2    0    0 -0.22980350599E+03 -0.76426802955E+02 -0.70068002784E+02  0.25211154791E+03  0.00000000000E+00 0.  1.
         11    1    1    2    0    0 -0.64012577646E+02  0.28267632412E+02  0.19586852935E+02  0.72665768743E+02  0.00000000000E+00 0. -1.
</event>
<event>
 7    1  0.2732144E-009  0.1212219E+03  0.7561462E-02  0.1241095E+00
          1   -1    0    0  501    0  0.00000000000E+00  0.00000000000E+00  0.10757997263E+03  0.10757997263E+03  0.00000000000E+00 0. -1.
         -1   -1    0    0    0  501 -0.00000000000E+00 -0.00000000000E+00 -0.23973495368E+03  0.23973495368E+03  0.00000000000E+00 0.  1.
         25    2    1    2    0    0 -0.66685862736E+02 -0.22319671629E+02 -0.17337641465E+03  0.22506263433E+03  0.12509450902E+03 0.  0.
          5    1    3    3  502    0 -0.76690092621E+02  0.25572391315E+02 -0.15050501125E+03  0.17089338289E+03  0.41800000000E+01 0.  1.
         -5    1    3    3    0  502  0.10004229885E+02 -0.47892062944E+02 -0.22871403396E+02  0.54169251443E+02  0.41800000000E+01 0.  1.
        -11    1    1    2    0    0  0.83958991415E+02 -0.26263001914E+00  0.18786303736E+02  0.86035495128E+02  0.00000000000E+00 0.  1.
         11    1    1    2    0    0 -0.17273128679E+02  0.22582301648E+02  0.22435129863E+02  0.36216796850E+02  0.00000000000E+00 0. -1.
</event>
<event>
 7    1  0.2732144E-009  0.1839431E+03  0.7561462E-02  0.1164041E+00
          1   -1    0    0  501    0  0.00000000000E+00  0.00000000000E+00  0.12945822719E+03  0.12945822719E+03  0.00000000000E+00 0. -1.
         -1   -1    0    0    0  501 -0.00000000000E+00 -0.00000000000E+00 -0.34928766439E+03  0.34928766439E+03  0.00000000000E+00 0.  1.
         25    2    1    2    0    0  0.14293134648E+03 -0.11347710644E+03 -0.13679230021E+03  0.26012659185E+03  0.12508911584E+03 0.  0.
          5    1    3    3  502    0  0.82155039331E+02 -0.63844345097E+02 -0.20554611659E+01  0.10415012342E+03  0.41800000000E+01 0. -1.
         -5    1    3    3    0  502  0.60776307145E+02 -0.49632761342E+02 -0.13473683904E+03  0.15597646843E+03  0.41800000000E+01 0. -1.
        -11    1    1    2    0    0 -0.11550628010E+03  0.10594803749E+03 -0.31670750088E+02  0.15990535889E+03  0.00000000000E+00 0. -1.
         11    1    1    2    0    0 -0.27425066379E+02  0.75290689489E+01 -0.51366386911E+02  0.58713940844E+02  0.00000000000E+00 0.  1.
</event>
<event>
 6    1  0.2732144E-009  0.1342414E+03  0.7561462E-02  0.1221295E+00
         -2   -1    0    0    0  501 -0.00000000000E+00  0.00000000000E+00  0.31905026864E+03  0.31905026864E+03  0.00000000000E+00 0.  1.
          2   -1    0    0  501    0  0.00000000000E+00 -0.00000000000E+00 -0.59945996383E+02  0.59945996383E+02  0.00000000000E+00 0. -1.
          5    1    1    2  502    0  0.63666021993E+02  0.46960480226E+02  0.11073726594E+03  0.13615749530E+03  0.41800000000E+01 0. -1.
         -5    1    1    2    0  502  0.19927290727E+02 -0.64252316077E+02  0.45176223353E+02  0.81140745581E+02  0.41800000000E+01 0. -1.
        -11    1    1    2    0    0 -0.10199824801E+03  0.17297556380E+02  0.74025295785E+02  0.12721081900E+03  0.00000000000E+00 0. -1.
         11    1    1    2    0    0  0.18404935294E+02 -0.57205290084E-02  0.29165487185E+02  0.34487205144E+02  0.00000000000E+00 0.  1.
</event>
<event>
 7    1  0.2732144E-009  0.1774510E+03  0.7561462E-02  0.1170293E+00
          1   -1    0    0  501    0  0.00000000000E+00  0.00000000000E+00  0.14490589219E+03  0.14490589219E+03  0.00000000000E+00 0. -1.
         -1   -1    0    0    0  501 -0.00000000000E+00 -0.00000000000E+00 -0.22924402086E+03  0.22924402086E+03  0.00000000000E+00 0.  1.
         25    2    1    2    0    0  0.14010583656E+03 -0.43426147059E+02 -0.31033542653E+02  0.19525767449E+03  0.12508798101E+03 0.  0.
          5    1    3    3  502    0  0.14257656623E+03  0.52062403867E+01 -0.32401647258E+02  0.14636434444E+03  0.41800000000E+01 0. -1.
         -5    1    3    3    0  502 -0.24707296756E+01 -0.48632387445E+02  0.13681046057E+01  0.48893330056E+02  0.41800000000E+01 0. -1.
        -11    1    1    2    0    0 -0.10869737487E+03 -0.12243068444E+01 -0.59547494452E+02  0.12394564263E+03  0.00000000000E+00 0. -1.
         11    1    1    2    0    0 -0.31408461685E+02  0.44650453903E+02  0.62429084294E+01  0.54946595935E+02  0.00000000000E+00 0.  1.
</event>
<event>
 7    1  0.2732144E-009  0.1080481E+03  0.7561462E-02  0.1264228E+00
          1   -1    0    0  501    0  0.00000000000E+00  0.00000000000E+00  0.34937851959E+03  0.34937851959E+03  0.00000000000E+00 0. -1.
         -1   -1    0    0    0  501 -0.00000000000E+00 -0.00000000000E+00 -0.11031510319E+03  0.11031510319E+03  0.00000000000E+00 0.  1.
         25    2    1    2    0    0  0.69038777691E+02 -0.58118417282E+02  0.28450869642E+03  0.32363225667E+03  0.12509410845E+03 0.  0.
          5    1    3    3  502    0  0.29629068326E+02  0.16826150483E+02  0.20349310219E+03  0.20636839891E+03  0.41800000000E+01 0. -1.
         -5    1    3    3    0  502  0.39409709365E+02 -0.74944567766E+02  0.81015594232E+02  0.11726385777E+03  0.41800000000E+01 0. -1.
        -11    1    1    2    0    0 -0.61703485358E+02  0.31304456978E+02 -0.70396829696E+02  0.98706650046E+02  0.00000000000E+00 0.  1.
         11    1    1    2    0    0 -0.73352923330E+01  0.26813960304E+02  0.24951549674E+02  0.37354716060E+02  0.00000000000E+00 0. -1.
</event>
<event>
 7    1  0.2732144E-009  0.8448165E+02  0.7561462E-02  0.1316794E+00
         -2   -1    0    0    0  501 -0.00000000000E+00  0.00000000000E+00  0.85538696172E+03  0.85538696172E+03  0.00000000000E+00 0.  1.
          2   -1    0    0  501    0  0.00000000000E+00 -0.00000000000E+00 -0.16594828383E+02  0.16594828383E+02  0.00000000000E+00 0. -1.
         25    2    1    2    0    0 -0.16283689128E+02 -0.22740801421E+02  0.61012688005E+03  0.62344560963E+03  0.12508923143E+03 0.  0.
          5    1    3    3  502    0 -0.42525209483E+02  0.52139309527E+00  0.68957082761E+02  0.81124700032E+02  0.41800000000E+01 0.  1.
         -5    1    3    3    0  502  0.26241520355E+02 -0.23262194516E+02  0.54116979729E+03  0.54232090960E+03  0.41800000000E+01 0.  1.
        -11    1    1    2    0    0 -0.19258576204E+02  0.45019966847E+02  0.77621370603E+02  0.91775635909E+02  0.00000000000E+00 0. -1.
         11    1    1    2    0    0  0.35542265332E+02 -0.22279165426E+02  0.15104388268E+03  0.15676054457E+03  0.00000000000E+00 0.  1.
</event>
<event>
 7    1  0.2732144E-009  0.9712218E+02  0.7561462E-02  0.1286467E+00
          3   -1    0    0  501    0  0.00000000000E+00  0.00000000000E+00  0.22479392242E+03  0.22479392242E+03  0.00000000000E+00 0. -1.
         -3   -1    0    0    0  501 -0.00000000000E+00 -0.00000000000E+00 -0.78817573638E+02  0.78817573638E+02  0.00000000000E+00 0.  1.
         25    2    1    2    0    0  0.90984457056E+01 -0.21913919044E+02  0.15879228124E+03  0.20353241888E+03  0.12508978932E+03 0.  0.
          5    1    3    3  502    0 -0.51772982999E+02  0.14376276996E+02  0.49311641525E+02  0.73049500332E+02  0.41800000000E+01 0.  1.
         -5    1    3    3    0  502  0.60871428704E+02 -0.36290196040E+02  0.10948063972E+03  0.13048291855E+03  0.41800000000E+01 0.  1.
        -11    1    1    2    0    0 -0.17832017371E+02  0.42991684153E+02  0.27278256119E+02  0.53947835978E+02  0.00000000000E+00 0. -1.
         11    1    1    2    0    0  0.87335716654E+01 -0.21077765109E+02 -0.40094188581E+02  0.46131241193E+02  0.00000000000E+00 0.  1.
</event>
<event>
 7    1  0.2732144E-009  0.1596445E+03  0.7561462E-02  0.1189099E+00
          1   -1    0    0  501    0  0.00000000000E+00  0.00000000000E+00  0.24363231882E+04  0.24363231882E+04  0.00000000000E+00 0. -1.
         -1   -1    0    0    0  501 -0.00000000000E+00 -0.00000000000E+00 -0.16448645056E+02  0.16448645056E+02  0.00000000000E+00 0.  1.
         25    2    1    2    0    0  0.14004195568E+03  0.34453187116E+02  0.18228072845E+04  0.18327780191E+04  0.12510035762E+03 0.  0.
          5    1    3    3  502    0  0.14648060362E+03  0.31414010304E+02  0.18157271346E+04  0.18219017281E+04  0.41800000000E+01 0. -1.
         -5    1    3    3    0  502 -0.64386479359E+01  0.30391768119E+01  0.70801499198E+01  0.10876290996E+02  0.41800000000E+01 0. -1.
        -11    1    1    2    0    0 -0.11661230439E+03  0.33816526167E+01  0.49647479346E+03  0.50999714279E+03  0.00000000000E+00 0. -1.
         11    1    1    2    0    0 -0.23429651289E+02 -0.37834839733E+02  0.10059246520E+03  0.10999667136E+03  0.00000000000E+00 0.  1.
</event>
<event>
 7    1  0.2732144E-009  0.1285769E+03  0.7561462E-02  0.1229583E+00
          1   -1    0    0  501    0  0.00000000000E+00  0.00000000000E+00  0.36634302048E+02  0.36634302048E+02  0.00000000000E+00 0. -1.
         -1   -1    0    0    0  501 -0.00000000000E+00 -0.00000000000E+00 -0.72434067295E+03  0.72434067295E+03  0.00000000000E+00 0.  1.
         25    2    1    2    0    0 -0.97195945854E+02  0.68846010347E+02 -0.41740741950E+03  0.45173317642E+03  0.12508830400E+03 0.  0.
          5    1    3    3  502    0 -0.81286710623E+02  0.62268290237E+02 -0.42130832062E+03  0.43359317651E+03  0.41800000000E+01 0.  1.
         -5    1    3    3    0  502 -0.15909235231E+02  0.65777201094E+01  0.39009011175E+01  0.18139999917E+02  0.41800000000E+01 0.  1.
        -11    1    1    2    0    0  0.15004644504E+02 -0.50582720283E+02 -0.17150551372E+03  0.17943771115E+03  0.00000000000E+00 0. -1.
         11    1    1    2    0    0  0.82191301350E+02 -0.18263290063E+02 -0.98793437683E+02  0.12980408742E+03  0.00000000000E+00 0.  1.
</event>
<event>
 7    1  0.2732144E-009  0.1347321E+03  0.7561462E-02  0.1220598E+00
          2   -1    0    0  501    0  0.00000000000E+00  0.00000000000E+00  0.37466930691E+03  0.37466930691E+03  0.00000000000E+00 0. -1.
         -2   -1    0    0    0  501 -0.00000000000E+00 -0.00000000000E+00 -0.67031537870E+02  0.67031537870E+02  0.00000000000E+00 0.  1.
         25    2    1    2    0    0  0.10839202760E+03  0.27408620359E+02  0.20597699718E+03  0.26565792545E+03  0.12509015097E+03 0.  0.
          5    1    3    3  502    0  0.10143275596E+02 -0.30383985627E+02  0.25112053967E+01  0.32401406990E+02  0.41800000000E+01 0.  1.
         -5    1    3    3    0  502  0.98248752000E+02  0.57792605986E+02  0.20346579178E+03  0.23325651846E+03  0.41800000000E+01 0.  1.
        -11    1    1    2    0    0 -0.58415097333E+02  0.11776538093E+02  0.42279038488E+01  0.59740150793E+02  0.00000000000E+00 0.  1.
         11    1    1    2    0    0 -0.49976930263E+02 -0.39185158452E+02  0.97432868008E+02  0.11630276854E+03  0.00000000000E+00 0. -1.
</event>
<event>
 7    1  0.2732144E-009  0.1226082E+03  0.7561462E-02  0.1238855E+00
          1   -1    0    0  501    0  0.00000000000E+00  0.00000000000E+00  0.95238595716E+03  0.95238595716E+03  0.00000000000E+00 0. -1.
         -1   -1    0    0    0  501 -0.00000000000E+00 -0.00000000000E+00 -0.24116077414E+02  0.24116077414E+02  0.00000000000E+00 0.  1.
         25    2    1    2    0    0 -0.10450750239E+03 -0.76725216649E+01  0.43296049312E+03  0.46269119132E+03  0.12509062426E+03 0.  0.
          5    1    3    3  502    0 -0.10589037151E+03 -0.85107251355E+01  0.17548812730E+03  0.20517981978E+03  0.41800000000E+01 0. -1.
         -5    1    3    3    0  502  0.13828691206E+01  0.83820347060E+00  0.25747236582E+03  0.25751137154E+03  0.41800000000E+01 0. -1.
        -11    1    1    2    0    0  0.39694399782E+02 -0.38142068894E+02  0.15891855860E+03  0.16818314738E+03  0.00000000000E+00 0.  1.
         11    1    1    2    0    0  0.64813102610E+02  0.45814590559E+02  0.33639082802E+03  0.34562769588E+03  0.00000000000E+00 0. -1.
</event>
<event>
 7    1  0.2732144E-009  0.1302911E+03  0.7561462E-02  0.1227024E+00
          2   -1    0    0  501    0  0.00000000000E+00  0.00000000000E+00  0.86625389437E+03  0.86625389437E+03  0.00000000000E+00 0. -1.
         -2   -1    0    0    0  501 -0.00000000000E+00 -0.00000000000E+00 -0.29308294035E+02  0.29308294035E+02  0.00000000000E+00 0.  1.
         25    2    1    2    0    0  0.29039335745E+01 -0.74537569495E+02  0.70237984071E+03  0.71732101887E+03  0.12509085252E+03 0.  0.
          5    1    3    3  502    0 -0.42692674064E+02  0.13074877912E+02  0.16847221307E+03  0.17433868138E+03  0.41800000000E+01 0.  1.
         -5    1    3    3    0  502  0.45596607639E+02 -0.87612447407E+02  0.53390762764E+03  0.54298233749E+03  0.41800000000E+01 0.  1.
        -11    1    1    2    0    0 -0.24361951325E+02  0.88160216424E+02  0.10476607825E+03  0.13907429520E+03  0.00000000000E+00 0. -1.
         11    1    1    2    0    0  0.21458017751E+02 -0.13622646929E+02  0.29799681374E+02  0.39166874335E+02  0.00000000000E+00 0.  1.
</event>
<event>
 7    1  0.2732144E-009  0.1147027E+03  0.7561462E-02  0.1252101E+00
         -1   -1    0    0    0  501 -0.00000000000E+00  0.00000000000E+00  0.77087686144E+03  0.77087686144E+03  0.00000000000E+00 0.  1.
          1   -1    0    0  501    0  0.00000000000E+00 -0.00000000000E+00 -0.23403044318E+02  0.23403044318E+02  0.00000000000E+00 0. -1.
         25    2    1    2    0    0  0.45050468232E+02  0.33237528251E+02  0.58834239379E+03  0.60409322954E+03  0.12509028608E+03 0.  0.
          5    1    3    3  502    0 -0.21469979720E+02  0.56533871226E+02  0.18676178990E+03  0.19635294037E+03  0.41800000000E+01 0. -1.
         -5    1    3    3    0  502  0.66520447952E+02 -0.23296342975E+02  0.40158060389E+03  0.40774028917E+03  0.41800000000E+01 0. -1.
        -11    1    1    2    0    0  0.23278122392E+02 -0.30323037622E+01  0.15038904321E+02  0.27878925578E+02  0.00000000000E+00 0.  1.
         11    1    1    2    0    0 -0.68328590624E+02 -0.30205224489E+02  0.14409251900E+03  0.16230775063E+03  0.00000000000E+00 0. -1.
</event>
<event>
 7    1  0.2732144E-009  0.1059266E+03  0.7561462E-02  0.1268305E+00
          1   -1    0    0  501    0  0.00000000000E+00  0.00000000000E+00  0.46422474942E+02  0.46422474942E+02  0.00000000000E+00 0. -1.
         -1   -1    0    0    0  501 -0.00000000000E+00 -0.00000000000E+00 -0.29669499898E+03  0.29669499898E+03  0.00000000000E+00 0.  1.
         25    2    1    2    0    0 -0.24705150920E+02  0.21207502745E+02 -0.18628746200E+03  0.22674057775E+03  0.12509263946E+03 0.  0.
          5    1    3    3  502    0 -0.63900674791E+02 -0.20515262091E+02 -0.70035374404E+02  0.97090670434E+02  0.41800000000E+01 0.  1.
         -5    1    3    3    0  502  0.39195523871E+02  0.41722764837E+02 -0.11625208760E+03  0.12964990732E+03  0.41800000000E+01 0.  1.
        -11    1    1    2    0    0  0.94829186387E+01 -0.52002464453E+02 -0.62689126021E+02  0.82000662049E+02  0.00000000000E+00 0.  1.
         11    1    1    2    0    0  0.15222232281E+02  0.30794961708E+02 -0.12959360166E+01  0.34376234121E+02  0.00000000000E+00 0. -1.
</event>
<event>
 7    1  0.2732144E-009  0.1565003E+03  0.7561462E-02  0.1192706E+00
          2   -1    0    0  501    0  0.00000000000E+00  0.00000000000E+00  0.41128942737E+03  0.41128942737E+03  0.00000000000E+00 0.  1.
         -2   -1    0    0    0  501 -0.00000000000E+00 -0.00000000000E+00 -0.69911892082E+02  0.69911892082E+02  0.00000000000E+00 0. -1.
         25    2    1    2    0    0  0.12836664083E+03 -0.56125652265E+01  0.20153228065E+03  0.26976122022E+03  0.12508541252E+03 0.  0.
          5    1    3    3  502    0  0.15200624455E+03  0.16874808514E+01  0.15654026500E+03  0.21824544197E+03  0.41800000000E+01 0. -1.
         -5    1    3    3    0  502 -0.23639603720E+02 -0.73000460780E+01  0.44992015651E+02  0.51515778253E+02  0.41800000000E+01 0. -1.
        -11    1    1    2    0    0 -0.37742793427E+02  0.22081388717E+02  0.10361238581E+03  0.11246169426E+03  0.00000000000E+00 0.  1.
         11    1    1    2    0    0 -0.90623847408E+02 -0.16468823491E+02  0.36232868834E+02  0.98978404968E+02  0.00000000000E+00 0. -1.
</event>
<event>
 7    1  0.2732144E-009  0.1133028E+03  0.7561462E-02  0.1254573E+00
         -2   -1    0    0    0  501 -0.00000000000E+00  0.00000000000E+00  0.59187960392E+03  0.59187960392E+03  0.00000000000E+00 0.  1.
          2   -1    0    0  501    0  0.00000000000E+00 -0.00000000000E+00 -0.11150598823E+03  0.11150598823E+03  0.00000000000E+00 0. -1.
         25    2    1    2    0    0 -0.78786146140E+02 -0.35724212698E+02  0.54170779180E+03  0.56265390127E+03  0.12509438326E+03 0.  0.
          5    1    3    3  502    0 -0.50984387318E+02 -0.75605282939E+02  0.44576546788E+03  0.45501636378E+03  0.41800000000E+01 0.  1.
         -5    1    3    3    0  502 -0.27801758822E+02  0.39881070241E+02  0.95942323921E+02  0.10763753749E+03  0.41800000000E+01 0.  1.
        -11    1    1    2    0    0  0.63330906877E+02  0.29491316349E+02 -0.86102416146E+02  0.11087906733E+03  0.00000000000E+00 0. -1.
         11    1    1    2    0    0  0.15455239264E+02  0.62328963490E+01  0.24768240038E+02  0.29852623540E+02  0.00000000000E+00 0.  1.
</event>
<event>
 7    1  0.2732144E-009  0.3317031E+03  0.7561462E-02  0.1070386E+00
          2   -1    0    0  501    0  0.00000000000E+00  0.00000000000E+00  0.31426278533E+04  0.31426278533E+04  0.00000000000E+00 0. -1.
         -2   -1    0    0    0  501 -0.00000000000E+00 -0.00000000000E+00 -0.36339033837E+02  0.36339033837E+02  0.00000000000E+00 0.  1.
         25    2    1    2    0    0  0.31911284867E+03  0.59711275491E+00  0.14768189223E+04  0.15160719677E+04  0.12508683091E+03 0.  0.
          5    1    3    3  502    0  0.20678280167E+03  0.49908876425E+02  0.77865192660E+03  0.80719657965E+03  0.41800000000E+01 0.  1.
         -5    1    3    3    0  502  0.11233004700E+03 -0.49311763670E+02  0.69816699568E+03  0.70887538803E+03  0.41800000000E+01 0.  1.
        -11    1    1    2    0    0 -0.11393067825E+03 -0.36420068166E+02  0.47795220060E+03  0.49269151288E+03  0.00000000000E+00 0.  1.
         11    1    1    2    0    0 -0.20518217042E+03  0.35822955411E+02  0.11515176966E+04  0.11702034066E+04  0.00000000000E+00 0. -1.
</event>
<event>
 7    1  0.2732144E-009  0.1121647E+03  0.7561462E-02  0.1256613E+00
         -2   -1    0    0    0  501 -0.00000000000E+00  0.00000000000E+00  0.10112017847E+03  0.10112017847E+03  0.00000000000E+00 0.  1.
          2   -1    0    0  501    0  0.00000000000E+00 -0.00000000000E+00 -0.19182902347E+03  0.19182902347E+03  0.00000000000E+00 0. -1.
         25    2    1    2    0    0  0.14999617323E+02  0.35315107245E+02  0.32165594808E+02  0.13473843911E+03  0.12509067178E+03 0.  0.
          5    1    3    3  502    0  0.24954607723E+02 -0.41286106669E+02 -0.54339667879E+01  0.48726537385E+02  0.41800000000E+01 0. -1.
         -5    1    3    3    0  502 -0.99549903996E+01  0.76601213914E+02  0.37599561596E+02  0.86011901730E+02  0.41800000000E+01 0. -1.
        -11    1    1    2    0    0  0.34113069408E+02  0.56697833863E+01 -0.54792820604E+02  0.64792755288E+02  0.00000000000E+00 0.  1.
         11    1    1    2    0    0 -0.49112686731E+02 -0.40984890631E+02 -0.68081619212E+02  0.93418007539E+02  0.00000000000E+00 0. -1.
</event>
<event>
 7    1  0.3958933E-009  0.8340469E+02  0.7561462E-02  0.1319658E+00
          1   -1    0    0  501    0  0.00000000000E+00  0.00000000000E+00  0.58107873606E+03  0.58107873606E+03  0.00000000000E+00 0. -1.
         -1   -1    0    0    0  501 -0.00000000000E+00 -0.00000000000E+00 -0.26305404101E+02  0.26305404101E+02  0.00000000000E+00 0.  1.
         25    2    1    2    0    0  0.40540786258E+02 -0.30991010875E+02  0.38770684554E+03  0.41057019682E+03  0.12508912956E+03 0.  0.
          5    1    3    3  502    0  0.68878720146E+02 -0.52371345109E+01  0.10831356311E+03  0.12853406560E+03  0.41800000000E+01 0.  1.
         -5    1    3    3    0  502 -0.28337933888E+02 -0.25753876364E+02  0.27939328243E+03  0.28203613122E+03  0.41800000000E+01 0.  1.
        -11    1    1    2    0    0 -0.46077227417E+01  0.21405907309E+02 -0.35581289083E+01  0.22183423043E+02  0.00000000000E+00 0.  1.
         11    1    1    2    0    0 -0.35933063516E+02  0.95851035658E+01  0.17062461534E+03  0.17463052031E+03  0.00000000000E+00 0. -1.
</event>
<event>
 7    1  0.2732144E-009  0.1082975E+03  0.7561462E-02  0.1263755E+00
          2   -1    0    0  501    0  0.00000000000E+00  0.00000000000E+00  0.64789173277E+02  0.64789173277E+02  0.00000000000E+00 0. -1.
         -2   -1    0    0    0  501 -0.00000000000E+00 -0.00000000000E+00 -0.22836930628E+03  0.22836930628E+03  0.00000000000E+00 0.  1.
         25    2    1    2    0    0 -0.32652693521E+02 -0.43860038515E+02 -0.50133186890E+02  0.14543636937E+03  0.12509396363E+03 0.  0.
          5    1    3    3  502    0 -0.38067002419E+02  0.30246610810E+02 -0.51572160667E+02  0.71000804886E+02  0.41800000000E+01 0. -1.
         -5    1    3    3    0  502  0.54143088981E+01 -0.74106649325E+02  0.14389737770E+01  0.74435564487E+02  0.41800000000E+01 0. -1.
        -11    1    1    2    0    0  0.19273057177E+02 -0.20206925308E+02 -0.45459894978E+02  0.53351406868E+02  0.00000000000E+00 0.  1.
         11    1    1    2    0    0  0.13379636344E+02  0.64066963824E+02 -0.67987051135E+02  0.94370703316E+02  0.00000000000E+00 0. -1.
</event>
<event>
 7    1  0.2732144E-009  0.1444498E+03  0.7561462E-02  0.1207464E+00
         -2   -1    0    0    0  501 -0.00000000000E+00  0.00000000000E+00  0.72832898620E+02  0.72832898620E+02  0.00000000000E+00 0.  1.
          2   -1    0    0  501    0  0.00000000000E+00 -0.00000000000E+00 -0.36721456370E+03  0.36721456370E+03  0.00000000000E+00 0. -1.
         25    2    1    2    0    0 -0.10790636185E+03 -0.34279227872E+02 -0.91526747279E+02  0.19194742790E+03  0.12509125157E+03 0.  0.
          5    1    3    3  502    0 -0.82640915518E+02 -0.70508546434E+02 -0.98905118556E+02  0.14697166705E+03  0.41800000000E+01 0. -1.
         -5    1    3    3    0  502 -0.25265446333E+02  0.36229318562E+02  0.73783712764E+01  0.44975760856E+02  0.41800000000E+01 0. -1.
        -11    1    1    2    0    0  0.14179317118E+02  0.39480223019E+02 -0.10215514015E+03  0.11043284703E+03  0.00000000000E+00 0. -1.
         11    1    1    2    0    0  0.93727044732E+02 -0.52009951472E+01 -0.10069977765E+03  0.13766718739E+03  0.00000000000E+00 0.  1.
</event>
<event>
 7    1  0.2732144E-009  0.1105355E+03  0.7561462E-02  0.1259581E+00
         -2   -1    0    0    0  501 -0.00000000000E+00  0.00000000000E+00  0.35995653460E+02  0.35995653460E+02  0.00000000000E+00 0.  1.
          2   -1    0    0  501    0  0.00000000000E+00 -0.00000000000E+00 -0.50097462808E+03  0.50097462808E+03  0.00000000000E+00 0. -1.
         25    2    1    2    0    0 -0.18444540002E+02  0.48887847777E+02 -0.37198448275E+03  0.39591661208E+03  0.12508911063E+03 0.  0.
          5    1    3    3  502    0 -0.50603070957E+02  0.69004704457E+02 -0.32097463172E+03  0.33221153898E+03  0.41800000000E+01 0.  1.
         -5    1    3    3    0  502  0.32158530955E+02 -0.20116856679E+02 -0.51009851029E+02  0.63705073094E+02  0.41800000000E+01 0.  1.
        -11    1    1    2    0    0  0.27885598417E+02 -0.69325468802E+02 -0.42972321514E+02  0.86198884215E+02  0.00000000000E+00 0.  1.
         11    1    1    2    0    0 -0.94410584153E+01  0.20437621024E+02 -0.50022170364E+02  0.54854785252E+02  0.00000000000E+00 0. -1.
</event>
<event>
 7    1  0.2732144E-009  0.1218450E+03  0.7561462E-02  0.1240084E+00
          2   -1    0    0  501    0  0.00000000000E+00  0.00000000000E+00  0.20122285965E+04  0.20122285965E+04  0.00000000000E+00 0. -1.
         -2   -1    0    0    0  501 -0.00000000000E+00 -0.00000000000E+00 -0.97229119024E+01  0.97229119024E+01  0.00000000000E+00 0.  1.
         25    2    1    2    0    0  0.43782483814E+01 -0.76949174458E+02  0.13956365305E+04  0.14033495594E+04  0.12509323032E+03 0.  0.
          5    1    3    3  502    0  0.25184339093E+01 -0.10075737938E+03  0.13216095455E+04  0.13254537544E+04  0.41800000000E+01 0.  1.
         -5    1    3    3    0  502  0.18598144721E+01  0.23808204925E+02  0.74026985002E+02  0.77895805023E+02  0.41800000000E+01 0.  1.
        -11    1    1    2    0    0  0.40755859177E+02  0.54801677461E+02  0.30296448157E+03  0.31056680602E+03  0.00000000000E+00 0.  1.
         11    1    1    2    0    0 -0.45134107558E+02  0.22147496997E+02  0.30390467260E+03  0.30803514298E+03  0.00000000000E+00 0. -1.
</event>
<event>
 7    1  0.2732144E-009  0.6087580E+02  0.7561462E-02  0.1394193E+00
          2   -1    0    0  501    0  0.00000000000E+00  0.00000000000E+00  0.92757446693E+03  0.92757446693E+03  0.00000000000E+00 0. -1.
         -2   -1    0    0    0  501 -0.00000000000E+00 -0.00000000000E+00 -0.13188765781E+02  0.13188765781E+02  0.00000000000E+00 0.  1.
         25    2    1    2    0    0 -0.11947610967E+02  0.15107890242E+02  0.58170898993E+03  0.59531798868E+03  0.12508862827E+03 0.  0.
          5    1    3    3  502    0  0.29416415924E+01  0.13934872929E+02  0.57945581263E+03  0.57964587907E+03  0.41800000000E+01 0.  1.
         -5    1    3    3    0  502 -0.14889252560E+02  0.11730173132E+01  0.22531772981E+01  0.15672109601E+02  0.41800000000E+01 0.  1.
        -11    1    1    2    0    0  0.36880694054E+02  0.24728664328E+02  0.12939640748E+03  0.13680322621E+03  0.00000000000E+00 0.  1.
         11    1    1    2    0    0 -0.24933083087E+02 -0.39836554570E+02  0.20328030374E+03  0.20864201782E+03  0.00000000000E+00 0. -1.
</event>
<event>
 7    1  0.2732144E-009  0.1063060E+03  0.7561462E-02  0.1267568E+00
         -1   -1    0    0    0  501 -0.00000000000E+00  0.00000000000E+00  0.22646788391E+02  0.22646788391E+02  0.00000000000E+00 0.  1.
          1   -1    0    0  501    0  0.00000000000E+00 -0.00000000000E+00 -0.73162142155E+03  0.73162142155E+03  0.00000000000E+00 0. -1.
         25    2    1    2    0    0  0.67960716017E+02 -0.11770638679E+02 -0.39481347611E+03  0.41986639440E+03  0.12511155570E+03 0.  0.
          5    1    3    3  502    0 -0.43612418349E+01  0.35917900885E+02 -0.23707494650E+03  0.23985645435E+03  0.41800000000E+01 0. -1.
         -5    1    3    3    0  502  0.72321957852E+02 -0.47688539564E+02 -0.15773852961E+03  0.18000994005E+03  0.41800000000E+01 0. -1.
        -11    1    1    2    0    0  0.10076630304E+02 -0.18421301865E+01  0.16750470188E+00  0.10244997791E+02  0.00000000000E+00 0.  1.
         11    1    1    2    0    0 -0.78037346321E+02  0.13612768866E+02 -0.31432866174E+03  0.32415681774E+03  0.00000000000E+00 0. -1.
</event>
<event>
 7    1  0.2732144E-009  0.1058639E+03  0.7561462E-02  0.1268427E+00
         -3   -1    0    0    0  501 -0.00000000000E+00  0.00000000000E+00  0.11940252209E+03  0.11940252209E+03  0.00000000000E+00 0.  1.
          3   -1    0    0  501    0  0.00000000000E+00 -0.00000000000E+00 -0.13151311754E+03  0.13151311754E+03  0.00000000000E+00 0. -1.
         25    2    1    2    0    0  0.86890859824E+01  0.54063706869E+02 -0.39195282793E+02  0.14206303055E+03  0.12508896771E+03 0.  0.
          5    1    3    3  502    0 -0.39668485391E+02  0.55086245826E+01  0.25554537590E+02  0.47691094236E+02  0.41800000000E+01 0. -1.
         -5    1    3    3    0  502  0.48357571373E+02  0.48555082286E+02 -0.64749820383E+02  0.94371936319E+02  0.41800000000E+01 0. -1.
        -11    1    1    2    0    0  0.35890115379E+02 -0.44575538962E+02  0.30103152173E+01  0.57307425814E+02  0.00000000000E+00 0. -1.
         11    1    1    2    0    0 -0.44579201362E+02 -0.94881679066E+01  0.24074372129E+02  0.51545183264E+02  0.00000000000E+00 0.  1.
</event>
<event>
 7    1  0.2732144E-009  0.1116014E+03  0.7561462E-02  0.1257633E+00
         -2   -1    0    0    0  501 -0.00000000000E+00  0.00000000000E+00  0.45613014140E+02  0.45613014140E+02  0.00000000000E+00 0.  1.
          2   -1    0    0  501    0  0.00000000000E+00 -0.00000000000E+00 -0.54054505321E+03  0.54054505321E+03  0.00000000000E+00 0. -1.
         25    2    1    2    0    0  0.60437097278E+02 -0.39965123009E+02 -0.42948221718E+03  0.45315786001E+03  0.12508883815E+03 0.  0.
          5    1    3    3  502    0 -0.25620834206E+02 -0.33614883871E+02 -0.25439714366E+03  0.25791813946E+03  0.41800000000E+01 0.  1.
         -5    1    3    3    0  502  0.86057931484E+02 -0.63502391386E+01 -0.17508507352E+03  0.19523972055E+03  0.41800000000E+01 0.  1.
        -11    1    1    2    0    0 -0.56793553938E+02  0.54884572705E+02 -0.15165350532E+02  0.80422707904E+02  0.00000000000E+00 0.  1.
         11    1    1    2    0    0 -0.36435433398E+01 -0.14919449696E+02 -0.50284471358E+02  0.52577499437E+02  0.00000000000E+00 0. -1.
</event>
<event>
 7    1  0.2732144E-009  0.9830705E+02  0.7561462E-02  0.1283897E+00
          1   -1    0    0  501    0  0.00000000000E+00  0.00000000000E+00  0.75000959978E+03  0.75000959978E+03  0.00000000000E+00 0. -1.
         -1   -1    0    0    0  501 -0.00000000000E+00 -0.00000000000E+00 -0.21258666059E+02  0.21258666059E+02  0.00000000000E+00 0.  1.
         25    2    1    2    0    0 -0.20033601730E+02  0.59911148591E+02  0.36088471766E+03  0.38713993977E+03  0.12509541399E+03 0.  0.
          5    1    3    3  502    0  0.23024143696E+02  0.27328532376E+02  0.18420069232E+02  0.40419441179E+02  0.41800000000E+01 0.  1.
         -5    1    3    3    0  502 -0.43057745426E+02  0.32582616215E+02  0.34246464843E+03  0.34672049859E+03  0.41800000000E+01 0.  1.
        -11    1    1    2    0    0 -0.28212180983E+02 -0.49721803279E+02  0.24824239827E+03  0.25474001095E+03  0.00000000000E+00 0.  1.
         11    1    1    2    0    0  0.48245782713E+02 -0.10189345312E+02  0.11962381778E+03  0.12938831511E+03  0.00000000000E+00 0. -1.
</event>
<event>
 7    1  0.2732144E-009  0.1048837E+03  0.7561462E-02  0.1270349E+00
          2   -1    0    0  501    0  0.00000000000E+00  0.00000000000E+00  0.70694279726E+03  0.70694279726E+03  0.00000000000E+00 0. -1.
         -2   -1    0    0    0  501 -0.00000000000E+00 -0.00000000000E+00 -0.30654753727E+02  0.30654753727E+02  0.00000000000E+00 0.  1.
         25    2    1    2    0    0  0.51439368924E+02  0.59025118950E+02  0.52854839697E+03  0.54876300752E+03  0.12508979629E+03 0.  0.
          5    1    3    3  502    0  0.47665506803E+02 -0.12561804222E+02  0.76873038586E+02  0.91415184327E+02  0.41800000000E+01 0. -1.
         -5    1    3    3    0  502  0.37738621202E+01  0.71586923173E+02  0.45167535839E+03  0.45734782319E+03  0.41800000000E+01 0. -1.
        -11    1    1    2    0    0  0.37325224788E+01 -0.21367379568E+02  0.10998760202E+03  0.11210606242E+03  0.00000000000E+00 0. -1.
         11    1    1    2    0    0 -0.55171891402E+02 -0.37657739382E+02  0.37752044537E+02  0.76728481042E+02  0.00000000000E+00 0.  1.
</event>
<event>
 7    1  0.2732144E-009  0.7795158E+02  0.7561462E-02  0.1334967E+00
         -1   -1    0    0    0  501 -0.00000000000E+00  0.00000000000E+00  0.19692837944E+03  0.19692837944E+03  0.00000000000E+00 0.  1.
          1   -1    0    0  501    0  0.00000000000E+00 -0.00000000000E+00 -0.82038591184E+02  0.82038591184E+02  0.00000000000E+00 0. -1.
         25    2    1    2    0    0  0.39770789984E+02  0.35622453657E+02  0.18051615323E+02  0.13719808287E+03  0.12508708242E+03 0.  0.
          5    1    3    3  502    0  0.17289374343E+02  0.32950444302E+02 -0.51648517368E+02  0.63794168944E+02  0.41800000000E+01 0.  1.
         -5    1    3    3    0  502  0.22481415640E+02  0.26720093549E+01  0.69700132691E+02  0.73403913931E+02  0.41800000000E+01 0.  1.
        -11    1    1    2    0    0  0.19302772663E+02 -0.30560137852E+02  0.65240892897E+02  0.74584805181E+02  0.00000000000E+00 0. -1.
         11    1    1    2    0    0 -0.59073562647E+02 -0.50623158050E+01  0.31597280041E+02  0.67184082572E+02  0.00000000000E+00 0.  1.
</event>
<event>
 7    1  0.2732144E-009  0.1397207E+03  0.7561462E-02  0.1213705E+00
          2   -1    0    0  501    0  0.00000000000E+00  0.00000000000E+00  0.51480212374E+03  0.51480212374E+03  0.00000000000E+00 0. -1.
         -2   -1    0    0    0  501 -0.00000000000E+00 -0.00000000000E+00 -0.50317103209E+02  0.50317103209E+02  0.00000000000E+00 0.  1.
         25    2    1    2    0    0  0.10285817711E+03 -0.59105370161E+02  0.24955164340E+03  0.30330939823E+03  0.12508924396E+03 0.  0.
          5    1    3    3  502    0  0.82146812521E+02 -0.81671263207E+02  0.10802580200E+03  0.15844664824E+03  0.41800000000E+01 0. -1.
         -5    1    3    3    0  502  0.20711364587E+02  0.22565893045E+02  0.14152584140E+03  0.14486274999E+03  0.41800000000E+01 0. -1.
        -11    1    1    2    0    0 -0.60378920046E+02  0.66142453311E+02  0.19454481684E+03  0.21416844743E+03  0.00000000000E+00 0. -1.
         11    1    1    2    0    0 -0.42479257062E+02 -0.70370831491E+01  0.20388560292E+02  0.47641381283E+02  0.00000000000E+00 0.  1.
</event>
<event>
 7    1  0.2732144E-009  0.1308659E+03  0.7561462E-02  0.1226176E+00
         -1   -1    0    0    0  501 -0.00000000000E+00  0.00000000000E+00  0.47780330742E+02  0.47780330742E+02  0.00000000000E+00 0.  1.
          1   -1    0    0  501    0  0.00000000000E+00 -0.00000000000E+00 -0.56295662843E+03  0.56295662843E+03  0.00000000000E+00 0. -1.
         25    2    1    2    0    0 -0.77794687591E+02 -0.38431797083E+02 -0.43530845144E+03  0.46116123075E+03  0.12508883406E+03 0.  0.
          5    1    3    3  502    0 -0.12494649499E+02  0.44596542645E+02 -0.12938346589E+03  0.13748644125E+03  0.41800000000E+01 0.  1.
         -5    1    3    3    0  502 -0.65300038091E+02 -0.83028339728E+02 -0.30592498554E+03  0.32367478949E+03  0.41800000000E+01 0.  1.
        -11    1    1    2    0    0  0.72196502935E+02  0.15507221873E+01 -0.13531334404E+02  0.73469972003E+02  0.00000000000E+00 0.  1.
         11    1    1    2    0    0  0.55981846562E+01  0.36881074896E+02 -0.66336511842E+02  0.76105756420E+02  0.00000000000E+00 0. -1.
</event>
<event>
 7    1  0.2732144E-009  0.1503518E+03  0.7561462E-02  0.1200041E+00
         -1   -1    0    0    0  501 -0.00000000000E+00  0.00000000000E+00  0.29802007070E+02  0.29802007070E+02  0.00000000000E+00 0.  1.
          1   -1    0    0  501    0  0.00000000000E+00 -0.00000000000E+00 -0.91231218670E+03  0.91231218670E+03  0.00000000000E+00 0. -1.
         25    2    1    2    0    0  0.13474019648E+03 -0.35848840642E+02 -0.51929898439E+03  0.55204892660E+03  0.12508605937E+03 0.  0.
          5    1    3    3  502    0  0.38909315257E+02  0.25375619888E+02 -0.31291287155E+03  0.31636971169E+03  0.41800000000E+01 0.  1.
         -5    1    3    3    0  502  0.95830881226E+02 -0.61224460531E+02 -0.20638611284E+03  0.23567921490E+03  0.41800000000E+01 0.  1.
        -11    1    1    2    0    0 -0.48856609514E+02  0.54360734084E+01 -0.15960502421E+03  0.16700384109E+03  0.00000000000E+00 0.  1.
         11    1    1    2    0    0 -0.85883586969E+02  0.30412767234E+02 -0.20360617104E+03  0.22306142608E+03  0.00000000000E+00 0. -1.
</event>
<event>
 7    1  0.2732144E-009  0.9648703E+02  0.7561462E-02  0.1287862E+00
         -1   -1    0    0    0  501 -0.00000000000E+00  0.00000000000E+00  0.32767700996E+02  0.32767700996E+02  0.00000000000E+00 0.  1.
          1   -1    0    0  501    0  0.00000000000E+00 -0.00000000000E+00 -0.38939721149E+03  0.38939721149E+03  0.00000000000E+00 0. -1.
         25    2    1    2    0    0  0.13051818379E+01  0.49843199996E+01 -0.22765906696E+03  0.25981228671E+03  0.12508887483E+03 0.  0.
          5    1    3    3  502    0  0.50976855332E+02  0.39410052723E+02 -0.12095949620E+03  0.13711478460E+03  0.41800000000E+01 0.  1.
         -5    1    3    3    0  502 -0.49671673494E+02 -0.34425732723E+02 -0.10669957076E+03  0.12269750210E+03  0.41800000000E+01 0.  1.
        -11    1    1    2    0    0  0.21638574657E+02 -0.27959695059E+02 -0.68797933340E+01  0.36018106798E+02  0.00000000000E+00 0.  1.
         11    1    1    2    0    0 -0.22943756495E+02  0.22975375060E+02 -0.12209065019E+03  0.12633451898E+03  0.00000000000E+00 0. -1.
</event>
<event>
 7    1  0.2732144E-009  0.1385446E+03  0.7561462E-02  0.1215301E+00
          2   -1    0    0  501    0  0.00000000000E+00  0.00000000000E+00  0.16053012239E+04  0.16053012239E+04  0.00000000000E+00 0. -1.
         -2   -1    0    0    0  501 -0.00000000000E+00 -0.00000000000E+00 -0.18134080285E+02  0.18134080285E+02  0.00000000000E+00 0.  1.
         25    2    1    2    0    0 -0.36328000645E+02 -0.10319463887E+03  0.11938398167E+04  0.12053505605E+04  0.12509040091E+03 0.  0.
          5    1    3    3  502    0 -0.81207227714E+02 -0.65635822538E+02  0.86833777118E+03  0.87460312845E+03  0.41800000000E+01 0.  1.
         -5    1    3    3    0  502  0.44879227069E+02 -0.37558816327E+02  0.32550204557E+03  0.33074743200E+03  0.41800000000E+01 0.  1.
        -11    1    1    2    0    0  0.33900569984E+02  0.48517415246E+02  0.77322674904E+02  0.97375480906E+02  0.00000000000E+00 0.  1.
         11    1    1    2    0    0  0.24274306611E+01  0.54677223619E+02  0.31600465197E+03  0.32070926284E+03  0.00000000000E+00 0. -1.
</event>
<event>
 7    1  0.2732144E-009  0.1220156E+03  0.7561462E-02  0.1239809E+00
          2   -1    0    0  501    0  0.00000000000E+00  0.00000000000E+00  0.64942124204E+02  0.64942124204E+02  0.00000000000E+00 0. -1.
         -2   -1    0    0    0  501 -0.00000000000E+00 -0.00000000000E+00 -0.26084632735E+03  0.26084632735E+03  0.00000000000E+00 0.  1.
         25    2    1    2    0    0 -0.84181486341E+01 -0.28952507535E+01 -0.71168747435E+02  0.14419449363E+03  0.12509122143E+03 0.  0.
          5    1    3    3  502    0  0.37064020516E+02 -0.40440070322E+02 -0.46700433054E+01  0.55212522212E+02  0.41800000000E+01 0.  1.
         -5    1    3    3    0  502 -0.45482169150E+02  0.37544819569E+02 -0.66498704130E+02  0.88981971422E+02  0.41800000000E+01 0.  1.
        -11    1    1    2    0    0  0.37408579111E+02 -0.54201163858E+02 -0.79282774380E+02  0.10306758107E+03  0.00000000000E+00 0.  1.
         11    1    1    2    0    0 -0.28990430477E+02  0.57096414612E+02 -0.45452681329E+02  0.78526376847E+02  0.00000000000E+00 0. -1.
</event>
<event>
 7    1  0.2732144E-009  0.1685724E+03  0.7561462E-02  0.1179345E+00
          2   -1    0    0  501    0  0.00000000000E+00  0.00000000000E+00  0.21525098604E+02  0.21525098604E+02  0.00000000000E+00 0. -1.
         -2   -1    0    0    0  501 -0.00000000000E+00 -0.00000000000E+00 -0.17546039969E+04  0.17546039969E+04  0.00000000000E+00 0.  1.
         25    2    1    2    0    0  0.88862862268E+02 -0.13562644686E+03 -0.10076308584E+04  0.10282310971E+04  0.12509236976E+03 0.  0.
          5    1    3    3  502    0 -0.52076969521E+01 -0.57943278041E+01 -0.99325793162E+00  0.88968142369E+01  0.41800000000E+01 0.  1.
         -5    1    3    3    0  502  0.94070559220E+02 -0.12983211905E+03 -0.10066376005E+04  0.10193342829E+04  0.41800000000E+01 0.  1.
        -11    1    1    2    0    0 -0.68409015558E+02  0.12968189495E+03 -0.69758064592E+03  0.71282251988E+03  0.00000000000E+00 0.  1.
         11    1    1    2    0    0 -0.20453846710E+02  0.59445519109E+01 -0.27867393951E+02  0.35075478446E+02  0.00000000000E+00 0. -1.
</event>
<event>
 7    1  0.2732144E-009  0.6071044E+02  0.7561462E-02  0.1394874E+00
          1   -1    0    0  501    0  0.00000000000E+00  0.00000000000E+00  0.83244949598E+02  0.83244949598E+02  0.00000000000E+00 0.  1.
         -1   -1    0    0    0  501 -0.00000000000E+00 -0.00000000000E+00 -0.21685276844E+03  0.21685276844E+03  0.00000000000E+00 0. -1.
         25    2    1    2    0    0  0.21819895103E+02 -0.28886272349E+02  0.41927476307E+01  0.13029344700E+03  0.12509307992E+03 0.  0.
          5    1    3    3  502    0  0.30928736661E+02 -0.39253381679E+02 -0.52022660254E+02  0.72258178116E+02  0.41800000000E+01 0.  1.
         -5    1    3    3    0  502 -0.91088415582E+01  0.10367109330E+02  0.56215407885E+02  0.58035268881E+02  0.41800000000E+01 0.  1.
        -11    1    1    2    0    0 -0.25622106592E+02  0.38651904144E+02 -0.14805176816E+03  0.15514441046E+03  0.00000000000E+00 0. -1.
         11    1    1    2    0    0  0.38022114888E+01 -0.97656317952E+01  0.10251201684E+02  0.14659860591E+02  0.00000000000E+00 0.  1.
</event>
<event>
 7    1  0.2732144E-009  0.1046014E+03  0.7561462E-02  0.1270907E+00
          1   -1    0    0  501    0  0.00000000000E+00  0.00000000000E+00  0.47305902103E+02  0.47305902103E+02  0.00000000000E+00 0. -1.
         -1   -1    0    0    0  501 -0.00000000000E+00 -0.00000000000E+00 -0.34927232987E+03  0.34927232987E+03  0.00000000000E+00 0.  1.
         25    2    1    2    0    0  0.49970814830E+02  0.28633955404E+02 -0.24751815950E+03  0.28324876325E+03  0.12509051469E+03 0.  0.
          5    1    3    3  502    0  0.75105620193E+02 -0.46276692850E+01 -0.77334715090E+02  0.10798333235E+03  0.41800000000E+01 0.  1.
         -5    1    3    3    0  502 -0.25134805362E+02  0.33261624689E+02 -0.17018344441E+03  0.17526543090E+03  0.41800000000E+01 0.  1.
        -11    1    1    2    0    0 -0.57655941574E+02  0.45897029075E+01 -0.12331700465E+02  0.59138344649E+02  0.00000000000E+00 0. -1.
         11    1    1    2    0    0  0.76851267432E+01 -0.33223658312E+02 -0.42116567797E+02  0.54191124067E+02  0.00000000000E+00 0.  1.
</event>
<event>
 7    1  0.2732144E-009  0.1297277E+03  0.7561462E-02  0.1227860E+00
         -2   -1    0    0    0  501 -0.00000000000E+00  0.00000000000E+00  0.43825232630E+02  0.43825232630E+02  0.00000000000E+00 0.  1.
          2   -1    0    0  501    0  0.00000000000E+00 -0.00000000000E+00 -0.50175855919E+03  0.50175855919E+03  0.00000000000E+00 0. -1.
         25    2    1    2    0    0 -0.70647382541E+02  0.71307078867E+02 -0.24089282139E+03  0.28940091445E+03  0.12509110970E+03 0.  0.
          5    1    3    3  502    0 -0.88536272809E+02  0.90695832437E+02 -0.15969251571E+03  0.20392051785E+03  0.41800000000E+01 0.  1.
         -5    1    3    3    0  502  0.17888890268E+02 -0.19388753570E+02 -0.81200305681E+02  0.85480396599E+02  0.41800000000E+01 0.  1.
        -11    1    1    2    0    0  0.12835699545E+02  0.15445713217E+01  0.62046109643E+01  0.14340086492E+02  0.00000000000E+00 0.  1.
         11    1    1    2    0    0  0.57811682996E+02 -0.72851650189E+02 -0.22324511613E+03  0.24184279089E+03  0.00000000000E+00 0. -1.
</event>
<event>
 7    1  0.2732144E-009  0.1020957E+03  0.7561462E-02  0.1275950E+00
         -2   -1    0    0    0  501 -0.00000000000E+00  0.00000000000E+00  0.17589773126E+02  0.17589773126E+02  0.00000000000E+00 0.  1.
          2   -1    0    0  501    0  0.00000000000E+00 -0.00000000000E+00 -0.71666984737E+03  0.71666984737E+03  0.00000000000E+00 0. -1.
         25    2    1    2    0    0  0.85049646357E+01 -0.14000909070E+02 -0.32480684755E+03  0.34844674667E+03  0.12508911690E+03 0.  0.
          5    1    3    3  502    0  0.53227824156E+02 -0.32622206622E+02 -0.26002201114E+03  0.26744406575E+03  0.41800000000E+01 0.  1.
         -5    1    3    3    0  502 -0.44722859521E+02  0.18621297552E+02 -0.64784836412E+02  0.81002680913E+02  0.41800000000E+01 0.  1.
        -11    1    1    2    0    0  0.25110224594E+02 -0.29036613468E+02 -0.13249346552E+03  0.13794262107E+03  0.00000000000E+00 0.  1.
         11    1    1    2    0    0 -0.33615189230E+02  0.43037522538E+02 -0.24177976117E+03  0.24787025276E+03  0.00000000000E+00 0. -1.
</event>
<event>
 7    1  0.2732144E-009  0.1429389E+03  0.7561462E-02  0.1209428E+00
         -1   -1    0    0    0  501 -0.00000000000E+00  0.00000000000E+00  0.66987145404E+02  0.66987145404E+02  0.00000000000E+00 0.  1.
          1   -1    0    0  501    0  0.00000000000E+00 -0.00000000000E+00 -0.42307799323E+03  0.42307799323E+03  0.00000000000E+00 0. -1.
         25    2    1    2    0    0  0.12501569758E+03 -0.78556104692E+01 -0.23410871859E+03  0.29350528026E+03  0.12509125535E+03 0.  0.
          5    1    3    3  502    0 -0.14456083146E+02  0.12239993186E+02 -0.89398424816E+02  0.91478667091E+02  0.41800000000E+01 0.  1.
         -5    1    3    3    0  502  0.13947178072E+03 -0.20095603655E+02 -0.14471029378E+03  0.20202661317E+03  0.41800000000E+01 0.  1.
        -11    1    1    2    0    0 -0.10966093789E+03  0.43008369650E+01 -0.13648977226E+03  0.17513844932E+03  0.00000000000E+00 0. -1.
         11    1    1    2    0    0 -0.15354759684E+02  0.35547735041E+01  0.14507643026E+02  0.21421409052E+02  0.00000000000E+00 0.  1.
</event>
<event>
 7    1  0.2732144E-009  0.1118413E+03  0.7561462E-02  0.1257198E+00
         -1   -1    0    0    0  501 -0.00000000000E+00  0.00000000000E+00  0.41115176647E+02  0.41115176647E+02  0.00000000000E+00 0.  1.
          1   -1    0    0  501    0  0.00000000000E+00 -0.00000000000E+00 -0.51650191923E+03  0.51650191923E+03  0.00000000000E+00 0. -1.
         25    2    1    2    0    0  0.92018570730E+02  0.31718801274E+02 -0.21470865613E+03  0.26687439286E+03  0.12509450361E+03 0.  0.
          5    1    3    3  502    0  0.91460835410E+02 -0.25746049792E+01 -0.21348190756E+03  0.23230090456E+03  0.41800000000E+01 0. -1.
         -5    1    3    3    0  502  0.55773531960E+00  0.34293406253E+02 -0.12267485724E+01  0.34573488300E+02  0.41800000000E+01 0. -1.
        -11    1    1    2    0    0 -0.58202536435E+02 -0.16807179041E+02 -0.55168612102E+02  0.81936513692E+02  0.00000000000E+00 0.  1.
         11    1    1    2    0    0 -0.33816034295E+02 -0.14911622233E+02 -0.20550947435E+03  0.20880618932E+03  0.00000000000E+00 0. -1.
</event>
<event>
 7    1  0.2732144E-009  0.1486176E+03  0.7561462E-02  0.1202182E+00
          3   -1    0    0  501    0  0.00000000000E+00  0.00000000000E+00  0.18255250469E+02  0.18255250469E+02  0.00000000000E+00 0. -1.
         -3   -1    0    0    0  501 -0.00000000000E+00 -0.00000000000E+00 -0.12469452333E+04  0.12469452333E+04  0.00000000000E+00 0.  1.
         25    2    1    2    0    0  0.98427448691E+02  0.37826881545E+01 -0.57850060778E+03  0.60001161239E+03  0.12509480571E+03 0.  0.
          5    1    3    3  502    0  0.12874398184E+01  0.50959296048E+02 -0.18426279189E+03  0.19122959036E+03  0.41800000000E+01 0. -1.
         -5    1    3    3    0  502  0.97140008872E+02 -0.47176607894E+02 -0.39423781589E+03  0.40878202202E+03  0.41800000000E+01 0. -1.
        -11    1    1    2    0    0 -0.71486253293E+02  0.43440358220E+02 -0.45212449025E+03  0.45979767705E+03  0.00000000000E+00 0.  1.
         11    1    1    2    0    0 -0.26941195398E+02 -0.47223046375E+02 -0.19806488480E+03  0.20539119433E+03  0.00000000000E+00 0. -1.
</event>
<event>
 7    1  0.2732144E-009  0.1354321E+03  0.7561462E-02  0.1219611E+00
         -4   -1    0    0    0  501 -0.00000000000E+00  0.00000000000E+00  0.75116911091E+02  0.75116911091E+02  0.00000000000E+00 0.  1.
          4   -1    0    0  501    0  0.00000000000E+00 -0.00000000000E+00 -0.28438869767E+03  0.28438869767E+03  0.00000000000E+00 0. -1.
         25    2    1    2    0    0  0.89821394511E+01 -0.91278607667E+02 -0.71214858926E+02  0.17068751008E+03  0.12510078704E+03 0.  0.
          5    1    3    3  502    0  0.65843186633E+02 -0.52737782494E+02 -0.26120041411E+02  0.88409998822E+02  0.41800000000E+01 0.  1.
         -5    1    3    3    0  502 -0.56861047182E+02 -0.38540825173E+02 -0.45094817514E+02  0.82277511255E+02  0.41800000000E+01 0.  1.
        -11    1    1    2    0    0 -0.32732020265E+02  0.12065409564E+02 -0.98410068942E+01  0.36246443622E+02  0.00000000000E+00 0. -1.
         11    1    1    2    0    0  0.23749880814E+02  0.79213198103E+02 -0.12821592076E+03  0.15257165506E+03  0.00000000000E+00 0.  1.
</event>
<event>
 7    1  0.2732144E-009  0.1297443E+03  0.7561462E-02  0.1227836E+00
          1   -1    0    0  501    0  0.00000000000E+00  0.00000000000E+00  0.15778597196E+03  0.15778597196E+03  0.00000000000E+00 0. -1.
         -1   -1    0    0    0  501 -0.00000000000E+00 -0.00000000000E+00 -0.14914945982E+03  0.14914945982E+03  0.00000000000E+00 0.  1.
         25    2    1    2    0    0  0.94960902188E+02 -0.47714564443E+02 -0.10359755386E+02  0.16446752939E+03  0.12509193054E+03 0.  0.
          5    1    3    3  502    0  0.27374830453E+02 -0.63191930231E+02 -0.49335890371E+02  0.84818063332E+02  0.41800000000E+01 0.  1.
         -5    1    3    3    0  502  0.67586071735E+02  0.15477365787E+02  0.38976134986E+02  0.79649466054E+02  0.41800000000E+01 0.  1.
        -11    1    1    2    0    0 -0.21404314681E+02 -0.13526707389E+02 -0.26360664516E+02  0.36551349270E+02  0.00000000000E+00 0.  1.
         11    1    1    2    0    0 -0.73556587507E+02  0.61241271833E+02  0.45356932035E+02  0.10591655312E+03  0.00000000000E+00 0. -1.
</event>
<event>
 7    1  0.2732144E-009  0.1000854E+03  0.7561462E-02  0.1280117E+00
         -2   -1    0    0    0  501 -0.00000000000E+00  0.00000000000E+00  0.11370741415E+03  0.11370741415E+03  0.00000000000E+00 0.  1.
          2   -1    0    0  501    0  0.00000000000E+00 -0.00000000000E+00 -0.12620946754E+03  0.12620946754E+03  0.00000000000E+00 0. -1.
         25    2    1    2    0    0  0.34205782985E+02  0.21691457009E+02  0.28370754114E+02  0.13450829427E+03  0.12508807553E+03 0.  0.
          5    1    3    3  502    0  0.72225753427E+02  0.44117606662E+02  0.30652535114E+02  0.90110892708E+02  0.41800000000E+01 0.  1.
         -5    1    3    3    0  502 -0.38019970442E+02 -0.22426149653E+02 -0.22817809999E+01  0.44397401559E+02  0.41800000000E+01 0.  1.
        -11    1    1    2    0    0 -0.11433808109E+02  0.20315779789E+02 -0.51436042414E+02  0.56472376747E+02  0.00000000000E+00 0. -1.
         11    1    1    2    0    0 -0.22771974877E+02 -0.42007236798E+02  0.10563234905E+02  0.48936210671E+02  0.00000000000E+00 0.  1.
</event>
<event>
 7    1  0.2732144E-009  0.1141379E+03  0.7561462E-02  0.1253094E+00
          1   -1    0    0  501    0  0.00000000000E+00  0.00000000000E+00  0.66169136241E+02  0.66169136241E+02  0.00000000000E+00 0. -1.
         -1   -1    0    0    0  501 -0.00000000000E+00 -0.00000000000E+00 -0.31767323549E+03  0.31767323549E+03  0.00000000000E+00 0.  1.
         25    2    1    2    0    0  0.89085530660E+02 -0.58543897494E-02 -0.17817406407E+03  0.23522291380E+03  0.12509032842E+03 0.  0.
          5    1    3    3  502    0  0.85282024618E+02  0.42843828545E+02 -0.69112492972E+02  0.11790939934E+03  0.41800000000E+01 0. -1.
         -5    1    3    3    0  502  0.38035060414E+01 -0.42849682934E+02 -0.10906157110E+03  0.11731351447E+03  0.41800000000E+01 0. -1.
        -11    1    1    2    0    0 -0.21134478945E+02 -0.37718747060E+01 -0.77516871458E+02  0.80434809627E+02  0.00000000000E+00 0.  1.
         11    1    1    2    0    0 -0.67951051714E+02  0.37777290957E+01  0.41868362778E+01  0.68184648303E+02  0.00000000000E+00 0. -1.
</event>
<event>
 7    1  0.2732144E-009  0.1522218E+03  0.7561462E-02  0.1197769E+00
         -3   -1    0    0    0  501 -0.00000000000E+00  0.00000000000E+00  0.38646734828E+02  0.38646734828E+02  0.00000000000E+00 0.  1.
          3   -1    0    0  501    0  0.00000000000E+00 -0.00000000000E+00 -0.10245008096E+04  0.10245008096E+04  0.00000000000E+00 0. -1.
         25    2    1    2    0    0 -0.57175236789E+02 -0.11236916231E+03 -0.80899193790E+03  0.82825781506E+03  0.12508883356E+03 0.  0.
          5    1    3    3  502    0 -0.89722329744E+02 -0.10698366162E+03 -0.56509087122E+03  0.58210030531E+03  0.41800000000E+01 0. -1.
         -5    1    3    3    0  502  0.32547092954E+02 -0.53855006876E+01 -0.24390106668E+03  0.24615750975E+03  0.41800000000E+01 0. -1.
        -11    1    1    2    0    0  0.50042014685E+02  0.57737737765E+02 -0.37663926434E+02  0.85184628604E+02  0.00000000000E+00 0.  1.
         11    1    1    2    0    0  0.71332221045E+01  0.54631424544E+02 -0.13919821041E+03  0.14970510074E+03  0.00000000000E+00 0. -1.
</event>
<event>
 7    1  0.2732144E-009  0.8541152E+02  0.7561462E-02  0.1314360E+00
         -1   -1    0    0    0  501 -0.00000000000E+00  0.00000000000E+00  0.65711100035E+02  0.65711100035E+02  0.00000000000E+00 0.  1.
          1   -1    0    0  501    0  0.00000000000E+00 -0.00000000000E+00 -0.22077419290E+03  0.22077419290E+03  0.00000000000E+00 0. -1.
         25    2    1    2    0    0 -0.42433763771E+02  0.82662992804E+01 -0.57671703762E+02  0.14436761128E+03  0.12508807201E+03 0.  0.
          5    1    3    3  502    0  0.34573063357E+02 -0.24794899565E+02 -0.35426315833E+00  0.42751393623E+02  0.41800000000E+01 0.  1.
         -5    1    3    3    0  502 -0.77006827128E+02  0.33061198845E+02 -0.57317440604E+02  0.10161621766E+03  0.41800000000E+01 0.  1.
        -11    1    1    2    0    0  0.18194851008E+02 -0.81228250052E+01  0.16379183411E+02  0.25793614297E+02  0.00000000000E+00 0.  1.
         11    1    1    2    0    0  0.24238912763E+02 -0.14347427519E+00 -0.11377057251E+03  0.11632406735E+03  0.00000000000E+00 0. -1.
</event>
<event>
 7    1  0.2732144E-009  0.1031830E+03  0.7561462E-02  0.1273741E+00
          2   -1    0    0  501    0  0.00000000000E+00  0.00000000000E+00  0.26522602154E+03  0.26522602154E+03  0.00000000000E+00 0. -1.
         -2   -1    0    0    0  501 -0.00000000000E+00 -0.00000000000E+00 -0.56117067168E+02  0.56117067168E+02  0.00000000000E+00 0.  1.
         25    2    1    2    0    0  0.20183231294E+02  0.27037699891E+02  0.58704633411E+02  0.14223986073E+03  0.12509014331E+03 0.  0.
          5    1    3    3  502    0  0.14307606088E+02 -0.49720778517E+02  0.30132981589E+02  0.60019433417E+02  0.41800000000E+01 0. -1.
         -5    1    3    3    0  502  0.58756252060E+01  0.76758478407E+02  0.28571651822E+02  0.82220427309E+02  0.41800000000E+01 0. -1.
        -11    1    1    2    0    0 -0.15808855294E+02  0.22573577996E+02  0.86966005869E+01  0.28898394264E+02  0.00000000000E+00 0.  1.
         11    1    1    2    0    0 -0.43743759995E+01 -0.49611277887E+02  0.14170772038E+03  0.15020483372E+03  0.00000000000E+00 0. -1.
</event>
<event>
 7    1  0.2732144E-009  0.1368713E+03  0.7561462E-02  0.1217602E+00
         -2   -1    0    0    0  501 -0.00000000000E+00  0.00000000000E+00  0.91591860927E+02  0.91591860927E+02  0.00000000000E+00 0. -1.
          2   -1    0    0  501    0  0.00000000000E+00 -0.00000000000E+00 -0.43261287053E+03  0.43261287053E+03  0.00000000000E+00 0.  1.
         25    2    1    2    0    0  0.35019548837E+02  0.10137593504E+03 -0.34596202120E+03  0.38319620135E+03  0.12508460980E+03 0.  0.
          5    1    3    3  502    0  0.36231058600E+02 -0.21082708893E+02 -0.94700806819E+02  0.10364789160E+03  0.41800000000E+01 0. -1.
         -5    1    3    3    0  502 -0.12115097626E+01  0.12245864393E+03 -0.25126121438E+03  0.27954830975E+03  0.41800000000E+01 0. -1.
        -11    1    1    2    0    0 -0.34525142055E+02 -0.73554255125E+02 -0.38110224936E+02  0.89747440775E+02  0.00000000000E+00 0.  1.
         11    1    1    2    0    0 -0.49440678157E+00 -0.27821679915E+02  0.43051236540E+02  0.51261089327E+02  0.00000000000E+00 0. -1.
</event>
<event>
 7    1  0.2732144E-009  0.1075074E+03  0.7561462E-02  0.1265257E+00
         -1   -1    0    0    0  501 -0.00000000000E+00  0.00000000000E+00  0.47419753888E+02  0.47419753888E+02  0.00000000000E+00 0.  1.
          1   -1    0    0  501    0  0.00000000000E+00 -0.00000000000E+00 -0.30998097204E+03  0.30998097204E+03  0.00000000000E+00 0. -1.
         25    2    1    2    0    0  0.33271308902E+02  0.27638506416E+01 -0.85420446994E+02  0.15510595323E+03  0.12508631059E+03 0.  0.
          5    1    3    3  502    0 -0.24033664798E+02  0.44180747333E+02 -0.63190685098E+02  0.80870826394E+02  0.41800000000E+01 0. -1.
         -5    1    3    3    0  502  0.57304973699E+02 -0.41416896691E+02 -0.22229761896E+02  0.74235126834E+02  0.41800000000E+01 0. -1.
        -11    1    1    2    0    0 -0.47164606359E+02  0.31519095084E+02 -0.77758112189E+02  0.96251116664E+02  0.00000000000E+00 0.  1.
         11    1    1    2    0    0  0.13893297457E+02 -0.34282945725E+02 -0.99382658973E+02  0.10604365604E+03  0.00000000000E+00 0. -1.
</event>
<event>
 7    1  0.2732144E-009  0.1158579E+03  0.7561462E-02  0.1250091E+00
          4   -1    0    0  501    0  0.00000000000E+00  0.00000000000E+00  0.48960386727E+02  0.48960386727E+02  0.00000000000E+00 0.  1.
         -4   -1    0    0    0  501 -0.00000000000E+00 -0.00000000000E+00 -0.38520333343E+03  0.38520333343E+03  0.00000000000E+00 0. -1.
         25    2    1    2    0    0  0.17513173142E+02  0.59769797580E+02 -0.27155128586E+03  0.30540200556E+03  0.12510453314E+03 0.  0.
          5    1    3    3  502    0  0.14988933871E+02 -0.30969544303E+02 -0.14816498535E+03  0.15216476628E+03  0.41800000000E+01 0. -1.
         -5    1    3    3    0  502  0.25242392710E+01  0.90739341883E+02 -0.12338630051E+03  0.15323723928E+03  0.41800000000E+01 0. -1.
        -11    1    1    2    0    0 -0.32958574041E+02 -0.76571738040E+02 -0.65357225743E+02  0.10592953142E+03  0.00000000000E+00 0. -1.
         11    1    1    2    0    0  0.15445400900E+02  0.16801940460E+02  0.66556489831E+00  0.22832183181E+02  0.00000000000E+00 0.  1.
</event>
<event>
 7    1  0.2732144E-009  0.2272237E+03  0.7561462E-02  0.1128609E+00
          1   -1    0    0  501    0  0.00000000000E+00  0.00000000000E+00  0.22672005471E+03  0.22672005471E+03  0.00000000000E+00 0. -1.
         -1   -1    0    0    0  501 -0.00000000000E+00 -0.00000000000E+00 -0.26936407282E+03  0.26936407282E+03  0.00000000000E+00 0.  1.
         25    2    1    2    0    0  0.39053824877E+01  0.21550699119E+03 -0.78953377907E+02  0.26141861810E+03  0.12509013847E+03 0.  0.
          5    1    3    3  502    0  0.40561471580E+02  0.17414554366E+03 -0.19144951162E+02  0.17987747193E+03  0.41800000000E+01 0.  1.
         -5    1    3    3    0  502 -0.36656089092E+02  0.41361447534E+02 -0.59808426745E+02  0.81541146174E+02  0.41800000000E+01 0.  1.
        -11    1    1    2    0    0 -0.22819567178E+02 -0.75063457637E+02  0.48816919173E+02  0.92403175899E+02  0.00000000000E+00 0.  1.
         11    1    1    2    0    0  0.18914184690E+02 -0.14044353355E+03 -0.12507559370E+02  0.14226233353E+03  0.00000000000E+00 0. -1.
</event>
<event>
 7    1  0.2732144E-009  0.1203770E+03  0.7561462E-02  0.1242476E+00
         -2   -1    0    0    0  501 -0.00000000000E+00  0.00000000000E+00  0.12178401291E+03  0.12178401291E+03  0.00000000000E+00 0.  1.
          2   -1    0    0  501    0  0.00000000000E+00 -0.00000000000E+00 -0.13938012074E+03  0.13938012074E+03  0.00000000000E+00 0. -1.
         25    2    1    2    0    0  0.30526964975E+02  0.45444819818E+02 -0.57327888049E+02  0.14810555071E+03  0.12510651527E+03 0.  0.
          5    1    3    3  502    0  0.11509619871E+02 -0.43021788298E+02 -0.97262001792E+01  0.45775724875E+02  0.41800000000E+01 0.  1.
         -5    1    3    3    0  502  0.19017345105E+02  0.88466608116E+02 -0.47601687870E+02  0.10232982583E+03  0.41800000000E+01 0.  1.
        -11    1    1    2    0    0 -0.59545020195E+02 -0.47755399128E+02  0.33131041758E+02  0.83209695973E+02  0.00000000000E+00 0.  1.
         11    1    1    2    0    0  0.29018055219E+02  0.23105793104E+01  0.66007384550E+01  0.29848886974E+02  0.00000000000E+00 0. -1.
</event>
<event>
 7    1  0.2732144E-009  0.1026464E+03  0.7561462E-02  0.1274827E+00
         -2   -1    0    0    0  501 -0.00000000000E+00  0.00000000000E+00  0.11111002055E+03  0.11111002055E+03  0.00000000000E+00 0.  1.
          2   -1    0    0  501    0  0.00000000000E+00 -0.00000000000E+00 -0.33749911876E+03  0.33749911876E+03  0.00000000000E+00 0. -1.
         25    2    1    2    0    0 -0.69947989497E+02 -0.19982860477E+02  0.46216477649E+02  0.15190312662E+03  0.12508621476E+03 0.  0.
          5    1    3    3  502    0 -0.69926074606E+02 -0.55167255892E+00  0.83899112713E+02  0.10930001723E+03  0.41800000000E+01 0.  1.
         -5    1    3    3    0  502 -0.21914891773E-01 -0.19431187918E+02 -0.37682635063E+02  0.42603109388E+02  0.41800000000E+01 0.  1.
        -11    1    1    2    0    0 -0.80531001267E+01  0.35013717280E+02 -0.62577992274E+02  0.72158283908E+02  0.00000000000E+00 0.  1.
         11    1    1    2    0    0  0.78001089624E+02 -0.15030856803E+02 -0.21002758358E+03  0.22454772879E+03  0.00000000000E+00 0. -1.
</event>
<event>
 7    1  0.2732144E-009  0.1478825E+03  0.7561462E-02  0.1203099E+00
          3   -1    0    0  501    0  0.00000000000E+00  0.00000000000E+00  0.75824797869E+03  0.75824797869E+03  0.00000000000E+00 0. -1.
         -3   -1    0    0    0  501 -0.00000000000E+00 -0.00000000000E+00 -0.29191727339E+02  0.29191727339E+02  0.00000000000E+00 0.  1.
         25    2    1    2    0    0 -0.12507640060E+02  0.10053663529E+03  0.40628009526E+03  0.43700602700E+03  0.12508675287E+03 0.  0.
          5    1    3    3  502    0  0.30282773687E+02 -0.16621754837E+02  0.66913790066E+02  0.75420533127E+02  0.41800000000E+01 0. -1.
         -5    1    3    3    0  502 -0.42790413748E+02  0.11715839012E+03  0.33936630519E+03  0.36158549388E+03  0.41800000000E+01 0. -1.
        -11    1    1    2    0    0  0.46769648224E+02 -0.24561270800E+02  0.13635168409E+03  0.14622734960E+03  0.00000000000E+00 0. -1.
         11    1    1    2    0    0 -0.34262008164E+02 -0.75975364486E+02  0.18642447201E+03  0.20420632942E+03  0.00000000000E+00 0.  1.
</event>
<event>
 7    1  0.2732144E-009  0.1481681E+03  0.7561462E-02  0.1202742E+00
          2   -1    0    0  501    0  0.00000000000E+00  0.00000000000E+00  0.98544865993E+03  0.98544865993E+03  0.00000000000E+00 0. -1.
         -2   -1    0    0    0  501 -0.00000000000E+00 -0.00000000000E+00 -0.24295123686E+02  0.24295123686E+02  0.00000000000E+00 0.  1.
         25    2    1    2    0    0  0.41145798502E+02  0.94882695849E+02  0.40481191175E+03  0.43613521811E+03  0.12508214052E+03 0.  0.
          5    1    3    3  502    0 -0.20572573072E+02 -0.19090516524E+02  0.40658301420E+02  0.49580726682E+02  0.41800000000E+01 0.  1.
         -5    1    3    3    0  502  0.61718371574E+02  0.11397321237E+03  0.36415361033E+03  0.38655449143E+03  0.41800000000E+01 0.  1.
        -11    1    1    2    0    0 -0.67435277301E+02 -0.42604368820E+02  0.28005429172E+03  0.29119247102E+03  0.00000000000E+00 0.  1.
         11    1    1    2    0    0  0.26289478799E+02 -0.52278327028E+02  0.27628733278E+03  0.28241609449E+03  0.00000000000E+00 0. -1.
</event>
<event>
 7    1  0.2732144E-009  0.1069190E+03  0.7561462E-02  0.1266384E+00
         -1   -1    0    0    0  501 -0.00000000000E+00  0.00000000000E+00  0.25739895198E+03  0.25739895198E+03  0.00000000000E+00 0.  1.
          1   -1    0    0  501    0  0.00000000000E+00 -0.00000000000E+00 -0.48848879127E+02  0.48848879127E+02  0.00000000000E+00 0. -1.
         25    2    1    2    0    0  0.58056783969E+01 -0.28166407572E+02  0.10320005516E+03  0.16469438969E+03  0.12508772199E+03 0.  0.
          5    1    3    3  502    0 -0.41788578600E+02 -0.54823071021E+02  0.78827932244E+02  0.10480061889E+03  0.41800000000E+01 0.  1.
         -5    1    3    3    0  502  0.47594256997E+02  0.26656663449E+02  0.24372122912E+02  0.59893770800E+02  0.41800000000E+01 0.  1.
        -11    1    1    2    0    0  0.28392774749E+02  0.44012216368E+02  0.81731775684E+02  0.97073724581E+02  0.00000000000E+00 0. -1.
         11    1    1    2    0    0 -0.34198453146E+02 -0.15845808796E+02  0.23618242012E+02  0.44479716835E+02  0.00000000000E+00 0.  1.
</event>
<event>
 7    1  0.2732144E-009  0.1164345E+03  0.7561462E-02  0.1249098E+00
         -3   -1    0    0    0  501 -0.00000000000E+00  0.00000000000E+00  0.36657753746E+02  0.36657753746E+02  0.00000000000E+00 0.  1.
          3   -1    0    0  501    0  0.00000000000E+00 -0.00000000000E+00 -0.44776949073E+03  0.44776949073E+03  0.00000000000E+00 0. -1.
         25    2    1    2    0    0  0.57106464178E+02  0.38620142888E+02 -0.22868675946E+03  0.26962519278E+03  0.12508975555E+03 0.  0.
          5    1    3    3  502    0  0.60481351700E+02  0.67301587669E+02 -0.89234002014E+02  0.12715218096E+03  0.41800000000E+01 0.  1.
         -5    1    3    3    0  502 -0.33748875223E+01 -0.28681444781E+02 -0.13945275744E+03  0.14247301183E+03  0.41800000000E+01 0.  1.
        -11    1    1    2    0    0 -0.44231477696E+02 -0.67948940438E+02 -0.12352688068E+03  0.14775781663E+03  0.00000000000E+00 0. -1.
         11    1    1    2    0    0 -0.12874986482E+02  0.29328797550E+02 -0.58898096845E+02  0.67044235058E+02  0.00000000000E+00 0.  1.
</event>
<event>
 7    1  0.2732144E-009  0.1250148E+03  0.7561462E-02  0.1235046E+00
         -2   -1    0    0    0  501 -0.00000000000E+00  0.00000000000E+00  0.17953876372E+03  0.17953876372E+03  0.00000000000E+00 0. -1.
          2   -1    0    0  501    0  0.00000000000E+00 -0.00000000000E+00 -0.14751241786E+03  0.14751241786E+03  0.00000000000E+00 0.  1.
         25    2    1    2    0    0 -0.44688112642E+01  0.10821126763E+03 -0.42608997581E+02  0.17086059096E+03  0.12509263029E+03 0.  0.
          5    1    3    3  502    0 -0.40477186953E+02  0.18380353457E+02 -0.57555777921E+02  0.72844903932E+02  0.41800000000E+01 0. -1.
         -5    1    3    3    0  502  0.36008375688E+02  0.89830914170E+02  0.14946780340E+02  0.98015687025E+02  0.41800000000E+01 0. -1.
        -11    1    1    2    0    0 -0.51998314834E+00 -0.66301089391E+02 -0.45504508699E+01  0.66459095991E+02  0.00000000000E+00 0.  1.
         11    1    1    2    0    0  0.49887944125E+01 -0.41910178236E+02  0.79185794309E+02  0.89731494638E+02  0.00000000000E+00 0. -1.
</event>
<event>
 7    1  0.2732144E-009  0.1580551E+03  0.7561462E-02  0.1190910E+00
          2   -1    0    0  501    0  0.00000000000E+00  0.00000000000E+00  0.15444332698E+04  0.15444332698E+04  0.00000000000E+00 0. -1.
         -2   -1    0    0    0  501 -0.00000000000E+00 -0.00000000000E+00 -0.32815922247E+02  0.32815922247E+02  0.00000000000E+00 0.  1.
         25    2    1    2    0    0  0.23690666870E+02 -0.14651788030E+03  0.12427422485E+04  0.12578093004E+04  0.12508878075E+03 0.  0.
          5    1    3    3  502    0 -0.76962360229E+01  0.65033083832E+01  0.88097578593E+01  0.14021743914E+02  0.41800000000E+01 0.  1.
         -5    1    3    3    0  502  0.31386902893E+02 -0.15302118869E+03  0.12339324907E+04  0.12437875565E+04  0.41800000000E+01 0.  1.
        -11    1    1    2    0    0 -0.82911889908E+01  0.22699912604E+02  0.12977101941E+01  0.24201526788E+02  0.00000000000E+00 0.  1.
         11    1    1    2    0    0 -0.15399477880E+02  0.12381796770E+03  0.26757738886E+03  0.29523836484E+03  0.00000000000E+00 0. -1.
</event>
<event>
 7    1  0.2732144E-009  0.1674095E+03  0.7561462E-02  0.1180577E+00
         -2   -1    0    0    0  501 -0.00000000000E+00  0.00000000000E+00  0.16991486669E+03  0.16991486669E+03  0.00000000000E+00 0.  1.
          2   -1    0    0  501    0  0.00000000000E+00 -0.00000000000E+00 -0.19552098688E+03  0.19552098688E+03  0.00000000000E+00 0. -1.
         25    2    1    2    0    0 -0.11795860616E+03 -0.54478583121E+02  0.53045338413E+02  0.18797754073E+03  0.12505838279E+03 0.  0.
          5    1    3    3  502    0  0.67294163521E+01 -0.54614990077E+02  0.10590013836E+02  0.56193442487E+02  0.41800000000E+01 0.  1.
         -5    1    3    3    0  502 -0.12468802251E+03  0.13640695585E+00  0.42455324576E+02  0.13178409824E+03  0.41800000000E+01 0.  1.
        -11    1    1    2    0    0 -0.99327685613E+01  0.20135407459E+02 -0.27497070544E+02  0.35499062147E+02  0.00000000000E+00 0.  1.
         11    1    1    2    0    0  0.12789137472E+03  0.34343175661E+02 -0.51154388058E+02  0.14195925070E+03  0.00000000000E+00 0. -1.
</event>
<event>
 7    1  0.2732144E-009  0.3782201E+03  0.7561462E-02  0.1051594E+00
          2   -1    0    0  501    0  0.00000000000E+00  0.00000000000E+00  0.47193785346E+03  0.47193785346E+03  0.00000000000E+00 0. -1.
         -2   -1    0    0    0  501 -0.00000000000E+00 -0.00000000000E+00 -0.38050300977E+03  0.38050300977E+03  0.00000000000E+00 0.  1.
         25    2    1    2    0    0 -0.19947434621E+03  0.31103828519E+03  0.22423917536E+03  0.44996129326E+03  0.12508848072E+03 0.  0.
          5    1    3    3  502    0 -0.21056146834E+03  0.26438762090E+03  0.21598071866E+03  0.40112602666E+03  0.41800000000E+01 0.  1.
         -5    1    3    3    0  502  0.11087122129E+02  0.46650664293E+02  0.82584567034E+01  0.48835266593E+02  0.41800000000E+01 0.  1.
        -11    1    1    2    0    0  0.13221795366E+03 -0.18440075428E+03 -0.12458142371E+03  0.25885470168E+03  0.00000000000E+00 0.  1.
         11    1    1    2    0    0  0.67256392549E+02 -0.12663753091E+03 -0.82229079631E+01  0.14362486828E+03  0.00000000000E+00 0. -1.
</event>
<event>
 7    1  0.2732144E-009  0.1150471E+03  0.7561462E-02  0.1251499E+00
          1   -1    0    0  501    0  0.00000000000E+00  0.00000000000E+00  0.46269192319E+03  0.46269192319E+03  0.00000000000E+00 0. -1.
         -1   -1    0    0    0  501 -0.00000000000E+00 -0.00000000000E+00 -0.31834999914E+02  0.31834999914E+02  0.00000000000E+00 0.  1.
         25    2    1    2    0    0  0.43708591726E+02  0.91730749884E+01  0.30216885739E+03  0.33007374046E+03  0.12509224385E+03 0.  0.
          5    1    3    3  502    0  0.49086888845E+02 -0.51722319443E+02  0.15560662389E+03  0.17121803288E+03  0.41800000000E+01 0. -1.
         -5    1    3    3    0  502 -0.53782971194E+01  0.60895394431E+02  0.14656223350E+03  0.15885570758E+03  0.41800000000E+01 0. -1.
        -11    1    1    2    0    0 -0.70240503145E+02 -0.39740368835E+01  0.67228947033E+02  0.97310084628E+02  0.00000000000E+00 0.  1.
         11    1    1    2    0    0  0.26531911419E+02 -0.51990381049E+01  0.61459118854E+02  0.67143098015E+02  0.00000000000E+00 0. -1.
</event>
<event>
 7    1  0.2732144E-009  0.3573957E+03  0.7561462E-02  0.1059620E+00
         -2   -1    0    0    0  501 -0.00000000000E+00  0.00000000000E+00  0.59791889087E+02  0.59791889087E+02  0.00000000000E+00 0.  1.
          2   -1    0    0  501    0  0.00000000000E+00 -0.00000000000E+00 -0.24890833520E+04  0.24890833520E+04  0.00000000000E+00 0. -1.
         25    2    1    2    0    0 -0.20670520184E+03  0.27136074798E+03 -0.17019902363E+04  0.17403394011E+04  0.12508705183E+03 0.  0.
          5    1    3    3  502    0 -0.66860659703E+01 -0.12261314626E+02 -0.42178564065E+02  0.44626751854E+02  0.41800000000E+01 0. -1.
         -5    1    3    3    0  502 -0.20001913587E+03  0.28362206260E+03 -0.16598116722E+04  0.16957126492E+04  0.41800000000E+01 0. -1.
        -11    1    1    2    0    0  0.60475614775E+02 -0.15459052513E+03 -0.35088963727E+03  0.38817401766E+03  0.00000000000E+00 0.  1.
         11    1    1    2    0    0  0.14622958707E+03 -0.11677022284E+03 -0.37641158931E+03  0.42036182229E+03  0.00000000000E+00 0. -1.
</event>
<event>
 7    1  0.2732144E-009  0.1034884E+03  0.7561462E-02  0.1273127E+00
          1   -1    0    0  501    0  0.00000000000E+00  0.00000000000E+00  0.31619519019E+02  0.31619519019E+02  0.00000000000E+00 0. -1.
         -1   -1    0    0    0  501 -0.00000000000E+00 -0.00000000000E+00 -0.43835932217E+03  0.43835932217E+03  0.00000000000E+00 0.  1.
         25    2    1    2    0    0 -0.16538984352E+02  0.75006260915E-01 -0.30967811025E+03  0.33439685986E+03  0.12508870568E+03 0.  0.
          5    1    3    3  502    0  0.11316290358E+02 -0.58676907379E+02 -0.12626188397E+03  0.13975182872E+03  0.41800000000E+01 0. -1.
         -5    1    3    3    0  502 -0.27855274711E+02  0.58751913640E+02 -0.18341622627E+03  0.19464503113E+03  0.41800000000E+01 0. -1.
        -11    1    1    2    0    0 -0.29802466494E+02 -0.14824057241E+02 -0.75249263952E+02  0.82282388198E+02  0.00000000000E+00 0.  1.
         11    1    1    2    0    0  0.46341450846E+02  0.14749050980E+02 -0.21812428955E+02  0.53299593134E+02  0.00000000000E+00 0. -1.
</event>
<event>
 7    1  0.2732144E-009  0.1335632E+03  0.7561462E-02  0.1222262E+00
         -3   -1    0    0    0  501 -0.00000000000E+00  0.00000000000E+00  0.80961548017E+02  0.80961548017E+02  0.00000000000E+00 0.  1.
          3   -1    0    0  501    0  0.00000000000E+00 -0.00000000000E+00 -0.30054900279E+03  0.30054900279E+03  0.00000000000E+00 0. -1.
         25    2    1    2    0    0 -0.37121648848E+00  0.11094884104E+03 -0.12358580981E+03  0.20792086480E+03  0.12509136861E+03 0.  0.
          5    1    3    3  502    0 -0.15199046105E+02  0.57855478817E+01  0.21993700560E+02  0.27670902246E+02  0.41800000000E+01 0.  1.
         -5    1    3    3    0  502  0.14827829616E+02  0.10516329316E+03 -0.14557951037E+03  0.18024996255E+03  0.41800000000E+01 0.  1.
        -11    1    1    2    0    0  0.42463130587E+02 -0.27513112366E+02 -0.26429755183E+02  0.57084330340E+02  0.00000000000E+00 0. -1.
         11    1    1    2    0    0 -0.42091914098E+02 -0.83435728677E+02 -0.69571889773E+02  0.11650535567E+03  0.00000000000E+00 0.  1.
</event>
<event>
 7    1  0.2732144E-009  0.8440034E+02  0.7561462E-02  0.1317008E+00
          2   -1    0    0  501    0  0.00000000000E+00  0.00000000000E+00  0.48503967896E+02  0.48503967896E+02  0.00000000000E+00 0. -1.
         -2   -1    0    0    0  501 -0.00000000000E+00 -0.00000000000E+00 -0.34874982267E+03  0.34874982267E+03  0.00000000000E+00 0.  1.
         25    2    1    2    0    0  0.37035054097E+02 -0.40923042158E+02 -0.95932576163E+02  0.16702906463E+03  0.12509739666E+03 0.  0.
          5    1    3    3  502    0 -0.78283068471E+01  0.23535561756E+02 -0.83750008904E+02  0.87445648529E+02  0.41800000000E+01 0. -1.
         -5    1    3    3    0  502  0.44863360944E+02 -0.64458603915E+02 -0.12182567259E+02  0.79583416104E+02  0.41800000000E+01 0. -1.
        -11    1    1    2    0    0 -0.25000095197E+01  0.28026327470E+02 -0.63329366181E+01  0.28841483409E+02  0.00000000000E+00 0. -1.
         11    1    1    2    0    0 -0.34535044577E+02  0.12896714688E+02 -0.19798034199E+03  0.20138324252E+03  0.00000000000E+00 0.  1.
</event>
<event>
 7    1  0.2732144E-009  0.1969588E+03  0.7561462E-02  0.1152330E+00
          2   -1    0    0  501    0  0.00000000000E+00  0.00000000000E+00  0.39718781308E+03  0.39718781308E+03  0.00000000000E+00 0. -1.
         -2   -1    0    0    0  501 -0.00000000000E+00 -0.00000000000E+00 -0.11829114040E+03  0.11829114040E+03  0.00000000000E+00 0.  1.
         25    2    1    2    0    0  0.16350744872E+03 -0.77611109630E+02  0.20029681813E+03  0.29753228328E+03  0.12509386122E+03 0.  0.
          5    1    3    3  502    0  0.29227772320E+01  0.22228055644E+02  0.53349888426E+02  0.58019928296E+02  0.41800000000E+01 0. -1.
         -5    1    3    3    0  502  0.16058467149E+03 -0.99839165274E+02  0.14694692971E+03  0.23951235498E+03  0.41800000000E+01 0. -1.
        -11    1    1    2    0    0 -0.13971175445E+03  0.73366516520E+02  0.25829176106E+02  0.15990361602E+03  0.00000000000E+00 0.  1.
         11    1    1    2    0    0 -0.23795694271E+02  0.42445931107E+01  0.52770678443E+02  0.58043054191E+02  0.00000000000E+00 0. -1.
</event>
<event>
 7    1  0.2732144E-009  0.1599365E+03  0.7561462E-02  0.1188768E+00
         -1   -1    0    0    0  501 -0.00000000000E+00  0.00000000000E+00  0.56457868024E+03  0.56457868024E+03  0.00000000000E+00 0.  1.
          1   -1    0    0  501    0  0.00000000000E+00 -0.00000000000E+00 -0.51767771659E+02  0.51767771659E+02  0.00000000000E+00 0. -1.
         25    2    1    2    0    0  0.38826232352E+02 -0.12423231166E+03  0.31752173078E+03  0.36525968706E+03  0.12511373183E+03 0.  0.
          5    1    3    3  502    0 -0.33410179706E+02 -0.53892896699E+02  0.20254580180E+03  0.21228037744E+03  0.41800000000E+01 0.  1.
         -5    1    3    3    0  502  0.72236412058E+02 -0.70339414966E+02  0.11497592898E+03  0.15297930962E+03  0.41800000000E+01 0.  1.
        -11    1    1    2    0    0 -0.19442868375E+02 -0.85393508626E+01  0.44075867599E+02  0.48924715108E+02  0.00000000000E+00 0. -1.
         11    1    1    2    0    0 -0.19383363977E+02  0.13277166253E+03  0.15121331020E+03  0.20216204973E+03  0.00000000000E+00 0.  1.
</event>
<event>
 7    1  0.2732144E-009  0.1060161E+03  0.7561462E-02  0.1268131E+00
          3   -1    0    0  501    0  0.00000000000E+00  0.00000000000E+00  0.40110888199E+02  0.40110888199E+02  0.00000000000E+00 0. -1.
         -3   -1    0    0    0  501 -0.00000000000E+00 -0.00000000000E+00 -0.53252132202E+03  0.53252132202E+03  0.00000000000E+00 0.  1.
         25    2    1    2    0    0 -0.46825123126E+02  0.20604152933E+02 -0.42819321349E+03  0.44901435719E+03  0.12508933451E+03 0.  0.
          5    1    3    3  502    0  0.37965098459E+02 -0.17266513977E+01 -0.65431929394E+02  0.75783506189E+02  0.41800000000E+01 0.  1.
         -5    1    3    3    0  502 -0.84790221585E+02  0.22330804331E+02 -0.36276128410E+03  0.37323085100E+03  0.41800000000E+01 0.  1.
        -11    1    1    2    0    0  0.27238576430E+02 -0.46293888188E+02 -0.22787899844E+01  0.53761110603E+02  0.00000000000E+00 0. -1.
         11    1    1    2    0    0  0.19586546696E+02  0.25689735255E+02 -0.61938430342E+02  0.69856742425E+02  0.00000000000E+00 0.  1.
</event>
<event>
 7    1  0.3142434E-009  0.1370183E+03  0.7561462E-02  0.1217398E+00
          1   -1    0    0  501    0  0.00000000000E+00  0.00000000000E+00  0.78322468413E+03  0.78322468413E+03  0.00000000000E+00 0. -1.
         -1   -1    0    0    0  501 -0.00000000000E+00 -0.00000000000E+00 -0.33326572784E+02  0.33326572784E+02  0.00000000000E+00 0.  1.
         25    2    1    2    0    0 -0.59909367530E+02  0.87388604445E+02  0.26105500842E+03  0.30825005564E+03  0.12506989595E+03 0.  0.
          5    1    3    3  502    0 -0.81299572641E+02  0.64313442555E+02  0.25585138391E+03  0.27608557089E+03  0.41800000000E+01 0. -1.
         -5    1    3    3    0  502  0.21390205111E+02  0.23075161891E+02  0.52036245114E+01  0.32164484747E+02  0.41800000000E+01 0. -1.
        -11    1    1    2    0    0  0.75002957221E+02 -0.32708949317E+02  0.26243699901E+03  0.27489724881E+03  0.00000000000E+00 0. -1.
         11    1    1    2    0    0 -0.15093589690E+02 -0.54679655128E+02  0.22640610392E+03  0.23340395247E+03  0.00000000000E+00 0.  1.
</event>
<event>
 7    1  0.2732144E-009  0.1163149E+03  0.7561462E-02  0.1249303E+00
         -1   -1    0    0    0  501 -0.00000000000E+00  0.00000000000E+00  0.37389775169E+02  0.37389775169E+02  0.00000000000E+00 0.  1.
          1   -1    0    0  501    0  0.00000000000E+00 -0.00000000000E+00 -0.48410081518E+03  0.48410081518E+03  0.00000000000E+00 0. -1.
         25    2    1    2    0    0  0.50809905877E+02  0.49351855256E+02 -0.20062618173E+03  0.24681108363E+03  0.12509034357E+03 0.  0.
          5    1    3    3  502    0 -0.36856673176E+02  0.54926841466E+01 -0.97529053358E+02  0.10448910271E+03  0.41800000000E+01 0.  1.
         -5    1    3    3    0  502  0.87666579053E+02  0.43859171109E+02 -0.10309712838E+03  0.14232198092E+03  0.41800000000E+01 0.  1.
        -11    1    1    2    0    0  0.16327871434E+02 -0.11154368572E+02 -0.34844478443E+01  0.20078862034E+02  0.00000000000E+00 0.  1.
         11    1    1    2    0    0 -0.67137777310E+02 -0.38197486684E+02 -0.24260041043E+03  0.25460064468E+03  0.00000000000E+00 0. -1.
</event>
<event>
 7    1  0.2732144E-009  0.1093814E+03  0.7561462E-02  0.1261720E+00
         -4   -1    0    0    0  501 -0.00000000000E+00  0.00000000000E+00  0.29711670775E+03  0.29711670775E+03  0.00000000000E+00 0. -1.
          4   -1    0    0  501    0  0.00000000000E+00 -0.00000000000E+00 -0.71337320829E+02  0.71337320829E+02  0.00000000000E+00 0.  1.
         25    2    1    2    0    0  0.45459003156E+02  0.14953660847E+01  0.23213523357E+03  0.26758888774E+03  0.12509312167E+03 0.  0.
          5    1    3    3  502    0 -0.39765670926E+02 -0.18464215207E+02  0.59969051520E+02  0.74404269821E+02  0.41800000000E+01 0. -1.
         -5    1    3    3    0  502  0.85224674082E+02  0.19959581292E+02  0.17216618205E+03  0.19318461791E+03  0.41800000000E+01 0. -1.
        -11    1    1    2    0    0 -0.20216554924E+02  0.36353110191E+02  0.22202041508E+02  0.47150698412E+02  0.00000000000E+00 0.  1.
         11    1    1    2    0    0 -0.25242448231E+02 -0.37848476276E+02 -0.28557888159E+02  0.53714442427E+02  0.00000000000E+00 0. -1.
</event>
<event>
 7    1  0.2732144E-009  0.1471288E+03  0.7561462E-02  0.1204046E+00
          1   -1    0    0  501    0  0.00000000000E+00  0.00000000000E+00  0.68364504250E+03  0.68364504250E+03  0.00000000000E+00 0. -1.
         -1   -1    0    0    0  501 -0.00000000000E+00 -0.00000000000E+00 -0.33631491681E+02  0.33631491681E+02  0.00000000000E+00 0.  1.
         25    2    1    2    0    0  0.12049963261E+02  0.10263560322E+03  0.40005738631E+03  0.43170850406E+03  0.12508817481E+03 0.  0.
          5    1    3    3  502    0 -0.48730370384E+02  0.85688494051E+02  0.25748728718E+03  0.27574325462E+03  0.41800000000E+01 0. -1.
         -5    1    3    3    0  502  0.60780333645E+02  0.16947109165E+02  0.14257009913E+03  0.15596524944E+03  0.41800000000E+01 0. -1.
        -11    1    1    2    0    0 -0.42331203205E+02 -0.90165366843E+02  0.21861969205E+03  0.24024215678E+03  0.00000000000E+00 0.  1.
         11    1    1    2    0    0  0.30281239944E+02 -0.12470236373E+02  0.31336472460E+02  0.45325873339E+02  0.00000000000E+00 0. -1.
</event>
<event>
 7    1  0.2732144E-009  0.8053086E+02  0.7561462E-02  0.1327552E+00
          1   -1    0    0  501    0  0.00000000000E+00  0.00000000000E+00  0.34370234841E+03  0.34370234841E+03  0.00000000000E+00 0. -1.
         -1   -1    0    0    0  501 -0.00000000000E+00 -0.00000000000E+00 -0.38445166238E+02  0.38445166238E+02  0.00000000000E+00 0.  1.
         25    2    1    2    0    0 -0.12962264615E+02  0.14514769546E+02  0.21932379242E+03  0.25323695367E+03  0.12508928788E+03 0.  0.
          5    1    3    3  502    0  0.19589442134E+02  0.49876281744E+02  0.18843694105E+03  0.19595239951E+03  0.41800000000E+01 0. -1.
         -5    1    3    3    0  502 -0.32551706749E+02 -0.35361512198E+02  0.30886851376E+02  0.57284554158E+02  0.41800000000E+01 0. -1.
        -11    1    1    2    0    0  0.82949720994E+01  0.21348551760E+02 -0.11030793865E+02  0.25421361837E+02  0.00000000000E+00 0.  1.
         11    1    1    2    0    0  0.46672925155E+01 -0.35863321306E+02  0.96964183611E+02  0.10348919914E+03  0.00000000000E+00 0. -1.
</event>
<event>
 7    1  0.2732144E-009  0.1009091E+03  0.7561462E-02  0.1278396E+00
          4   -1    0    0  501    0  0.00000000000E+00  0.00000000000E+00  0.41140229283E+02  0.41140229283E+02  0.00000000000E+00 0.  1.
         -4   -1    0    0    0  501 -0.00000000000E+00 -0.00000000000E+00 -0.56085537249E+03  0.56085537249E+03  0.00000000000E+00 0. -1.
         25    2    1    2    0    0 -0.41985145470E+02  0.24604312718E+01 -0.47385650101E+03  0.49189079623E+03  0.12509102964E+03 0.  0.
          5    1    3    3  502    0 -0.55677906278E+02 -0.47055325470E+02 -0.19315004394E+03  0.20649127046E+03  0.41800000000E+01 0.  1.
         -5    1    3    3    0  502  0.13692760809E+02  0.49515756742E+02 -0.28070645708E+03  0.28539952577E+03  0.41800000000E+01 0.  1.
        -11    1    1    2    0    0  0.56008615298E+02  0.11818723907E+02 -0.62006680041E+02  0.84388835708E+02  0.00000000000E+00 0. -1.
         11    1    1    2    0    0 -0.14023469829E+02 -0.14279155179E+02  0.16148037845E+02  0.25715969842E+02  0.00000000000E+00 0.  1.
</event>
<event>
 6    1  0.2732144E-009  0.1050995E+03  0.7561462E-02  0.1269924E+00
         -1   -1    0    0    0  501 -0.00000000000E+00  0.00000000000E+00  0.32081829212E+02  0.32081829212E+02  0.00000000000E+00 0.  1.
          1   -1    0    0  501    0  0.00000000000E+00 -0.00000000000E+00 -0.45741500296E+03  0.45741500296E+03  0.00000000000E+00 0. -1.
          5    1    1    2  502    0 -0.76596869399E+02 -0.24379250843E+02 -0.15788390497E+03  0.17721802426E+03  0.41800000000E+01 0.  1.
         -5    1    1    2    0  502  0.35203265500E+02  0.70125180276E+01 -0.10940838658E+02  0.37757378901E+02  0.41800000000E+01 0.  1.
        -11    1    1    2    0    0  0.44365449396E+02  0.46509396975E+02 -0.20944553210E+03  0.21908639397E+03  0.00000000000E+00 0. -1.
         11    1    1    2    0    0 -0.29718454967E+01 -0.29142664160E+02 -0.47062898020E+02  0.55435035041E+02  0.00000000000E+00 0.  1.
</event>
<event>
 7    1  0.2732144E-009  0.1161835E+03  0.7561462E-02  0.1249529E+00
         -2   -1    0    0    0  501 -0.00000000000E+00  0.00000000000E+00  0.10990853951E+03  0.10990853951E+03  0.00000000000E+00 0. -1.
          2   -1    0    0  501    0  0.00000000000E+00 -0.00000000000E+00 -0.15322647988E+03  0.15322647988E+03  0.00000000000E+00 0.  1.
         25    2    1    2    0    0 -0.65508403415E+02  0.18795940815E+02 -0.41737981088E+02  0.14843520227E+03  0.12508521855E+03 0.  0.
          5    1    3    3  502    0  0.33690584068E+02 -0.15604140302E+02 -0.10374470557E+02  0.38776883432E+02  0.41800000000E+01 0.  1.
         -5    1    3    3    0  502 -0.99198987483E+02  0.34400081117E+02 -0.31363510531E+02  0.10965831884E+03  0.41800000000E+01 0.  1.
        -11    1    1    2    0    0  0.64212794117E+02  0.65509885277E+01 -0.34455932312E+02  0.73166998370E+02  0.00000000000E+00 0.  1.
         11    1    1    2    0    0  0.12956092975E+01 -0.25346929343E+02  0.32875973025E+02  0.41532818745E+02  0.00000000000E+00 0. -1.
</event>
<event>
 7    1  0.2732144E-009  0.1127351E+03  0.7561462E-02  0.1255587E+00
          2   -1    0    0  501    0  0.00000000000E+00  0.00000000000E+00  0.70764645161E+03  0.70764645161E+03  0.00000000000E+00 0. -1.
         -2   -1    0    0    0  501 -0.00000000000E+00 -0.00000000000E+00 -0.18971703237E+02  0.18971703237E+02  0.00000000000E+00 0.  1.
         25    2    1    2    0    0 -0.33454113316E+02  0.54554864218E+01  0.46833014791E+03  0.48593176931E+03  0.12509043510E+03 0.  0.
          5    1    3    3  502    0  0.38790146833E+02 -0.29747945069E+02  0.16992168678E+03  0.17686285015E+03  0.41800000000E+01 0. -1.
         -5    1    3    3    0  502 -0.72244260149E+02  0.35203431490E+02  0.29840846113E+03  0.30906891916E+03  0.41800000000E+01 0. -1.
        -11    1    1    2    0    0  0.62262348666E+02 -0.17553182719E+02  0.16328019073E+03  0.17562783085E+03  0.00000000000E+00 0.  1.
         11    1    1    2    0    0 -0.28808235350E+02  0.12097696297E+02  0.57064409740E+02  0.65058554692E+02  0.00000000000E+00 0. -1.
</event>
<event>
 7    1  0.2732144E-009  0.3266275E+03  0.7561462E-02  0.1072639E+00
          2   -1    0    0  501    0  0.00000000000E+00  0.00000000000E+00  0.10097247708E+04  0.10097247708E+04  0.00000000000E+00 0. -1.
         -2   -1    0    0    0  501 -0.00000000000E+00 -0.00000000000E+00 -0.11004353125E+03  0.11004353125E+03  0.00000000000E+00 0.  1.
         25    2    1    2    0    0 -0.19198616167E+03  0.24929115517E+03  0.49100301192E+03  0.59643615878E+03  0.12508943788E+03 0.  0.
          5    1    3    3  502    0 -0.81802455666E+02  0.17669811462E+03  0.21262081263E+03  0.28833825245E+03  0.41800000000E+01 0. -1.
         -5    1    3    3    0  502 -0.11018370600E+03  0.72593040553E+02  0.27838219928E+03  0.30809790633E+03  0.41800000000E+01 0. -1.
        -11    1    1    2    0    0  0.52182414224E+02 -0.13880519669E+03  0.17260962330E+03  0.22756091281E+03  0.00000000000E+00 0. -1.
         11    1    1    2    0    0  0.13980374744E+03 -0.11048595848E+03  0.23606860437E+03  0.29577123050E+03  0.00000000000E+00 0.  1.
</event>
<event>
 7    1  0.2732144E-009  0.1060916E+03  0.7561462E-02  0.1267984E+00
          1   -1    0    0  501    0  0.00000000000E+00  0.00000000000E+00  0.62881382405E+03  0.62881382405E+03  0.00000000000E+00 0. -1.
         -1   -1    0    0    0  501 -0.00000000000E+00 -0.00000000000E+00 -0.21351004593E+02  0.21351004593E+02  0.00000000000E+00 0.  1.
         25    2    1    2    0    0 -0.48025828201E+01  0.36393865436E+02  0.30395718514E+03  0.33073408788E+03  0.12508992063E+03 0.  0.
          5    1    3    3  502    0 -0.30742474486E+02 -0.36778805630E+02  0.16058003865E+03  0.16763412986E+03  0.41800000000E+01 0.  1.
         -5    1    3    3    0  502  0.25939891666E+02  0.73172671066E+02  0.14337714649E+03  0.16309995802E+03  0.41800000000E+01 0.  1.
        -11    1    1    2    0    0  0.41407800405E+02 -0.15809597421E+02  0.23448870659E+03  0.23864094960E+03  0.00000000000E+00 0. -1.
         11    1    1    2    0    0 -0.36605217585E+02 -0.20584268016E+02  0.69016927735E+02  0.80789791175E+02  0.00000000000E+00 0.  1.
</event>
<event>
 7    1  0.2732144E-009  0.1355017E+03  0.7561462E-02  0.1219513E+00
          4   -1    0    0  501    0  0.00000000000E+00  0.00000000000E+00  0.50306820300E+02  0.50306820300E+02  0.00000000000E+00 0. -1.
         -4   -1    0    0    0  501 -0.00000000000E+00 -0.00000000000E+00 -0.64075554698E+03  0.64075554698E+03  0.00000000000E+00 0.  1.
         25    2    1    2    0    0 -0.97168910773E+02  0.65730805639E+02 -0.16195865675E+03  0.23588336659E+03  0.12509204653E+03 0.  0.
          5    1    3    3  502    0 -0.95329755492E+02  0.60303861410E+02 -0.49591814572E+02  0.12329289702E+03  0.41800000000E+01 0.  1.
         -5    1    3    3    0  502 -0.18391552818E+01  0.54269442290E+01 -0.11236684218E+03  0.11259046957E+03  0.41800000000E+01 0.  1.
        -11    1    1    2    0    0  0.88842075987E+01  0.23732956250E+02 -0.45360568838E+02  0.51959249055E+02  0.00000000000E+00 0.  1.
         11    1    1    2    0    0  0.88284703175E+02 -0.89463761889E+02 -0.38312950109E+03  0.40321975163E+03  0.00000000000E+00 0. -1.
</event>
<event>
 7    1  0.2732144E-009  0.1118125E+03  0.7561462E-02  0.1257250E+00
          1   -1    0    0  501    0  0.00000000000E+00  0.00000000000E+00  0.66659190637E+03  0.66659190637E+03  0.00000000000E+00 0. -1.
         -1   -1    0    0    0  501 -0.00000000000E+00 -0.00000000000E+00 -0.26629078948E+02  0.26629078948E+02  0.00000000000E+00 0.  1.
         25    2    1    2    0    0 -0.67066573853E+02 -0.36976896994E+02  0.38464836927E+03  0.41166461618E+03  0.12509265362E+03 0.  0.
          5    1    3    3  502    0  0.34301547695E+02  0.47265539871E+01  0.65738757463E+02  0.74417693593E+02  0.41800000000E+01 0. -1.
         -5    1    3    3    0  502 -0.10136812155E+03 -0.41703450982E+02  0.31890961181E+03  0.33724692259E+03  0.41800000000E+01 0. -1.
        -11    1    1    2    0    0  0.52568622225E+02  0.37461253068E+02  0.25872397889E+03  0.26665502578E+03  0.00000000000E+00 0. -1.
         11    1    1    2    0    0  0.14497951628E+02 -0.48435607315E+00 -0.34095207342E+01  0.14901343358E+02  0.00000000000E+00 0.  1.
</event>
<event>
 7    1  0.2732144E-009  0.1354186E+03  0.7561462E-02  0.1219630E+00
         -2   -1    0    0    0  501 -0.00000000000E+00  0.00000000000E+00  0.17271790470E+03  0.17271790470E+03  0.00000000000E+00 0.  1.
          2   -1    0    0  501    0  0.00000000000E+00 -0.00000000000E+00 -0.15343535806E+03  0.15343535806E+03  0.00000000000E+00 0. -1.
         25    2    1    2    0    0  0.11474025164E+03  0.12118893035E+01  0.49424627664E+02  0.17679603191E+03  0.12508896457E+03 0.  0.
          5    1    3    3  502    0  0.12262808861E+03 -0.62641388395E+01  0.78281204211E+02  0.14567877980E+03  0.41800000000E+01 0. -1.
         -5    1    3    3    0  502 -0.78878369660E+01  0.74760281430E+01 -0.28856576548E+02  0.31117252110E+02  0.41800000000E+01 0. -1.
        -11    1    1    2    0    0 -0.83480563005E+02 -0.34805991226E+02  0.64355465779E+01  0.90674570220E+02  0.00000000000E+00 0.  1.
         11    1    1    2    0    0 -0.31259688640E+02  0.33594101922E+02 -0.36577627605E+02  0.58682660633E+02  0.00000000000E+00 0. -1.
</event>
<event>
 7    1  0.2732144E-009  0.1128393E+03  0.7561462E-02  0.1255401E+00
         -2   -1    0    0    0  501 -0.00000000000E+00  0.00000000000E+00  0.84511120587E+02  0.84511120587E+02  0.00000000000E+00 0.  1.
          2   -1    0    0  501    0  0.00000000000E+00 -0.00000000000E+00 -0.17381559453E+03  0.17381559453E+03  0.00000000000E+00 0. -1.
         25    2    1    2    0    0 -0.33332081916E+02  0.37616071258E+02 -0.75711056743E+02  0.15461955261E+03  0.12509614476E+03 0.  0.
          5    1    3    3  502    0 -0.62239713739E+02  0.60248465904E+02 -0.79274961067E+02  0.11749745300E+03  0.41800000000E+01 0.  1.
         -5    1    3    3    0  502  0.28907631822E+02 -0.22632394646E+02  0.35639043246E+01  0.37122099604E+02  0.41800000000E+01 0.  1.
        -11    1    1    2    0    0 -0.21590919602E+02  0.14725176012E+02  0.21470737904E+01  0.26222290969E+02  0.00000000000E+00 0.  1.
         11    1    1    2    0    0  0.54923001518E+02 -0.52341247270E+02 -0.15740490995E+02  0.77484871545E+02  0.00000000000E+00 0. -1.
</event>
<event>
 7    1  0.2732144E-009  0.1251091E+03  0.7561462E-02  0.1234899E+00
          2   -1    0    0  501    0  0.00000000000E+00  0.00000000000E+00  0.61846019014E+03  0.61846019014E+03  0.00000000000E+00 0. -1.
         -2   -1    0    0    0  501 -0.00000000000E+00 -0.00000000000E+00 -0.33822615702E+02  0.33822615702E+02  0.00000000000E+00 0.  1.
         25    2    1    2    0    0  0.26588818909E+02 -0.61307036808E+02  0.16453306690E+03  0.21721916226E+03  0.12509003275E+03 0.  0.
          5    1    3    3  502    0 -0.21827727460E+02 -0.84134357722E+02  0.11462661987E+03  0.14391585811E+03  0.41800000000E+01 0. -1.
         -5    1    3    3    0  502  0.48416546369E+02  0.22827320913E+02  0.49906447038E+02  0.73303304143E+02  0.41800000000E+01 0. -1.
        -11    1    1    2    0    0 -0.54163932060E+02  0.61473730099E+02  0.26006008895E+03  0.27266096327E+03  0.00000000000E+00 0.  1.
         11    1    1    2    0    0  0.27575113151E+02 -0.16669329090E+00  0.16004441859E+03  0.16240268032E+03  0.00000000000E+00 0. -1.
</event>
<event>
 7    1  0.2732144E-009  0.8290576E+02  0.7561462E-02  0.1321002E+00
          1   -1    0    0  501    0  0.00000000000E+00  0.00000000000E+00  0.23562867892E+02  0.23562867892E+02  0.00000000000E+00 0. -1.
         -1   -1    0    0    0  501 -0.00000000000E+00 -0.00000000000E+00 -0.52211206690E+03  0.52211206690E+03  0.00000000000E+00 0.  1.
         25    2    1    2    0    0  0.30749164334E+02  0.24301154253E+02 -0.28261222977E+03  0.31153568012E+03  0.12509496540E+03 0.  0.
          5    1    3    3  502    0  0.58861435010E+01  0.58032971435E+02 -0.55744000947E+02  0.80791945764E+02  0.41800000000E+01 0. -1.
         -5    1    3    3    0  502  0.24863020833E+02 -0.33731817181E+02 -0.22686822883E+03  0.23074373436E+03  0.41800000000E+01 0. -1.
        -11    1    1    2    0    0  0.12241853446E+02 -0.17999734507E+02 -0.10519508479E+02  0.24176713523E+02  0.00000000000E+00 0. -1.
         11    1    1    2    0    0 -0.42991017780E+02 -0.63014197465E+01 -0.20541746076E+03  0.20996254115E+03  0.00000000000E+00 0.  1.
</event>
<event>
 7    1  0.2732144E-009  0.8998588E+02  0.7561462E-02  0.1302886E+00
         -2   -1    0    0    0  501 -0.00000000000E+00  0.00000000000E+00  0.30937333558E+03  0.30937333558E+03  0.00000000000E+00 0.  1.
          2   -1    0    0  501    0  0.00000000000E+00 -0.00000000000E+00 -0.42208742433E+02  0.42208742433E+02  0.00000000000E+00 0. -1.
         25    2    1    2    0    0  0.33959236824E+02 -0.99210393738E+01  0.16194889617E+03  0.20766826724E+03  0.12508799886E+03 0.  0.
          5    1    3    3  502    0  0.37668578201E+02 -0.55718353504E+02  0.42626342888E+02  0.79736655366E+02  0.41800000000E+01 0.  1.
         -5    1    3    3    0  502 -0.37093413763E+01  0.45797314131E+02  0.11932255328E+03  0.12793161187E+03  0.41800000000E+01 0.  1.
        -11    1    1    2    0    0 -0.42792061576E+02 -0.10618694541E+02  0.88255279874E+01  0.44964509915E+02  0.00000000000E+00 0. -1.
         11    1    1    2    0    0  0.88328247513E+01  0.20539733915E+02  0.96390168993E+02  0.98949300861E+02  0.00000000000E+00 0.  1.
</event>
<event>
 7    1  0.2732144E-009  0.2078153E+03  0.7561462E-02  0.1143308E+00
          1   -1    0    0  501    0  0.00000000000E+00  0.00000000000E+00  0.67747825023E+03  0.67747825023E+03  0.00000000000E+00 0. -1.
         -1   -1    0    0    0  501 -0.00000000000E+00 -0.00000000000E+00 -0.76149606597E+02  0.76149606597E+02  0.00000000000E+00 0.  1.
         25    2    1    2    0    0 -0.16035654286E+03  0.86972096202E+02  0.22045928794E+03  0.31229656942E+03  0.12509389782E+03 0.  0.
          5    1    3    3  502    0 -0.21268348183E+02  0.59454640379E+02  0.19308148906E+02  0.66162481145E+02  0.41800000000E+01 0.  1.
         -5    1    3    3    0  502 -0.13908819468E+03  0.27517455823E+02  0.20115113903E+03  0.24613408827E+03  0.41800000000E+01 0.  1.
        -11    1    1    2    0    0  0.17342771489E+03 -0.92213774478E+02  0.37932644580E+03  0.42716402585E+03  0.00000000000E+00 0. -1.
         11    1    1    2    0    0 -0.13071172025E+02  0.52416782760E+01  0.15429098926E+01  0.14167261563E+02  0.00000000000E+00 0.  1.
</event>
<event>
 7    1  0.2732144E-009  0.8653128E+02  0.7561462E-02  0.1311476E+00
          1   -1    0    0  501    0  0.00000000000E+00  0.00000000000E+00  0.14872815468E+03  0.14872815468E+03  0.00000000000E+00 0. -1.
         -1   -1    0    0    0  501 -0.00000000000E+00 -0.00000000000E+00 -0.98878455208E+02  0.98878455208E+02  0.00000000000E+00 0.  1.
         25    2    1    2    0    0 -0.10035892346E+02 -0.31521033084E+02 -0.24220959588E+02  0.13163405228E+03  0.12508626693E+03 0.  0.
          5    1    3    3  502    0  0.74388964029E+01  0.31655909890E+02 -0.51060085426E+02  0.60679803348E+02  0.41800000000E+01 0. -1.
         -5    1    3    3    0  502 -0.17474788748E+02 -0.63176942975E+02  0.26839125838E+02  0.70954248929E+02  0.41800000000E+01 0. -1.
        -11    1    1    2    0    0  0.14361131929E+00 -0.21075393588E+02  0.55428308748E+02  0.59300002106E+02  0.00000000000E+00 0.  1.
         11    1    1    2    0    0  0.98922810262E+01  0.52596426672E+02  0.18642350317E+02  0.56672555509E+02  0.00000000000E+00 0. -1.
</event>
<event>
 7    1  0.2732144E-009  0.3015293E+03  0.7561462E-02  0.1084479E+00
          2   -1    0    0  501    0  0.00000000000E+00  0.00000000000E+00  0.12211716286E+04  0.12211716286E+04  0.00000000000E+00 0. -1.
         -2   -1    0    0    0  501 -0.00000000000E+00 -0.00000000000E+00 -0.80354669830E+02  0.80354669830E+02  0.00000000000E+00 0.  1.
         25    2    1    2    0    0  0.27996153359E+03  0.87764435832E+02  0.60381341197E+03  0.68287591728E+03  0.12509126844E+03 0.  0.
          5    1    3    3  502    0  0.21554014179E+03  0.45980689736E+02  0.53890943801E+03  0.58224791226E+03  0.41800000000E+01 0. -1.
         -5    1    3    3    0  502  0.64421391799E+02  0.41783746096E+02  0.64903973959E+02  0.10062800502E+03  0.41800000000E+01 0. -1.
        -11    1    1    2    0    0 -0.24362582884E+03 -0.41877754220E+02  0.45627978701E+03  0.51893981810E+03  0.00000000000E+00 0. -1.
         11    1    1    2    0    0 -0.36335704750E+02 -0.45886681612E+02  0.80723759818E+02  0.99710563072E+02  0.00000000000E+00 0.  1.
</event>
<event>
 7    1  0.2732144E-009  0.1000508E+03  0.7561462E-02  0.1280189E+00
         -3   -1    0    0    0  501 -0.00000000000E+00  0.00000000000E+00  0.64281748096E+03  0.64281748096E+03  0.00000000000E+00 0.  1.
          3   -1    0    0  501    0  0.00000000000E+00 -0.00000000000E+00 -0.24294481903E+02  0.24294481903E+02  0.00000000000E+00 0. -1.
         25    2    1    2    0    0 -0.18591013374E+02  0.57882487748E+02  0.36391819511E+03  0.38958978990E+03  0.12509094090E+03 0.  0.
          5    1    3    3  502    0  0.70794411701E+01 -0.16621028244E+02  0.14152996593E+01  0.18597111074E+02  0.41800000000E+01 0.  1.
         -5    1    3    3    0  502 -0.25670454544E+02  0.74503515992E+02  0.36250289545E+03  0.37099267883E+03  0.41800000000E+01 0.  1.
        -11    1    1    2    0    0  0.20709985210E+02 -0.78873906095E+02  0.14924562476E+03  0.17007131757E+03  0.00000000000E+00 0. -1.
         11    1    1    2    0    0 -0.21189718357E+01  0.20991418346E+02  0.10535917919E+03  0.10745085539E+03  0.00000000000E+00 0.  1.
</event>
<event>
 7    1  0.2732144E-009  0.1638107E+03  0.7561462E-02  0.1184460E+00
         -2   -1    0    0    0  501 -0.00000000000E+00  0.00000000000E+00  0.57065353070E+03  0.57065353070E+03  0.00000000000E+00 0.  1.
          2   -1    0    0  501    0  0.00000000000E+00 -0.00000000000E+00 -0.54939256660E+02  0.54939256660E+02  0.00000000000E+00 0. -1.
         25    2    1    2    0    0  0.12131493595E+03 -0.67576988949E+02  0.25610548079E+03  0.31705681067E+03  0.12510411977E+03 0.  0.
          5    1    3    3  502    0 -0.18352999789E+02 -0.25492426353E+02  0.92739225538E+02  0.98003738479E+02  0.41800000000E+01 0. -1.
         -5    1    3    3    0  502  0.13966793574E+03 -0.42084562597E+02  0.16336625525E+03  0.21905307219E+03  0.41800000000E+01 0. -1.
        -11    1    1    2    0    0 -0.50494399063E+02 -0.22533264740E+01  0.15992230486E+03  0.16771972277E+03  0.00000000000E+00 0.  1.
         11    1    1    2    0    0 -0.70820536889E+02  0.69830315423E+02  0.99686488401E+02  0.14081625392E+03  0.00000000000E+00 0. -1.
</event>
<event>
 7    1  0.2894172E-009  0.2177012E+03  0.7561462E-02  0.1135609E+00
         -1   -1    0    0    0  501 -0.00000000000E+00  0.00000000000E+00  0.84014280012E+02  0.84014280012E+02  0.00000000000E+00 0.  1.
          1   -1    0    0  501    0  0.00000000000E+00 -0.00000000000E+00 -0.61841066611E+03  0.61841066611E+03  0.00000000000E+00 0. -1.
         25    2    1    2    0    0  0.86614141811E+02 -0.17203632713E+03 -0.19201095567E+03  0.29935569688E+03  0.12508844370E+03 0.  0.
          5    1    3    3  502    0  0.89908588866E+02 -0.18662414346E+03 -0.19382564325E+03  0.28372165525E+03  0.41800000000E+01 0. -1.
         -5    1    3    3    0  502 -0.32944470554E+01  0.14587816337E+02  0.18146875802E+01  0.15634041637E+02  0.41800000000E+01 0. -1.
        -11    1    1    2    0    0 -0.92498712445E+02  0.85556541384E+02 -0.20087142745E+03  0.23711867060E+03  0.00000000000E+00 0.  1.
         11    1    1    2    0    0  0.58845706339E+01  0.86479785743E+02 -0.14151400298E+03  0.16595057865E+03  0.00000000000E+00 0. -1.
</event>
<event>
 7    1  0.2732144E-009  0.1706760E+03  0.7561462E-02  0.1177145E+00
          2   -1    0    0  501    0  0.00000000000E+00  0.00000000000E+00  0.20176467301E+03  0.20176467301E+03  0.00000000000E+00 0. -1.
         -2   -1    0    0    0  501 -0.00000000000E+00 -0.00000000000E+00 -0.17576281658E+03  0.17576281658E+03  0.00000000000E+00 0.  1.
         25    2    1    2    0    0  0.14345058414E+03  0.34610470180E+02 -0.28814070576E+02  0.19559513172E+03  0.12510495656E+03 0.  0.
          5    1    3    3  502    0  0.11941641351E+02 -0.39170877135E+02 -0.16136081697E+02  0.44213187470E+02  0.41800000000E+01 0. -1.
         -5    1    3    3    0  502  0.13150894278E+03  0.73781347316E+02 -0.12677988879E+02  0.15138194425E+03  0.41800000000E+01 0. -1.
        -11    1    1    2    0    0 -0.82737449730E+02 -0.31548087190E+02  0.76875801845E+02  0.11726319245E+03  0.00000000000E+00 0. -1.
         11    1    1    2    0    0 -0.60713134406E+02 -0.30623829906E+01 -0.22059874837E+02  0.64669165425E+02  0.00000000000E+00 0.  1.
</event>
<event>
 7    1  0.2732144E-009  0.1047056E+03  0.7561462E-02  0.1270701E+00
          1   -1    0    0  501    0  0.00000000000E+00  0.00000000000E+00  0.65900729574E+03  0.65900729574E+03  0.00000000000E+00 0. -1.
         -1   -1    0    0    0  501 -0.00000000000E+00 -0.00000000000E+00 -0.32119362141E+02  0.32119362141E+02  0.00000000000E+00 0.  1.
         25    2    1    2    0    0  0.40370255915E+02 -0.30631183415E+02  0.53300684250E+03  0.54983123893E+03  0.12510024055E+03 0.  0.
          5    1    3    3  502    0  0.35544144933E+02 -0.78288724738E+02  0.36993353876E+03  0.37981680605E+03  0.41800000000E+01 0.  1.
         -5    1    3    3    0  502  0.48261109814E+01  0.47657541323E+02  0.16307330374E+03  0.17001443288E+03  0.41800000000E+01 0.  1.
        -11    1    1    2    0    0  0.13889189843E+02  0.10347055287E+02 -0.11676469412E+02  0.20888060837E+02  0.00000000000E+00 0.  1.
         11    1    1    2    0    0 -0.54259445758E+02  0.20284128128E+02  0.10555756051E+03  0.12040735811E+03  0.00000000000E+00 0. -1.
</event>
<event>
 7    1  0.2732144E-009  0.1192211E+03  0.7561462E-02  0.1244387E+00
         -1   -1    0    0    0  501 -0.00000000000E+00  0.00000000000E+00  0.53425070270E+03  0.53425070270E+03  0.00000000000E+00 0.  1.
          1   -1    0    0  501    0  0.00000000000E+00 -0.00000000000E+00 -0.41182677440E+02  0.41182677440E+02  0.00000000000E+00 0. -1.
         25    2    1    2    0    0  0.51437435373E+02  0.84440048792E+02  0.30695114198E+03  0.34588714299E+03  0.12507190143E+03 0.  0.
          5    1    3    3  502    0  0.51280030576E+02  0.40322448563E+02  0.29183220645E+03  0.29906362286E+03  0.41800000000E+01 0. -1.
         -5    1    3    3    0  502  0.15740479675E+00  0.44117600229E+02  0.15118935526E+02  0.46823520133E+02  0.41800000000E+01 0. -1.
        -11    1    1    2    0    0 -0.52983448952E+02 -0.99974911262E+02  0.18034798308E+03  0.21290285049E+03  0.00000000000E+00 0. -1.
         11    1    1    2    0    0  0.15460135789E+01  0.15534862470E+02  0.57689002002E+01  0.16643386659E+02  0.00000000000E+00 0.  1.
</event>
<event>
 7    1  0.2732144E-009  0.1284370E+03  0.7561462E-02  0.1229794E+00
          1   -1    0    0  501    0  0.00000000000E+00  0.00000000000E+00  0.54511330978E+03  0.54511330978E+03  0.00000000000E+00 0. -1.
         -1   -1    0    0    0  501 -0.00000000000E+00 -0.00000000000E+00 -0.37562458494E+02  0.37562458494E+02  0.00000000000E+00 0.  1.
         25    2    1    2    0    0  0.88249283579E+02 -0.15531546820E+02  0.22454919883E+03  0.27221365430E+03  0.12509502746E+03 0.  0.
          5    1    3    3  502    0  0.53761909479E+02  0.37924179337E+02  0.18687315963E+03  0.19816063302E+03  0.41800000000E+01 0. -1.
         -5    1    3    3    0  502  0.34487374100E+02 -0.53455726158E+02  0.37676039200E+02  0.74053021283E+02  0.41800000000E+01 0. -1.
        -11    1    1    2    0    0 -0.41778187543E+02  0.53011258080E+02  0.13693925590E+03  0.15266948039E+03  0.00000000000E+00 0. -1.
         11    1    1    2    0    0 -0.46471096035E+02 -0.37479711260E+02  0.14606239656E+03  0.15779263358E+03  0.00000000000E+00 0.  1.
</event>
<event>
 7    1  0.2732144E-009  0.8957831E+02  0.7561462E-02  0.1303876E+00
         -3   -1    0    0    0  501 -0.00000000000E+00  0.00000000000E+00  0.23732136685E+03  0.23732136685E+03  0.00000000000E+00 0.  1.
          3   -1    0    0  501    0  0.00000000000E+00 -0.00000000000E+00 -0.62260132345E+02  0.62260132345E+02  0.00000000000E+00 0. -1.
         25    2    1    2    0    0 -0.49395857487E+02 -0.14515876424E+02  0.79246429318E+02  0.15677470417E+03  0.12509056680E+03 0.  0.
          5    1    3    3  502    0  0.15866212265E+02  0.59229752550E+01  0.86163044695E+02  0.87911097130E+02  0.41800000000E+01 0.  1.
         -5    1    3    3    0  502 -0.65262069752E+02 -0.20438851679E+02 -0.69166153762E+01  0.68863607040E+02  0.41800000000E+01 0.  1.
        -11    1    1    2    0    0  0.48352881862E+01  0.41050775234E+02  0.99830529480E+01  0.42523023239E+02  0.00000000000E+00 0. -1.
         11    1    1    2    0    0  0.44560569301E+02 -0.26534898811E+02  0.85831752240E+02  0.10028377179E+03  0.00000000000E+00 0.  1.
</event>
<event>
 7    1  0.2732144E-009  0.1003562E+03  0.7561462E-02  0.1279549E+00
          2   -1    0    0  501    0  0.00000000000E+00  0.00000000000E+00  0.77096040167E+03  0.77096040167E+03  0.00000000000E+00 0. -1.
         -2   -1    0    0    0  501 -0.00000000000E+00 -0.00000000000E+00 -0.21244791730E+02  0.21244791730E+02  0.00000000000E+00 0.  1.
         25    2    1    2    0    0  0.36709192754E+02 -0.15885541764E+02  0.54183998510E+03  0.55753505325E+03  0.12511934653E+03 0.  0.
          5    1    3    3  502    0  0.65885495488E+02 -0.92595978681E+01  0.14549387875E+03  0.16003930712E+03  0.41800000000E+01 0. -1.
         -5    1    3    3    0  502 -0.29176302734E+02 -0.66259438963E+01  0.39634610635E+03  0.39749574614E+03  0.41800000000E+01 0. -1.
        -11    1    1    2    0    0 -0.65355896245E+02  0.29989380789E+02  0.10745673509E+03  0.12929696845E+03  0.00000000000E+00 0.  1.
         11    1    1    2    0    0  0.28646703491E+02 -0.14103839025E+02  0.10041888975E+03  0.10537317170E+03  0.00000000000E+00 0. -1.
</event>
<event>
 7    1  0.2732144E-009  0.1322225E+03  0.7561462E-02  0.1224195E+00
         -2   -1    0    0    0  501 -0.00000000000E+00  0.00000000000E+00  0.29543336732E+02  0.29543336732E+02  0.00000000000E+00 0.  1.
          2   -1    0    0  501    0  0.00000000000E+00 -0.00000000000E+00 -0.65079868246E+03  0.65079868246E+03  0.00000000000E+00 0. -1.
         25    2    1    2    0    0 -0.30486660393E+02 -0.71087549231E+02 -0.33575381190E+03  0.36655271972E+03  0.12508955996E+03 0.  0.
          5    1    3    3  502    0 -0.33280143095E+02 -0.10574574561E+03 -0.27315664533E+03  0.29482495812E+03  0.41800000000E+01 0. -1.
         -5    1    3    3    0  502  0.27934827024E+01  0.34658196382E+02 -0.62597166562E+02  0.71727761597E+02  0.41800000000E+01 0. -1.
        -11    1    1    2    0    0  0.62461652881E+02  0.42079267972E+02 -0.11178738596E+03  0.13479073608E+03  0.00000000000E+00 0.  1.
         11    1    1    2    0    0 -0.31974992488E+02  0.29008281259E+02 -0.17371414787E+03  0.17899856339E+03  0.00000000000E+00 0. -1.
</event>
<event>
 7    1  0.2732144E-009  0.1033804E+03  0.7561462E-02  0.1273344E+00
         -2   -1    0    0    0  501 -0.00000000000E+00  0.00000000000E+00  0.47090405231E+03  0.47090405231E+03  0.00000000000E+00 0.  1.
          2   -1    0    0  501    0  0.00000000000E+00 -0.00000000000E+00 -0.42596032274E+02  0.42596032274E+02  0.00000000000E+00 0. -1.
         25    2    1    2    0    0 -0.73481551730E+02 -0.29732836660E+02  0.31455340413E+03  0.34766953986E+03  0.12508670943E+03 0.  0.
          5    1    3    3  502    0  0.68981858678E+01 -0.32167832923E+02  0.22420386421E+03  0.22664333118E+03  0.41800000000E+01 0. -1.
         -5    1    3    3    0  502 -0.80379737598E+02  0.24349962633E+01  0.90349539926E+02  0.12102620868E+03  0.41800000000E+01 0. -1.
        -11    1    1    2    0    0  0.19902246435E+02 -0.13648323776E+02  0.89582467988E+02  0.92776046079E+02  0.00000000000E+00 0.  1.
         11    1    1    2    0    0  0.53579305295E+02  0.43381160437E+02  0.24172147911E+02  0.73054498639E+02  0.00000000000E+00 0. -1.
</event>
<event>
 7    1  0.2732144E-009  0.1524991E+03  0.7561462E-02  0.1197435E+00
          2   -1    0    0  501    0  0.00000000000E+00  0.00000000000E+00  0.30866498176E+03  0.30866498176E+03  0.00000000000E+00 0. -1.
         -2   -1    0    0    0  501 -0.00000000000E+00 -0.00000000000E+00 -0.86461492500E+02  0.86461492500E+02  0.00000000000E+00 0.  1.
         25    2    1    2    0    0 -0.43022656880E+02 -0.11515688713E+03  0.11761670792E+03  0.21117065160E+03  0.12508915402E+03 0.  0.
          5    1    3    3  502    0  0.30698884009E+02  0.52415609295E+01  0.81063687553E+01  0.32451210374E+02  0.41800000000E+01 0.  1.
         -5    1    3    3    0  502 -0.73721540889E+02 -0.12039844806E+03  0.10951033917E+03  0.17871944122E+03  0.41800000000E+01 0.  1.
        -11    1    1    2    0    0  0.53017842141E+02  0.81492381550E+02  0.30376269154E+02  0.10185586661E+03  0.00000000000E+00 0.  1.
         11    1    1    2    0    0 -0.99951852609E+01  0.33664505582E+02  0.74210512183E+02  0.82099956047E+02  0.00000000000E+00 0. -1.
</event>
<event>
 7    1  0.2732144E-009  0.2238824E+03  0.7561462E-02  0.1131021E+00
         -2   -1    0    0    0  501 -0.00000000000E+00  0.00000000000E+00  0.89802937339E+02  0.89802937339E+02  0.00000000000E+00 0.  1.
          2   -1    0    0  501    0  0.00000000000E+00 -0.00000000000E+00 -0.62196470370E+03  0.62196470370E+03  0.00000000000E+00 0. -1.
         25    2    1    2    0    0  0.12080852979E+03  0.16000731762E+03 -0.22720292494E+03  0.32782380969E+03  0.12510091340E+03 0.  0.
          5    1    3    3  502    0  0.56042981346E+02  0.16171487922E+03 -0.17060866741E+03  0.24169672673E+03  0.41800000000E+01 0. -1.
         -5    1    3    3    0  502  0.64765548448E+02 -0.17075615982E+01 -0.56594257532E+02  0.86127082953E+02  0.41800000000E+01 0. -1.
        -11    1    1    2    0    0 -0.67958599765E+02 -0.13908475428E+03 -0.13731496530E+03  0.20692592841E+03  0.00000000000E+00 0.  1.
         11    1    1    2    0    0 -0.52849930029E+02 -0.20922563342E+02 -0.16764387612E+03  0.17701790294E+03  0.00000000000E+00 0. -1.
</event>
<event>
 7    1  0.2732144E-009  0.1171107E+03  0.7561462E-02  0.1247941E+00
         -1   -1    0    0    0  501 -0.00000000000E+00  0.00000000000E+00  0.64094863017E+02  0.64094863017E+02  0.00000000000E+00 0.  1.
          1   -1    0    0  501    0  0.00000000000E+00 -0.00000000000E+00 -0.33254189335E+03  0.33254189335E+03  0.00000000000E+00 0. -1.
         25    2    1    2    0    0 -0.32036721839E+02  0.52867752021E+02 -0.24119641182E+03  0.27864722927E+03  0.12508884264E+03 0.  0.
          5    1    3    3  502    0 -0.10853641247E+02 -0.41290472921E+02 -0.71505026755E+02  0.83385525924E+02  0.41800000000E+01 0. -1.
         -5    1    3    3    0  502 -0.21183080592E+02  0.94158224942E+02 -0.16969138506E+03  0.19526170334E+03  0.41800000000E+01 0. -1.
        -11    1    1    2    0    0  0.53465726600E+02 -0.23586752496E+02 -0.48498850517E+02  0.75941143760E+02  0.00000000000E+00 0.  1.
         11    1    1    2    0    0 -0.21429004762E+02 -0.29280999525E+02  0.21248232002E+02  0.42048383340E+02  0.00000000000E+00 0. -1.
</event>
<event>
 7    1  0.2732144E-009  0.9462115E+02  0.7561462E-02  0.1292032E+00
          1   -1    0    0  501    0  0.00000000000E+00  0.00000000000E+00  0.19275686450E+03  0.19275686450E+03  0.00000000000E+00 0. -1.
         -1   -1    0    0    0  501 -0.00000000000E+00 -0.00000000000E+00 -0.72428461050E+02  0.72428461050E+02  0.00000000000E+00 0.  1.
         25    2    1    2    0    0 -0.67813064844E+01  0.30460935043E+02  0.19302294701E+02  0.13036082073E+03  0.12509000888E+03 0.  0.
          5    1    3    3  502    0  0.57149234301E+02  0.37499852883E+01 -0.28620361742E+01  0.57495747860E+02  0.41800000000E+01 0.  1.
         -5    1    3    3    0  502 -0.63930540786E+02  0.26710949755E+02  0.22164330875E+02  0.72865072875E+02  0.41800000000E+01 0.  1.
        -11    1    1    2    0    0 -0.12061827485E+02  0.11338976708E+02 -0.66130273693E+01  0.17826727295E+02  0.00000000000E+00 0.  1.
         11    1    1    2    0    0  0.18843133969E+02 -0.41799911751E+02  0.10763913612E+03  0.11699777752E+03  0.00000000000E+00 0. -1.
</event>
<event>
 7    1  0.2732144E-009  0.1105760E+03  0.7561462E-02  0.1259507E+00
         -2   -1    0    0    0  501 -0.00000000000E+00  0.00000000000E+00  0.17815186103E+02  0.17815186103E+02  0.00000000000E+00 0.  1.
          2   -1    0    0  501    0  0.00000000000E+00 -0.00000000000E+00 -0.12592657428E+04  0.12592657428E+04  0.00000000000E+00 0. -1.
         25    2    1    2    0    0  0.61510488637E+02 -0.80768138124E+02 -0.73129218861E+03  0.74882781472E+03  0.12509116127E+03 0.  0.
          5    1    3    3  502    0  0.42162812547E+02 -0.13868178816E+02 -0.58557982648E+03  0.58727441178E+03  0.41800000000E+01 0. -1.
         -5    1    3    3    0  502  0.19347676089E+02 -0.66899959308E+02 -0.14571236213E+03  0.16155340294E+03  0.41800000000E+01 0. -1.
        -11    1    1    2    0    0 -0.13479305967E+02  0.77888734610E+00 -0.47625691075E+01  0.14317137261E+02  0.00000000000E+00 0.  1.
         11    1    1    2    0    0 -0.48031182670E+02  0.79989250778E+02 -0.50539579898E+03  0.51393597692E+03  0.00000000000E+00 0. -1.
</event>
<event>
 7    1  0.2732144E-009  0.1455829E+03  0.7561462E-02  0.1206008E+00
         -1   -1    0    0    0  501 -0.00000000000E+00  0.00000000000E+00  0.26557110581E+02  0.26557110581E+02  0.00000000000E+00 0.  1.
          1   -1    0    0  501    0  0.00000000000E+00 -0.00000000000E+00 -0.14515940768E+04  0.14515940768E+04  0.00000000000E+00 0. -1.
         25    2    1    2    0    0  0.11524297891E+03 -0.37640752811E+02 -0.11657688355E+04  0.11787120599E+04  0.12508945548E+03 0.  0.
          5    1    3    3  502    0 -0.33980690312E+01  0.30263594416E+02 -0.37016161827E+03  0.37143576572E+03  0.41800000000E+01 0. -1.
         -5    1    3    3    0  502  0.11864104794E+03 -0.67904347227E+02 -0.79560721726E+03  0.80727629421E+03  0.41800000000E+01 0. -1.
        -11    1    1    2    0    0 -0.71860873811E+02  0.10849597129E+02 -0.22874683742E+03  0.24001419660E+03  0.00000000000E+00 0. -1.
         11    1    1    2    0    0 -0.43382105096E+02  0.26791155681E+02 -0.30521293308E+02  0.59424930883E+02  0.00000000000E+00 0.  1.
</event>
<event>
 7    1  0.2732144E-009  0.7912759E+02  0.7561462E-02  0.1331546E+00
          3   -1    0    0  501    0  0.00000000000E+00  0.00000000000E+00  0.67250948652E+02  0.67250948652E+02  0.00000000000E+00 0. -1.
         -3   -1    0    0    0  501 -0.00000000000E+00 -0.00000000000E+00 -0.27382241185E+03  0.27382241185E+03  0.00000000000E+00 0.  1.
         25    2    1    2    0    0 -0.38069708537E+02 -0.54034756646E+02 -0.17574365488E+03  0.22561291899E+03  0.12508516839E+03 0.  0.
          5    1    3    3  502    0 -0.23474452841E+02 -0.51151463925E+02 -0.19379799408E+03  0.20184810404E+03  0.41800000000E+01 0.  1.
         -5    1    3    3    0  502 -0.14595255696E+02 -0.28832927217E+01  0.18054339195E+02  0.23764814948E+02  0.41800000000E+01 0.  1.
        -11    1    1    2    0    0  0.21931960206E+00  0.48043978788E+02 -0.52718817977E+02  0.71327033919E+02  0.00000000000E+00 0.  1.
         11    1    1    2    0    0  0.37850388935E+02  0.59907778585E+01  0.21891009659E+02  0.44133407593E+02  0.00000000000E+00 0. -1.
</event>
<event>
 7    1  0.2732144E-009  0.1033139E+03  0.7561462E-02  0.1273478E+00
         -1   -1    0    0    0  501 -0.00000000000E+00  0.00000000000E+00  0.19967732301E+02  0.19967732301E+02  0.00000000000E+00 0.  1.
          1   -1    0    0  501    0  0.00000000000E+00 -0.00000000000E+00 -0.81631334902E+03  0.81631334902E+03  0.00000000000E+00 0. -1.
         25    2    1    2    0    0 -0.66815047856E+02  0.98909280488E+01 -0.46332277321E+03  0.48464202119E+03  0.12509122850E+03 0.  0.
          5    1    3    3  502    0 -0.61301226662E+02  0.39632278809E+02 -0.12402537280E+03  0.14397334272E+03  0.41800000000E+01 0.  1.
         -5    1    3    3    0  502 -0.55138211942E+01 -0.29741350760E+02 -0.33929740041E+03  0.34066867847E+03  0.41800000000E+01 0.  1.
        -11    1    1    2    0    0  0.24933246163E+02 -0.42920300972E+02 -0.89496554598E+02  0.10233988609E+03  0.00000000000E+00 0.  1.
         11    1    1    2    0    0  0.41881801693E+02  0.33029372923E+02 -0.24352628891E+03  0.24929917404E+03  0.00000000000E+00 0. -1.
</event>
<event>
 7    1  0.2732144E-009  0.1479522E+03  0.7561462E-02  0.1203012E+00
         -1   -1    0    0    0  501 -0.00000000000E+00  0.00000000000E+00  0.69103078675E+02  0.69103078675E+02  0.00000000000E+00 0.  1.
          1   -1    0    0  501    0  0.00000000000E+00 -0.00000000000E+00 -0.45555067500E+03  0.45555067500E+03  0.00000000000E+00 0. -1.
         25    2    1    2    0    0  0.47880757136E+02 -0.11127925622E+03 -0.10314023591E+03  0.20238910145E+03  0.12509116817E+03 0.  0.
          5    1    3    3  502    0 -0.25410956765E+01 -0.11547914674E+03 -0.97675470294E+02  0.15132699824E+03  0.41800000000E+01 0. -1.
         -5    1    3    3    0  502  0.50421852813E+02  0.41998905155E+01 -0.54647656164E+01  0.51062103214E+02  0.41800000000E+01 0. -1.
        -11    1    1    2    0    0 -0.53614148607E+02  0.71531009661E+02 -0.97963157565E+02  0.13261954047E+03  0.00000000000E+00 0.  1.
         11    1    1    2    0    0  0.57333914703E+01  0.39748246560E+02 -0.18534420285E+03  0.18964511176E+03  0.00000000000E+00 0. -1.
</event>
<event>
 7    1  0.2732144E-009  0.1852132E+03  0.7561462E-02  0.1162851E+00
         -1   -1    0    0    0  501 -0.00000000000E+00  0.00000000000E+00  0.93701554872E+02  0.93701554872E+02  0.00000000000E+00 0.  1.
          1   -1    0    0  501    0  0.00000000000E+00 -0.00000000000E+00 -0.43372517773E+03  0.43372517773E+03  0.00000000000E+00 0. -1.
         25    2    1    2    0    0  0.17010064370E+02 -0.15699910323E+03 -0.25197203845E+03  0.32260718993E+03  0.12508968833E+03 0.  0.
          5    1    3    3  502    0  0.51825389895E+02 -0.14615812402E+03 -0.15665759772E+03  0.22047027822E+03  0.41800000000E+01 0.  1.
         -5    1    3    3    0  502 -0.34815325525E+02 -0.10840979213E+02 -0.95314440731E+02  0.10213691171E+03  0.41800000000E+01 0.  1.
        -11    1    1    2    0    0 -0.27265148165E+02  0.16395153091E+03 -0.64637975928E+02  0.17832992100E+03  0.00000000000E+00 0. -1.
         11    1    1    2    0    0  0.10255083795E+02 -0.69524276803E+01 -0.23413608483E+02  0.26489621675E+02  0.00000000000E+00 0.  1.
</event>
<event>
 7    1  0.2732144E-009  0.1249299E+03  0.7561462E-02  0.1235179E+00
         -1   -1    0    0    0  501 -0.00000000000E+00  0.00000000000E+00  0.25661756156E+03  0.25661756156E+03  0.00000000000E+00 0.  1.
          1   -1    0    0  501    0  0.00000000000E+00 -0.00000000000E+00 -0.88137999444E+02  0.88137999444E+02  0.00000000000E+00 0. -1.
         25    2    1    2    0    0  0.91689370215E+02 -0.42586345630E+02  0.58219612190E+02  0.17104960713E+03  0.12509159609E+03 0.  0.
          5    1    3    3  502    0  0.96420068655E+02 -0.23170088766E+02  0.89532674558E+02  0.13366845128E+03  0.41800000000E+01 0. -1.
         -5    1    3    3    0  502 -0.47306984404E+01 -0.19416256865E+02 -0.31313062368E+02  0.37381155857E+02  0.41800000000E+01 0. -1.
        -11    1    1    2    0    0 -0.28985209853E+02  0.58684528749E+02  0.76551378747E+02  0.10071807133E+03  0.00000000000E+00 0.  1.
         11    1    1    2    0    0 -0.62704160362E+02 -0.16098183119E+02  0.33708571173E+02  0.72987882535E+02  0.00000000000E+00 0. -1.
</event>
<event>
 7    1  0.2732144E-009  0.1851368E+03  0.7561462E-02  0.1162922E+00
         -2   -1    0    0    0  501 -0.00000000000E+00  0.00000000000E+00  0.76187160352E+02  0.76187160352E+02  0.00000000000E+00 0.  1.
          2   -1    0    0  501    0  0.00000000000E+00 -0.00000000000E+00 -0.53101206809E+03  0.53101206809E+03  0.00000000000E+00 0. -1.
         25    2    1    2    0    0  0.24659389443E+02  0.16452306420E+03 -0.28264533911E+03  0.35101515812E+03  0.12508928558E+03 0.  0.
          5    1    3    3  502    0  0.70307531928E+02  0.12452561546E+03 -0.22840222951E+03  0.26950849485E+03  0.41800000000E+01 0. -1.
         -5    1    3    3    0  502 -0.45648142485E+02  0.39997448738E+02 -0.54243109607E+02  0.81506663272E+02  0.41800000000E+01 0. -1.
        -11    1    1    2    0    0 -0.10408045978E+02 -0.62646108571E+02 -0.10226983196E+02  0.64323040394E+02  0.00000000000E+00 0.  1.
         11    1    1    2    0    0 -0.14251343466E+02 -0.10187695563E+03 -0.16195258543E+03  0.19186102993E+03  0.00000000000E+00 0. -1.
</event>
<event>
 7    1  0.2732144E-009  0.9871452E+02  0.7561462E-02  0.1283023E+00
          3   -1    0    0  501    0  0.00000000000E+00  0.00000000000E+00  0.30326161918E+03  0.30326161918E+03  0.00000000000E+00 0. -1.
         -3   -1    0    0    0  501 -0.00000000000E+00 -0.00000000000E+00 -0.42887608322E+02  0.42887608322E+02  0.00000000000E+00 0.  1.
         25    2    1    2    0    0  0.28433968715E+02  0.25385693574E+02  0.15121899116E+03  0.19991875366E+03  0.12508957097E+03 0.  0.
          5    1    3    3  502    0  0.11786821989E+02 -0.36529507419E+02  0.12447294252E+03  0.13032390381E+03  0.41800000000E+01 0. -1.
         -5    1    3    3    0  502  0.16647146726E+02  0.61915200993E+02  0.26746048634E+02  0.69594849850E+02  0.41800000000E+01 0. -1.
        -11    1    1    2    0    0  0.21810600369E+02 -0.37044517818E+02  0.32737761294E+02  0.54034799929E+02  0.00000000000E+00 0.  1.
         11    1    1    2    0    0 -0.50244569084E+02  0.11658824244E+02  0.76417258406E+02  0.92195673909E+02  0.00000000000E+00 0. -1.
</event>
<event>
 7    1  0.2732144E-009  0.1651989E+03  0.7561462E-02  0.1182949E+00
          4   -1    0    0  501    0  0.00000000000E+00  0.00000000000E+00  0.13964313456E+03  0.13964313456E+03  0.00000000000E+00 0. -1.
         -4   -1    0    0    0  501 -0.00000000000E+00 -0.00000000000E+00 -0.27577281154E+03  0.27577281154E+03  0.00000000000E+00 0.  1.
         25    2    1    2    0    0 -0.75941773482E+02 -0.11142049347E+03  0.24562071083E+02  0.18555942704E+03  0.12508927333E+03 0.  0.
          5    1    3    3  502    0 -0.72206447130E+02 -0.13851061588E+03  0.20378555522E+02  0.15758083527E+03  0.41800000000E+01 0.  1.
         -5    1    3    3    0  502 -0.37353263525E+01  0.27090122408E+02  0.41835155609E+01  0.27978591771E+02  0.41800000000E+01 0.  1.
        -11    1    1    2    0    0  0.48284880356E+02  0.22342454847E+02 -0.12334245247E+02  0.54614545364E+02  0.00000000000E+00 0. -1.
         11    1    1    2    0    0  0.27656893127E+02  0.89078038623E+02 -0.14835750282E+03  0.17524197369E+03  0.00000000000E+00 0.  1.
</event>
<event>
 7    1  0.2732144E-009  0.9633490E+02  0.7561462E-02  0.1288198E+00
         -3   -1    0    0    0  501 -0.00000000000E+00  0.00000000000E+00  0.95135469815E+02  0.95135469815E+02  0.00000000000E+00 0.  1.
          3   -1    0    0  501    0  0.00000000000E+00 -0.00000000000E+00 -0.12528904747E+03  0.12528904747E+03  0.00000000000E+00 0. -1.
         25    2    1    2    0    0 -0.32210088549E+01 -0.34830293747E+01 -0.23538543544E+02  0.12736492985E+03  0.12508099749E+03 0.  0.
          5    1    3    3  502    0 -0.45518463724E+02 -0.41495295177E+02  0.79194702540E+01  0.62241308395E+02  0.41800000000E+01 0. -1.
         -5    1    3    3    0  502  0.42297454869E+02  0.38012265802E+02 -0.31458013798E+02  0.65123621459E+02  0.41800000000E+01 0. -1.
        -11    1    1    2    0    0  0.35942910287E+02  0.15379816089E+02  0.24689321355E+02  0.46238448631E+02  0.00000000000E+00 0.  1.
         11    1    1    2    0    0 -0.32721901432E+02 -0.11896786714E+02 -0.31304355469E+02  0.46821138803E+02  0.00000000000E+00 0. -1.
</event>
<event>
 7    1  0.2732144E-009  0.1098125E+03  0.7561462E-02  0.1260917E+00
         -2   -1    0    0    0  501 -0.00000000000E+00  0.00000000000E+00  0.22459078898E+02  0.22459078898E+02  0.00000000000E+00 0.  1.
          2   -1    0    0  501    0  0.00000000000E+00 -0.00000000000E+00 -0.69839216292E+03  0.69839216292E+03  0.00000000000E+00 0. -1.
         25    2    1    2    0    0 -0.18482980073E+02  0.20704438662E+02 -0.21427131534E+03  0.24965921971E+03  0.12508890868E+03 0.  0.
          5    1    3    3  502    0 -0.71308783861E+02  0.12181139925E+02 -0.10088905453E+03  0.12421512207E+03  0.41800000000E+01 0.  1.
         -5    1    3    3    0  502  0.52825803789E+02  0.85232987364E+01 -0.11338226081E+03  0.12544409764E+03  0.41800000000E+01 0.  1.
        -11    1    1    2    0    0 -0.29726342283E+02 -0.32309743842E+02 -0.18650821323E+03  0.19160607656E+03  0.00000000000E+00 0.  1.
         11    1    1    2    0    0  0.48209322356E+02  0.11605305181E+02 -0.27515355545E+03  0.27958594555E+03  0.00000000000E+00 0. -1.
</event>
<event>
 7    1  0.2732144E-009  0.1124773E+03  0.7561462E-02  0.1256050E+00
         -3   -1    0    0    0  501 -0.00000000000E+00  0.00000000000E+00  0.24030390271E+03  0.24030390271E+03  0.00000000000E+00 0.  1.
          3   -1    0    0  501    0  0.00000000000E+00 -0.00000000000E+00 -0.75024682123E+02  0.75024682123E+02  0.00000000000E+00 0. -1.
         25    2    1    2    0    0 -0.20803286911E+02  0.63320370584E+02  0.14625772369E+03  0.20367225267E+03  0.12509523848E+03 0.  0.
          5    1    3    3  502    0 -0.70177787080E+02  0.59039484096E+02  0.89601728201E+02  0.12828298632E+03  0.41800000000E+01 0. -1.
         -5    1    3    3    0  502  0.49374500170E+02  0.42808864878E+01  0.56655995488E+02  0.75389266350E+02  0.41800000000E+01 0. -1.
        -11    1    1    2    0    0 -0.10983932807E+02  0.16286455248E+01  0.35751118120E+02  0.37435834610E+02  0.00000000000E+00 0.  1.
         11    1    1    2    0    0  0.31787219717E+02 -0.64949016108E+02 -0.16729621224E+02  0.74220497554E+02  0.00000000000E+00 0. -1.
</event>
<event>
 7    1  0.2732144E-009  0.1647609E+03  0.7561462E-02  0.1183424E+00
          2   -1    0    0  501    0  0.00000000000E+00  0.00000000000E+00  0.25042286253E+04  0.25042286253E+04  0.00000000000E+00 0. -1.
         -2   -1    0    0    0  501 -0.00000000000E+00 -0.00000000000E+00 -0.15626989255E+02  0.15626989255E+02  0.00000000000E+00 0.  1.
         25    2    1    2    0    0 -0.99074524776E+02  0.88993868367E+02  0.19101236418E+04  0.19188421430E+04  0.12508865887E+03 0.  0.
          5    1    3    3  502    0 -0.11820728275E+03  0.10218348997E+03  0.15232532602E+04  0.15312519043E+04  0.41800000000E+01 0. -1.
         -5    1    3    3    0  502  0.19132757977E+02 -0.13189621600E+02  0.38687038159E+03  0.38759023865E+03  0.41800000000E+01 0. -1.
        -11    1    1    2    0    0  0.72180285588E+02 -0.19027568690E+02  0.40817494114E+03  0.41494436323E+03  0.00000000000E+00 0. -1.
         11    1    1    2    0    0  0.26894239189E+02 -0.69966299678E+02  0.17030305311E+03  0.18606910837E+03  0.00000000000E+00 0.  1.
</event>
<event>
 7    1  0.2732144E-009  0.6881502E+02  0.7561462E-02  0.1364170E+00
         -1   -1    0    0    0  501 -0.00000000000E+00  0.00000000000E+00  0.73030696442E+03  0.73030696442E+03  0.00000000000E+00 0.  1.
          1   -1    0    0  501    0  0.00000000000E+00 -0.00000000000E+00 -0.17709358036E+02  0.17709358036E+02  0.00000000000E+00 0. -1.
         25    2    1    2    0    0 -0.46997406232E+02  0.72625260324E+00  0.38322488710E+03  0.40585352884E+03  0.12508592706E+03 0.  0.
          5    1    3    3  502    0 -0.23199696017E+02 -0.15813035291E+02  0.37411244414E+03  0.37518778130E+03  0.41800000000E+01 0.  1.
         -5    1    3    3    0  502 -0.23797710215E+02  0.16539287894E+02  0.91124429585E+01  0.30665747540E+02  0.41800000000E+01 0.  1.
        -11    1    1    2    0    0  0.52506731210E+02 -0.22777733304E+02  0.29785576931E+03  0.30330486523E+03  0.00000000000E+00 0.  1.
         11    1    1    2    0    0 -0.55093249788E+01  0.22051480701E+02  0.31516949973E+02  0.38857928386E+02  0.00000000000E+00 0. -1.
</event>
<event>
 7    1  0.2732144E-009  0.1291831E+03  0.7561462E-02  0.1228673E+00
         -1   -1    0    0    0  501 -0.00000000000E+00  0.00000000000E+00  0.22018694933E+02  0.22018694933E+02  0.00000000000E+00 0.  1.
          1   -1    0    0  501    0  0.00000000000E+00 -0.00000000000E+00 -0.85221914982E+03  0.85221914982E+03  0.00000000000E+00 0. -1.
         25    2    1    2    0    0  0.60789053578E+02  0.57285108630E+02 -0.47996538606E+03  0.50298278403E+03  0.12509203218E+03 0.  0.
          5    1    3    3  502    0  0.56254109431E+02 -0.23954602247E+02 -0.13090845701E+03  0.14454357237E+03  0.41800000000E+01 0.  1.
         -5    1    3    3    0  502  0.45349441468E+01  0.81239710877E+02 -0.34905692905E+03  0.35843921166E+03  0.41800000000E+01 0.  1.
        -11    1    1    2    0    0 -0.80146447028E+02 -0.39632232336E+02 -0.20460967200E+03  0.22329192705E+03  0.00000000000E+00 0.  1.
         11    1    1    2    0    0  0.19357393450E+02 -0.17652876294E+02 -0.14562539683E+03  0.14796313367E+03  0.00000000000E+00 0. -1.
</event>
<event>
 7    1  0.2732144E-009  0.1481825E+03  0.7561462E-02  0.1202724E+00
          2   -1    0    0  501    0  0.00000000000E+00  0.00000000000E+00  0.11327171318E+04  0.11327171318E+04  0.00000000000E+00 0.  1.
         -2   -1    0    0    0  501 -0.00000000000E+00 -0.00000000000E+00 -0.25439471089E+02  0.25439471089E+02  0.00000000000E+00 0. -1.
         25    2    1    2    0    0 -0.10197583992E+03  0.77438106653E+02  0.54146311496E+03  0.57028585670E+03  0.12509165123E+03 0.  0.
          5    1    3    3  502    0 -0.10171027604E+03  0.38041457679E+02  0.50460223215E+03  0.51617150042E+03  0.41800000000E+01 0.  1.
         -5    1    3    3    0  502 -0.26556387845E+00  0.39396648974E+02  0.36860882808E+02  0.54114356283E+02  0.41800000000E+01 0.  1.
        -11    1    1    2    0    0  0.98577140588E+02 -0.33661526847E+02  0.48333119586E+03  0.49442855493E+03  0.00000000000E+00 0.  1.
         11    1    1    2    0    0  0.33986993299E+01 -0.43776579806E+02  0.82483349854E+02  0.93442191219E+02  0.00000000000E+00 0. -1.
</event>
<event>
 7    1  0.2732144E-009  0.2944277E+03  0.7561462E-02  0.1088060E+00
         -2   -1    0    0    0  501 -0.00000000000E+00  0.00000000000E+00  0.11845942648E+03  0.11845942648E+03  0.00000000000E+00 0.  1.
          2   -1    0    0  501    0  0.00000000000E+00 -0.00000000000E+00 -0.11506007686E+04  0.11506007686E+04  0.00000000000E+00 0. -1.
         25    2    1    2    0    0 -0.21632729259E+03 -0.19338147754E+03 -0.86962241824E+03  0.92524841754E+03  0.12509032927E+03 0.  0.
          5    1    3    3  502    0 -0.21918519778E+03 -0.19003090631E+03 -0.73064368838E+03  0.78613711784E+03  0.41800000000E+01 0.  1.
         -5    1    3    3    0  502  0.28579051909E+01 -0.33505712296E+01 -0.13897872986E+03  0.13911129970E+03  0.41800000000E+01 0.  1.
        -11    1    1    2    0    0  0.10752142895E+03  0.70713230219E+02 -0.11629089031E+03  0.17344967507E+03  0.00000000000E+00 0. -1.
         11    1    1    2    0    0  0.10880586365E+03  0.12266824732E+03 -0.46228033542E+02  0.17036210244E+03  0.00000000000E+00 0.  1.
</event>
<event>
 7    1  0.2732144E-009  0.1873275E+03  0.7561462E-02  0.1160894E+00
         -2   -1    0    0    0  501 -0.00000000000E+00  0.00000000000E+00  0.16905788055E+03  0.16905788055E+03  0.00000000000E+00 0. -1.
          2   -1    0    0  501    0  0.00000000000E+00 -0.00000000000E+00 -0.22679972684E+03  0.22679972684E+03  0.00000000000E+00 0.  1.
         25    2    1    2    0    0 -0.11934332966E+03 -0.10811476566E+03 -0.55704125119E+02  0.21138229729E+03  0.12509153914E+03 0.  0.
          5    1    3    3  502    0 -0.13440764132E+03 -0.49683003857E+02 -0.41631558918E+02  0.14927985134E+03  0.41800000000E+01 0.  1.
         -5    1    3    3    0  502  0.15064311664E+02 -0.58431761808E+02 -0.14072566200E+02  0.62102445953E+02  0.41800000000E+01 0.  1.
        -11    1    1    2    0    0  0.20779942434E+02  0.55113350305E+02  0.32608702902E+02  0.67324697507E+02  0.00000000000E+00 0. -1.
         11    1    1    2    0    0  0.98563387223E+02  0.53001415360E+02 -0.34646424072E+02  0.11715061260E+03  0.00000000000E+00 0.  1.
</event>
<event>
 7    1  0.2732144E-009  0.3130476E+03  0.7561462E-02  0.1078894E+00
          2   -1    0    0  501    0  0.00000000000E+00  0.00000000000E+00  0.10346375784E+04  0.10346375784E+04  0.00000000000E+00 0. -1.
         -2   -1    0    0    0  501 -0.00000000000E+00 -0.00000000000E+00 -0.96861753324E+02  0.96861753324E+02  0.00000000000E+00 0.  1.
         25    2    1    2    0    0 -0.25004111610E+03  0.15577567594E+03  0.41190425087E+03  0.52163275756E+03  0.12509596685E+03 0.  0.
          5    1    3    3  502    0 -0.23569243490E+03  0.93529588439E+02  0.30115715648E+03  0.39371539605E+03  0.41800000000E+01 0. -1.
         -5    1    3    3    0  502 -0.14348681194E+02  0.62246087502E+02  0.11074709439E+03  0.12791736152E+03  0.41800000000E+01 0. -1.
        -11    1    1    2    0    0  0.16781320941E+03 -0.51216726405E+02  0.28385725606E+03  0.33370551109E+03  0.00000000000E+00 0.  1.
         11    1    1    2    0    0  0.82227906688E+02 -0.10455894954E+03  0.24201431811E+03  0.27616106303E+03  0.00000000000E+00 0. -1.
</event>
<event>
 7    1  0.2732144E-009  0.7538773E+02  0.7561462E-02  0.1342675E+00
         -2   -1    0    0    0  501 -0.00000000000E+00  0.00000000000E+00  0.10255421386E+04  0.10255421386E+04  0.00000000000E+00 0. -1.
          2   -1    0    0  501    0  0.00000000000E+00 -0.00000000000E+00 -0.67031132304E+01  0.67031132304E+01  0.00000000000E+00 0.  1.
         25    2    1    2    0    0  0.14686148819E+02  0.11739832912E+02  0.92242544365E+03  0.93105665633E+03  0.12507714248E+03 0.  0.
          5    1    3    3  502    0  0.58688829424E+02 -0.23802103297E+02  0.33978173279E+03  0.34565881611E+03  0.41800000000E+01 0.  1.
         -5    1    3    3    0  502 -0.44002680605E+02  0.35541936209E+02  0.58264371086E+03  0.58539784022E+03  0.41800000000E+01 0.  1.
        -11    1    1    2    0    0 -0.99063497810E+01  0.64231152454E+01  0.32786867228E+02  0.34847824007E+02  0.00000000000E+00 0.  1.
         11    1    1    2    0    0 -0.47797990376E+01 -0.18162948158E+02  0.63626714513E+02  0.66340771509E+02  0.00000000000E+00 0. -1.
</event>
<event>
 7    1  0.2732144E-009  0.9214641E+02  0.7561462E-02  0.1297736E+00
          2   -1    0    0  501    0  0.00000000000E+00  0.00000000000E+00  0.99443636152E+03  0.99443636152E+03  0.00000000000E+00 0. -1.
         -2   -1    0    0    0  501 -0.00000000000E+00 -0.00000000000E+00 -0.12499765239E+02  0.12499765239E+02  0.00000000000E+00 0.  1.
         25    2    1    2    0    0 -0.18461359543E+02  0.12334854439E+02  0.62653460321E+03  0.63928812069E+03  0.12510284492E+03 0.  0.
          5    1    3    3  502    0  0.37841069880E+02 -0.13382383352E+02  0.83705045922E+02  0.92924925970E+02  0.41800000000E+01 0. -1.
         -5    1    3    3    0  502 -0.56302429423E+02  0.25717237792E+02  0.54282955729E+03  0.54636319472E+03  0.41800000000E+01 0. -1.
        -11    1    1    2    0    0 -0.30161345142E+02  0.43928808875E+01  0.55034553699E+02  0.62911097940E+02  0.00000000000E+00 0.  1.
         11    1    1    2    0    0  0.48622704685E+02 -0.16727735327E+02  0.30036743937E+03  0.30473690813E+03  0.00000000000E+00 0. -1.
</event>
<event>
 6    1  0.2732144E-009  0.1492005E+03  0.7561462E-02  0.1201459E+00
         -1   -1    0    0    0  501 -0.00000000000E+00  0.00000000000E+00  0.10547195504E+03  0.10547195504E+03  0.00000000000E+00 0.  1.
          1   -1    0    0  501    0  0.00000000000E+00 -0.00000000000E+00 -0.25511871645E+03  0.25511871645E+03  0.00000000000E+00 0. -1.
          5    1    1    2  502    0 -0.71249352376E+02 -0.10902659070E+03 -0.10447760908E+02  0.13072832823E+03  0.41800000000E+01 0. -1.
         -5    1    1    2    0  502 -0.11862406686E+02  0.30173226321E+02 -0.28102632912E+02  0.43108823408E+02  0.41800000000E+01 0. -1.
        -11    1    1    2    0    0 -0.13041670519E+02  0.15481715017E+02  0.73668704979E+01  0.21541574936E+02  0.00000000000E+00 0.  1.
         11    1    1    2    0    0  0.96153429580E+02  0.63371649366E+02 -0.11846323809E+03  0.16521194491E+03  0.00000000000E+00 0. -1.
</event>
<event>
 7    1  0.2732144E-009  0.1078710E+03  0.7561462E-02  0.1264564E+00
         -2   -1    0    0    0  501 -0.00000000000E+00  0.00000000000E+00  0.42817629787E+02  0.42817629787E+02  0.00000000000E+00 0. -1.
          2   -1    0    0  501    0  0.00000000000E+00 -0.00000000000E+00 -0.39098333173E+03  0.39098333173E+03  0.00000000000E+00 0.  1.
         25    2    1    2    0    0  0.35819566524E+02 -0.52307586438E+02 -0.14513661538E+03  0.20183312855E+03  0.12511134925E+03 0.  0.
          5    1    3    3  502    0  0.67100994939E+02 -0.54625432248E+02 -0.14646091004E+03  0.17016095892E+03  0.41800000000E+01 0. -1.
         -5    1    3    3    0  502 -0.31281428415E+02  0.23178458100E+01  0.13242946591E+01  0.31672169632E+02  0.41800000000E+01 0. -1.
        -11    1    1    2    0    0  0.16200739433E+02  0.41211699521E+02 -0.37253332395E+02  0.57867770910E+02  0.00000000000E+00 0. -1.
         11    1    1    2    0    0 -0.52020305957E+02  0.11095886917E+02 -0.16577575416E+03  0.17410006205E+03  0.00000000000E+00 0.  1.
</event>
<event>
 7    1  0.2732144E-009  0.6003654E+02  0.7561462E-02  0.1397678E+00
          3   -1    0    0  501    0  0.00000000000E+00  0.00000000000E+00  0.18973093488E+02  0.18973093488E+02  0.00000000000E+00 0. -1.
         -3   -1    0    0    0  501 -0.00000000000E+00 -0.00000000000E+00 -0.62197587172E+03  0.62197587172E+03  0.00000000000E+00 0.  1.
         25    2    1    2    0    0  0.73796225269E+01 -0.50579747065E+01 -0.37131725115E+03  0.39192387398E+03  0.12509108704E+03 0.  0.
          5    1    3    3  502    0 -0.14528973341E+02  0.25204672305E+00 -0.36851615490E+03  0.36882622387E+03  0.41800000000E+01 0. -1.
         -5    1    3    3    0  502  0.21908595868E+02 -0.53100214295E+01 -0.28010962554E+01  0.23097650113E+02  0.41800000000E+01 0. -1.
        -11    1    1    2    0    0  0.30467178374E+02 -0.20172138113E+02 -0.16005543061E+03  0.16417339913E+03  0.00000000000E+00 0.  1.
         11    1    1    2    0    0 -0.37846800900E+02  0.25230112820E+02 -0.71630096468E+02  0.84851692094E+02  0.00000000000E+00 0. -1.
</event>
<event>
 7    1  0.2732144E-009  0.1201600E+03  0.7561462E-02  0.1242833E+00
         -1   -1    0    0    0  501 -0.00000000000E+00  0.00000000000E+00  0.58556012857E+03  0.58556012857E+03  0.00000000000E+00 0.  1.
          1   -1    0    0  501    0  0.00000000000E+00 -0.00000000000E+00 -0.51131738737E+02  0.51131738737E+02  0.00000000000E+00 0. -1.
         25    2    1    2    0    0  0.26051676996E+02  0.10537201061E+03  0.43011648391E+03  0.46090083162E+03  0.12508971328E+03 0.  0.
          5    1    3    3  502    0  0.23314031639E+02  0.63697621593E+02  0.40768415711E+03  0.41330953948E+03  0.41800000000E+01 0. -1.
         -5    1    3    3    0  502  0.27376453574E+01  0.41674389017E+02  0.22432326793E+02  0.47591292138E+02  0.41800000000E+01 0. -1.
        -11    1    1    2    0    0 -0.43345859537E+02 -0.29166484882E+02  0.76921595285E+02  0.92986446327E+02  0.00000000000E+00 0.  1.
         11    1    1    2    0    0  0.17294182541E+02 -0.76205525728E+02  0.27390310639E+02  0.82804589354E+02  0.00000000000E+00 0. -1.
</event>
<event>
 7    1  0.2732144E-009  0.1004905E+03  0.7561462E-02  0.1279268E+00
          2   -1    0    0  501    0  0.00000000000E+00  0.00000000000E+00  0.18762097906E+04  0.18762097906E+04  0.00000000000E+00 0. -1.
         -2   -1    0    0    0  501 -0.00000000000E+00 -0.00000000000E+00 -0.70603739285E+01  0.70603739285E+01  0.00000000000E+00 0.  1.
         25    2    1    2    0    0  0.29843356006E+01 -0.21181207138E+02  0.13315069161E+04  0.13375410641E+04  0.12509148988E+03 0.  0.
          5    1    3    3  502    0  0.38930462732E+02  0.26702312832E+02  0.96408097723E+03  0.96524514891E+03  0.41800000000E+01 0.  1.
         -5    1    3    3    0  502 -0.35946127131E+02 -0.47883519970E+02  0.36742593884E+03  0.37229591519E+03  0.41800000000E+01 0.  1.
        -11    1    1    2    0    0 -0.43992969153E+02  0.27783030554E+02  0.30592637883E+03  0.31031955688E+03  0.00000000000E+00 0.  1.
         11    1    1    2    0    0  0.41008633552E+02 -0.66018234162E+01  0.23171612177E+03  0.23540954354E+03  0.00000000000E+00 0. -1.
</event>
<event>
 7    1  0.2732144E-009  0.1286952E+03  0.7561462E-02  0.1229405E+00
          1   -1    0    0  501    0  0.00000000000E+00  0.00000000000E+00  0.50444280440E+03  0.50444280440E+03  0.00000000000E+00 0. -1.
         -1   -1    0    0    0  501 -0.00000000000E+00 -0.00000000000E+00 -0.52595789173E+02  0.52595789173E+02  0.00000000000E+00 0.  1.
         25    2    1    2    0    0 -0.11956585932E+03  0.20278110873E+02  0.24109439013E+03  0.29745853784E+03  0.12509148766E+03 0.  0.
          5    1    3    3  502    0 -0.89337652165E+02 -0.13325429950E+02  0.23482888490E+03  0.25163636613E+03  0.41800000000E+01 0.  1.
         -5    1    3    3    0  502 -0.30228207157E+02  0.33603540823E+02  0.62655052252E+01  0.45822171702E+02  0.41800000000E+01 0.  1.
        -11    1    1    2    0    0  0.18500372760E+02 -0.20894261353E-01 -0.60971597220E+01  0.19479209057E+02  0.00000000000E+00 0. -1.
         11    1    1    2    0    0  0.10106548656E+03 -0.20257216612E+02  0.21684978483E+03  0.24010084668E+03  0.00000000000E+00 0.  1.
</event>
<event>
 7    1  0.4240215E-009  0.1546733E+03  0.7561462E-02  0.1194845E+00
         -4   -1    0    0    0  501 -0.00000000000E+00  0.00000000000E+00  0.13279665834E+03  0.13279665834E+03  0.00000000000E+00 0.  1.
          4   -1    0    0  501    0  0.00000000000E+00 -0.00000000000E+00 -0.21276644982E+03  0.21276644982E+03  0.00000000000E+00 0. -1.
         25    2    1    2    0    0 -0.49065634285E+01 -0.12712976789E+03 -0.58172578840E+02  0.18766335027E+03  0.12508969525E+03 0.  0.
          5    1    3    3  502    0 -0.18833036186E+02  0.19844081351E+02 -0.22643767851E+02  0.35758683408E+02  0.41800000000E+01 0. -1.
         -5    1    3    3    0  502  0.13926472757E+02 -0.14697384924E+03 -0.35528810990E+02  0.15190466686E+03  0.41800000000E+01 0. -1.
        -11    1    1    2    0    0 -0.15037722926E+02  0.94855604416E+02  0.23439825506E+02  0.98859214136E+02  0.00000000000E+00 0.  1.
         11    1    1    2    0    0  0.19944286354E+02  0.32274163473E+02 -0.45237038154E+02  0.59040543756E+02  0.00000000000E+00 0. -1.
</event>
<event>
 7    1  0.2732144E-009  0.9251262E+02  0.7561462E-02  0.1296879E+00
         -1   -1    0    0    0  501 -0.00000000000E+00  0.00000000000E+00  0.11119754618E+03  0.11119754618E+03  0.00000000000E+00 0.  1.
          1   -1    0    0  501    0  0.00000000000E+00 -0.00000000000E+00 -0.11962730927E+03  0.11962730927E+03  0.00000000000E+00 0. -1.
         25    2    1    2    0    0 -0.54529595956E+01  0.29511128225E+02 -0.32018053005E+02  0.13256288866E+03  0.12508845779E+03 0.  0.
          5    1    3    3  502    0  0.16431588122E+02  0.62990686615E+02 -0.55799320020E+02  0.85842065464E+02  0.41800000000E+01 0. -1.
         -5    1    3    3    0  502 -0.21884547718E+02 -0.33479558390E+02  0.23781267015E+02  0.46720823191E+02  0.41800000000E+01 0. -1.
        -11    1    1    2    0    0 -0.34197968454E+02 -0.12153799658E+02 -0.15944919138E+02  0.39641598591E+02  0.00000000000E+00 0. -1.
         11    1    1    2    0    0  0.39650928050E+02 -0.17357328567E+02  0.39533209058E+02  0.58620368206E+02  0.00000000000E+00 0.  1.
</event>
<event>
 7    1  0.2732144E-009  0.1263711E+03  0.7561462E-02  0.1232942E+00
         -2   -1    0    0    0  501 -0.00000000000E+00  0.00000000000E+00  0.49652726674E+02  0.49652726674E+02  0.00000000000E+00 0.  1.
          2   -1    0    0  501    0  0.00000000000E+00 -0.00000000000E+00 -0.37153585067E+03  0.37153585067E+03  0.00000000000E+00 0. -1.
         25    2    1    2    0    0 -0.55255678355E+02  0.43097732224E+02 -0.25354984206E+03  0.29128299032E+03  0.12509058128E+03 0.  0.
          5    1    3    3  502    0 -0.82281733002E+01 -0.43549884585E+02 -0.72032421984E+02  0.84678435862E+02  0.41800000000E+01 0.  1.
         -5    1    3    3    0  502 -0.47027505055E+02  0.86647616809E+02 -0.18151742008E+03  0.20660455446E+03  0.41800000000E+01 0.  1.
        -11    1    1    2    0    0  0.48037882642E+02  0.15524861350E+02 -0.23144599216E+02  0.55536762253E+02  0.00000000000E+00 0.  1.
         11    1    1    2    0    0  0.72177957134E+01 -0.58622593574E+02 -0.45188682720E+02  0.74368824774E+02  0.00000000000E+00 0. -1.
</event>
<event>
 7    1  0.2732144E-009  0.9232623E+02  0.7561462E-02  0.1297314E+00
         -1   -1    0    0    0  501 -0.00000000000E+00  0.00000000000E+00  0.14729093417E+03  0.14729093417E+03  0.00000000000E+00 0.  1.
          1   -1    0    0  501    0  0.00000000000E+00 -0.00000000000E+00 -0.88878946918E+02  0.88878946918E+02  0.00000000000E+00 0. -1.
         25    2    1    2    0    0  0.74268165156E+01 -0.24796154964E+02  0.65918047247E+02  0.14374333434E+03  0.12508777042E+03 0.  0.
          5    1    3    3  502    0 -0.12942759910E+02  0.49028003912E+02  0.29844023891E+02  0.58986425249E+02  0.41800000000E+01 0.  1.
         -5    1    3    3    0  502  0.20369576425E+02 -0.73824158877E+02  0.36074023355E+02  0.84756909091E+02  0.41800000000E+01 0.  1.
        -11    1    1    2    0    0  0.21758203043E+02  0.14413601701E+02 -0.39853543991E+02  0.47639020585E+02  0.00000000000E+00 0. -1.
         11    1    1    2    0    0 -0.29185019558E+02  0.10382553263E+02  0.32347483998E+02  0.44787526164E+02  0.00000000000E+00 0.  1.
</event>
<event>
 7    1  0.2732144E-009  0.1161461E+03  0.7561462E-02  0.1249594E+00
          1   -1    0    0  501    0  0.00000000000E+00  0.00000000000E+00  0.32852123724E+03  0.32852123724E+03  0.00000000000E+00 0. -1.
         -1   -1    0    0    0  501 -0.00000000000E+00 -0.00000000000E+00 -0.57388260035E+02  0.57388260035E+02  0.00000000000E+00 0.  1.
         25    2    1    2    0    0 -0.77186527095E+02 -0.32670479587E+02  0.13982933624E+03  0.20548966373E+03  0.12509451796E+03 0.  0.
          5    1    3    3  502    0 -0.87658364116E+02 -0.42223564011E+02  0.15579830724E+03  0.18373187828E+03  0.41800000000E+01 0.  1.
         -5    1    3    3    0  502  0.10471837021E+02  0.95530844238E+01 -0.15968971001E+02  0.21757785444E+02  0.41800000000E+01 0.  1.
        -11    1    1    2    0    0 -0.19004767223E+01  0.40598782482E+02  0.25108185332E+02  0.47773359956E+02  0.00000000000E+00 0.  1.
         11    1    1    2    0    0  0.79087003817E+02 -0.79283028950E+01  0.10619545563E+03  0.13264647359E+03  0.00000000000E+00 0. -1.
</event>
<event>
 7    1  0.2732144E-009  0.2380804E+03  0.7561462E-02  0.1121078E+00
         -2   -1    0    0    0  501 -0.00000000000E+00  0.00000000000E+00  0.52224860964E+02  0.52224860964E+02  0.00000000000E+00 0.  1.
          2   -1    0    0  501    0  0.00000000000E+00 -0.00000000000E+00 -0.17341810288E+04  0.17341810288E+04  0.00000000000E+00 0. -1.
         25    2    1    2    0    0 -0.15628354521E+03 -0.15724002831E+03 -0.13701689923E+04  0.13936133121E+04  0.12508406459E+03 0.  0.
          5    1    3    3  502    0 -0.80044607255E+02 -0.15218829741E+03 -0.10756666906E+04  0.10893322352E+04  0.41800000000E+01 0. -1.
         -5    1    3    3    0  502 -0.76238937959E+02 -0.50517308953E+01 -0.29450230173E+03  0.30428107692E+03  0.41800000000E+01 0. -1.
        -11    1    1    2    0    0  0.66960026010E+02  0.10386835722E+03 -0.10862921747E+03  0.16453749604E+03  0.00000000000E+00 0.  1.
         11    1    1    2    0    0  0.89323519205E+02  0.53371671084E+02 -0.20315795806E+03  0.22825508161E+03  0.00000000000E+00 0. -1.
</event>
<event>
 7    1  0.2732144E-009  0.1007936E+03  0.7561462E-02  0.1278636E+00
         -2   -1    0    0    0  501 -0.00000000000E+00  0.00000000000E+00  0.81133889511E+02  0.81133889511E+02  0.00000000000E+00 0.  1.
          2   -1    0    0  501    0  0.00000000000E+00 -0.00000000000E+00 -0.16931870992E+03  0.16931870992E+03  0.00000000000E+00 0. -1.
         25    2    1    2    0    0 -0.17334913500E+02 -0.10601480693E+01 -0.95484767119E+02  0.15832462542E+03  0.12509085947E+03 0.  0.
          5    1    3    3  502    0 -0.26718651103E+02 -0.53008690926E+02 -0.85916254382E+02  0.10451259636E+03  0.41800000000E+01 0. -1.
         -5    1    3    3    0  502  0.93837376035E+01  0.51948542856E+02 -0.95685127365E+01  0.53812029067E+02  0.41800000000E+01 0. -1.
        -11    1    1    2    0    0  0.51816064139E+02 -0.10280235797E+02  0.15221976084E+02  0.54975415476E+02  0.00000000000E+00 0. -1.
         11    1    1    2    0    0 -0.34481150639E+02  0.11340383866E+02 -0.79220293700E+01  0.37152558525E+02  0.00000000000E+00 0.  1.
</event>
<event>
 7    1  0.2732144E-009  0.1559993E+03  0.7561462E-02  0.1193289E+00
         -3   -1    0    0    0  501 -0.00000000000E+00  0.00000000000E+00  0.29526874013E+03  0.29526874013E+03  0.00000000000E+00 0.  1.
          3   -1    0    0  501    0  0.00000000000E+00 -0.00000000000E+00 -0.96415188280E+02  0.96415188280E+02  0.00000000000E+00 0. -1.
         25    2    1    2    0    0 -0.77603216473E+02 -0.10139445284E+03  0.88713208294E+02  0.19954873654E+03  0.12508625287E+03 0.  0.
          5    1    3    3  502    0 -0.73925759052E+02 -0.11710339392E+03  0.10681482454E+03  0.17494313894E+03  0.41800000000E+01 0. -1.
         -5    1    3    3    0  502 -0.36774574209E+01  0.15708941080E+02 -0.18101616244E+02  0.24605597607E+02  0.41800000000E+01 0. -1.
        -11    1    1    2    0    0  0.98126862740E+02  0.90776984496E+02  0.87384703976E+02  0.15970419091E+03  0.00000000000E+00 0.  1.
         11    1    1    2    0    0 -0.20523646267E+02  0.10617468347E+02  0.22755639577E+02  0.32431000952E+02  0.00000000000E+00 0. -1.
</event>
<event>
 7    1  0.2732144E-009  0.7431853E+02  0.7561462E-02  0.1345994E+00
         -2   -1    0    0    0  501 -0.00000000000E+00  0.00000000000E+00  0.32514858119E+02  0.32514858119E+02  0.00000000000E+00 0.  1.
          2   -1    0    0  501    0  0.00000000000E+00 -0.00000000000E+00 -0.10167886216E+04  0.10167886216E+04  0.00000000000E+00 0. -1.
         25    2    1    2    0    0 -0.23362060792E+02  0.62532372361E+02 -0.88686113038E+03  0.89812381315E+03  0.12509051005E+03 0.  0.
          5    1    3    3  502    0 -0.31496743028E+02  0.60096147355E+02 -0.20074661806E+03  0.21194402283E+03  0.41800000000E+01 0. -1.
         -5    1    3    3    0  502  0.81346822359E+01  0.24362250057E+01 -0.68611451231E+03  0.68617979033E+03  0.41800000000E+01 0. -1.
        -11    1    1    2    0    0 -0.36085621739E+01 -0.23345072607E+02 -0.10075850109E+03  0.10349052942E+03  0.00000000000E+00 0. -1.
         11    1    1    2    0    0  0.26970622966E+02 -0.39187299754E+02  0.33458680295E+01  0.47689137108E+02  0.00000000000E+00 0.  1.
</event>
<event>
 7    1  0.2732144E-009  0.1006227E+03  0.7561462E-02  0.1278992E+00
          1   -1    0    0  501    0  0.00000000000E+00  0.00000000000E+00  0.63702563502E+03  0.63702563502E+03  0.00000000000E+00 0. -1.
         -1   -1    0    0    0  501 -0.00000000000E+00 -0.00000000000E+00 -0.26029982987E+02  0.26029982987E+02  0.00000000000E+00 0.  1.
         25    2    1    2    0    0 -0.22596611998E+02 -0.64863674140E+02  0.33311264296E+03  0.36239588150E+03  0.12509531938E+03 0.  0.
          5    1    3    3  502    0 -0.38576068676E+02 -0.34545752255E+02  0.32194447934E+03  0.32610924895E+03  0.41800000000E+01 0.  1.
         -5    1    3    3    0  502  0.15979456679E+02 -0.30317921885E+02  0.11168163621E+02  0.36286632550E+02  0.41800000000E+01 0.  1.
        -11    1    1    2    0    0  0.37274485782E+02 -0.99086348423E+01  0.90492686539E+02  0.98369175313E+02  0.00000000000E+00 0.  1.
         11    1    1    2    0    0 -0.14677873784E+02  0.74772308982E+02  0.18739032253E+03  0.20229056119E+03  0.00000000000E+00 0. -1.
</event>
<event>
 7    1  0.2732144E-009  0.9848391E+02  0.7561462E-02  0.1283517E+00
          3   -1    0    0  501    0  0.00000000000E+00  0.00000000000E+00  0.37858220518E+03  0.37858220518E+03  0.00000000000E+00 0. -1.
         -3   -1    0    0    0  501 -0.00000000000E+00 -0.00000000000E+00 -0.31915340360E+02  0.31915340360E+02  0.00000000000E+00 0.  1.
         25    2    1    2    0    0  0.44387230169E+01 -0.10543779815E+02  0.17515730979E+03  0.21552624879E+03  0.12506241318E+03 0.  0.
          5    1    3    3  502    0 -0.10799420710E+02 -0.60416229209E+02  0.13878975000E+03  0.15181177604E+03  0.41800000000E+01 0. -1.
         -5    1    3    3    0  502  0.15238143727E+02  0.49872449394E+02  0.36367559787E+02  0.63714472749E+02  0.41800000000E+01 0. -1.
        -11    1    1    2    0    0 -0.42913550826E+02  0.12236458801E+02  0.47739672100E+02  0.65348145044E+02  0.00000000000E+00 0.  1.
         11    1    1    2    0    0  0.38474827809E+02 -0.16926789857E+01  0.12376988293E+03  0.12962315170E+03  0.00000000000E+00 0. -1.
</event>
<event>
 7    1  0.2732144E-009  0.1050877E+03  0.7561462E-02  0.1269947E+00
          2   -1    0    0  501    0  0.00000000000E+00  0.00000000000E+00  0.84731860678E+03  0.84731860678E+03  0.00000000000E+00 0.  1.
         -2   -1    0    0    0  501 -0.00000000000E+00 -0.00000000000E+00 -0.15477648532E+02  0.15477648532E+02  0.00000000000E+00 0. -1.
         25    2    1    2    0    0  0.31566816205E+02  0.19930143649E+02  0.49516023876E+03  0.51207941149E+03  0.12509191466E+03 0.  0.
          5    1    3    3  502    0 -0.57225588792E+01  0.63125181766E+02  0.35588026375E+03  0.36150486965E+03  0.41800000000E+01 0. -1.
         -5    1    3    3    0  502  0.37289375085E+02 -0.43195038117E+02  0.13927997501E+03  0.15057454184E+03  0.41800000000E+01 0. -1.
        -11    1    1    2    0    0  0.10750932736E+02 -0.40842515184E+02  0.88173654457E+02  0.97766491916E+02  0.00000000000E+00 0. -1.
         11    1    1    2    0    0 -0.42317748941E+02  0.20912371535E+02  0.24850706503E+03  0.25295035190E+03  0.00000000000E+00 0.  1.
</event>
<event>
 7    1  0.2732144E-009  0.1357491E+03  0.7561462E-02  0.1219166E+00
         -1   -1    0    0    0  501 -0.00000000000E+00  0.00000000000E+00  0.74806625648E+02  0.74806625648E+02  0.00000000000E+00 0.  1.
          1   -1    0    0  501    0  0.00000000000E+00 -0.00000000000E+00 -0.37006202652E+03  0.37006202652E+03  0.00000000000E+00 0. -1.
         25    2    1    2    0    0  0.84098609508E+02 -0.74546879732E+02 -0.23138243791E+03  0.28603334518E+03  0.12508968216E+03 0.  0.
          5    1    3    3  502    0  0.14192910190E+02 -0.85921888323E+02 -0.17460845127E+03  0.19516555344E+03  0.41800000000E+01 0. -1.
         -5    1    3    3    0  502  0.69905699318E+02  0.11375008591E+02 -0.56773986640E+02  0.90867791745E+02  0.41800000000E+01 0. -1.
        -11    1    1    2    0    0 -0.45977581672E+02  0.50484530634E+02 -0.85016416863E+02  0.10904318863E+03  0.00000000000E+00 0. -1.
         11    1    1    2    0    0 -0.38121027836E+02  0.24062349098E+02  0.21143453906E+02  0.49792118357E+02  0.00000000000E+00 0.  1.
</event>
<event>
 7    1  0.2732144E-009  0.1178836E+03  0.7561462E-02  0.1246630E+00
         -2   -1    0    0    0  501 -0.00000000000E+00  0.00000000000E+00  0.15880690790E+02  0.15880690790E+02  0.00000000000E+00 0.  1.
          2   -1    0    0  501    0  0.00000000000E+00 -0.00000000000E+00 -0.11092607782E+04  0.11092607782E+04  0.00000000000E+00 0. -1.
         25    2    1    2    0    0 -0.39782500464E+02  0.58264737576E+02 -0.46304106852E+03  0.48480182503E+03  0.12509337085E+03 0.  0.
          5    1    3    3  502    0 -0.20908044075E+02 -0.27957283571E+02 -0.27261694577E+03  0.27487493071E+03  0.41800000000E+01 0.  1.
         -5    1    3    3    0  502 -0.18874456389E+02  0.86222021147E+02 -0.19042412274E+03  0.20992689432E+03  0.41800000000E+01 0.  1.
        -11    1    1    2    0    0  0.67480702465E+02 -0.34706205035E+02 -0.45292598107E+03  0.45923862011E+03  0.00000000000E+00 0. -1.
         11    1    1    2    0    0 -0.27698202001E+02 -0.23558532541E+02 -0.17741303781E+03  0.18110102383E+03  0.00000000000E+00 0.  1.
</event>
<event>
 7    1  0.3059731E-009  0.1158838E+03  0.7561462E-02  0.1250046E+00
          1   -1    0    0  501    0  0.00000000000E+00  0.00000000000E+00  0.12002392237E+04  0.12002392237E+04  0.00000000000E+00 0. -1.
         -1   -1    0    0    0  501 -0.00000000000E+00 -0.00000000000E+00 -0.16291036114E+02  0.16291036114E+02  0.00000000000E+00 0.  1.
         25    2    1    2    0    0  0.18624428274E+02 -0.69994847542E+02  0.86543096689E+03  0.87741968016E+03  0.12509351968E+03 0.  0.
          5    1    3    3  502    0 -0.44357552890E+02 -0.55031284378E+02  0.29818079579E+03  0.30647233829E+03  0.41800000000E+01 0.  1.
         -5    1    3    3    0  502  0.62981981164E+02 -0.14963563165E+02  0.56725017110E+03  0.57094734187E+03  0.41800000000E+01 0.  1.
        -11    1    1    2    0    0 -0.41832124099E+02  0.37636217783E+02  0.83164330198E+02  0.10041273481E+03  0.00000000000E+00 0.  1.
         11    1    1    2    0    0  0.23207695826E+02  0.32358629760E+02  0.23535289045E+03  0.23869784479E+03  0.00000000000E+00 0. -1.
</event>
<event>
 7    1  0.2732144E-009  0.1155228E+03  0.7561462E-02  0.1250671E+00
         -2   -1    0    0    0  501 -0.00000000000E+00  0.00000000000E+00  0.51173847741E+02  0.51173847741E+02  0.00000000000E+00 0. -1.
          2   -1    0    0  501    0  0.00000000000E+00 -0.00000000000E+00 -0.32762267922E+03  0.32762267922E+03  0.00000000000E+00 0.  1.
         25    2    1    2    0    0 -0.68048156200E+02 -0.13300553894E+02 -0.12857434060E+03  0.19231684782E+03  0.12508777957E+03 0.  0.
          5    1    3    3  502    0  0.11003311038E+02 -0.53013719124E+02 -0.44638343119E+02  0.70296382165E+02  0.41800000000E+01 0. -1.
         -5    1    3    3    0  502 -0.79051467238E+02  0.39713165230E+02 -0.83935997481E+02  0.12202046565E+03  0.41800000000E+01 0. -1.
        -11    1    1    2    0    0  0.56673838217E+02  0.32888308254E+02 -0.15004160183E+03  0.16372552347E+03  0.00000000000E+00 0.  1.
         11    1    1    2    0    0  0.11374317983E+02 -0.19587754360E+02  0.21671109451E+01  0.22754155671E+02  0.00000000000E+00 0. -1.
</event>
<event>
 7    1  0.3003334E-009  0.7730925E+02  0.7561462E-02  0.1336866E+00
         -3   -1    0    0    0  501 -0.00000000000E+00  0.00000000000E+00  0.24727311996E+03  0.24727311996E+03  0.00000000000E+00 0.  1.
          3   -1    0    0  501    0  0.00000000000E+00 -0.00000000000E+00 -0.73131582928E+02  0.73131582928E+02  0.00000000000E+00 0. -1.
         25    2    1    2    0    0  0.30664670683E+02 -0.21114979737E+02  0.17880653885E+03  0.22137235401E+03  0.12509107237E+03 0.  0.
          5    1    3    3  502    0 -0.74591030926E+01 -0.15552201019E+02 -0.15301680630E+02  0.23433373756E+02  0.41800000000E+01 0. -1.
         -5    1    3    3    0  502  0.38123773776E+02 -0.55627787178E+01  0.19410821948E+03  0.19793898025E+03  0.41800000000E+01 0. -1.
        -11    1    1    2    0    0 -0.19318045306E+01  0.54235768276E+02  0.36935650521E+01  0.54395706191E+02  0.00000000000E+00 0.  1.
         11    1    1    2    0    0 -0.28732866153E+02 -0.33120788539E+02 -0.83585668649E+01  0.44636642692E+02  0.00000000000E+00 0. -1.
</event>
<event>
 7    1  0.2732144E-009  0.1512362E+03  0.7561462E-02  0.1198962E+00
         -2   -1    0    0    0  501 -0.00000000000E+00  0.00000000000E+00  0.56420026573E+02  0.56420026573E+02  0.00000000000E+00 0.  1.
          2   -1    0    0  501    0  0.00000000000E+00 -0.00000000000E+00 -0.44941804037E+03  0.44941804037E+03  0.00000000000E+00 0. -1.
         25    2    1    2    0    0  0.11102258108E+03 -0.17251237201E+02 -0.25938937726E+03  0.30911808794E+03  0.12509006580E+03 0.  0.
          5    1    3    3  502    0  0.11463497474E+03 -0.56743964163E+02 -0.20518938699E+03  0.24182888958E+03  0.41800000000E+01 0. -1.
         -5    1    3    3    0  502 -0.36123936580E+01  0.39492726962E+02 -0.54199990271E+02  0.67289198363E+02  0.41800000000E+01 0. -1.
        -11    1    1    2    0    0 -0.65084766511E+02  0.46650395813E+02 -0.42814199183E+02  0.90803865077E+02  0.00000000000E+00 0.  1.
         11    1    1    2    0    0 -0.45937814568E+02 -0.29399158612E+02 -0.90794437354E+02  0.10591611392E+03  0.00000000000E+00 0. -1.
</event>
<event>
 7    1  0.2732144E-009  0.1410938E+03  0.7561462E-02  0.1211865E+00
          2   -1    0    0  501    0  0.00000000000E+00  0.00000000000E+00  0.94771324506E+03  0.94771324506E+03  0.00000000000E+00 0. -1.
         -2   -1    0    0    0  501 -0.00000000000E+00 -0.00000000000E+00 -0.27552924753E+02  0.27552924753E+02  0.00000000000E+00 0.  1.
         25    2    1    2    0    0  0.90208682999E+02 -0.10935053990E+01  0.72242242710E+03  0.73869940861E+03  0.12507538067E+03 0.  0.
          5    1    3    3  502    0 -0.31669860020E+02  0.10937821503E+01  0.13261396342E+03  0.13641155408E+03  0.41800000000E+01 0. -1.
         -5    1    3    3    0  502  0.12187854302E+03 -0.21872875493E+01  0.58980846369E+03  0.60228785453E+03  0.41800000000E+01 0. -1.
        -11    1    1    2    0    0  0.10717686560E+02 -0.22220726672E+02  0.24806269313E+02  0.34985432629E+02  0.00000000000E+00 0.  1.
         11    1    1    2    0    0 -0.10092636956E+03  0.23314232071E+02  0.17293162389E+03  0.20158132858E+03  0.00000000000E+00 0. -1.
</event>
<event>
 7    1  0.2732144E-009  0.1034965E+03  0.7561462E-02  0.1273110E+00
         -1   -1    0    0    0  501 -0.00000000000E+00  0.00000000000E+00  0.94509606167E+02  0.94509606167E+02  0.00000000000E+00 0.  1.
          1   -1    0    0  501    0  0.00000000000E+00 -0.00000000000E+00 -0.16584508859E+03  0.16584508859E+03  0.00000000000E+00 0. -1.
         25    2    1    2    0    0 -0.61611654247E+02 -0.16214442635E+02 -0.68755034946E+02  0.15630485783E+03  0.12508017293E+03 0.  0.
          5    1    3    3  502    0 -0.28586640788E+02 -0.66823387327E+02 -0.12953667320E+02  0.73944783605E+02  0.41800000000E+01 0. -1.
         -5    1    3    3    0  502 -0.33025013459E+02  0.50608944691E+02 -0.55801367625E+02  0.82360074220E+02  0.41800000000E+01 0. -1.
        -11    1    1    2    0    0  0.82580137365E+01  0.18452110166E+02 -0.35833129631E+02  0.41142293806E+02  0.00000000000E+00 0. -1.
         11    1    1    2    0    0  0.53353640511E+02 -0.22376675306E+01  0.33252682154E+02  0.62907543126E+02  0.00000000000E+00 0.  1.
</event>
<event>
 7    1  0.2732144E-009  0.7495885E+02  0.7561462E-02  0.1343998E+00
          2   -1    0    0  501    0  0.00000000000E+00  0.00000000000E+00  0.11243693058E+03  0.11243693058E+03  0.00000000000E+00 0. -1.
         -2   -1    0    0    0  501 -0.00000000000E+00 -0.00000000000E+00 -0.11124791068E+03  0.11124791068E+03  0.00000000000E+00 0.  1.
         25    2    1    2    0    0  0.22102209582E+02  0.15424219891E+02  0.12089036566E+02  0.12853096083E+03  0.12509056263E+03 0.  0.
          5    1    3    3  502    0 -0.91914189284E+01  0.36501706524E+02 -0.45722267614E+02  0.59370488602E+02  0.41800000000E+01 0. -1.
         -5    1    3    3    0  502  0.31293628511E+02 -0.21077486633E+02  0.57811304180E+02  0.69160472230E+02  0.41800000000E+01 0. -1.
        -11    1    1    2    0    0 -0.41087791504E+02  0.10063881589E+02 -0.35291733427E+02  0.55090786631E+02  0.00000000000E+00 0.  1.
         11    1    1    2    0    0  0.18985581922E+02 -0.25488101480E+02  0.24391716761E+02  0.40063093796E+02  0.00000000000E+00 0. -1.
</event>
<event>
 7    1  0.2732144E-009  0.1235697E+03  0.7561462E-02  0.1237322E+00
         -2   -1    0    0    0  501 -0.00000000000E+00  0.00000000000E+00  0.32667866322E+02  0.32667866322E+02  0.00000000000E+00 0. -1.
          2   -1    0    0  501    0  0.00000000000E+00 -0.00000000000E+00 -0.72471606866E+03  0.72471606866E+03  0.00000000000E+00 0.  1.
         25    2    1    2    0    0 -0.63740713846E+02  0.76264446365E+02 -0.26951365566E+03  0.31330325524E+03  0.12506868023E+03 0.  0.
          5    1    3    3  502    0  0.84027258191E+01  0.20148148000E+02 -0.19230551749E+03  0.19358573844E+03  0.41800000000E+01 0.  1.
         -5    1    3    3    0  502 -0.72143439665E+02  0.56116298365E+02 -0.77208138170E+02  0.11971751680E+03  0.41800000000E+01 0.  1.
        -11    1    1    2    0    0  0.35954648041E+02  0.14294978370E+02 -0.17043649157E+03  0.17477322672E+03  0.00000000000E+00 0.  1.
         11    1    1    2    0    0  0.27786065805E+02 -0.90559424735E+02 -0.25209805511E+03  0.26930745302E+03  0.00000000000E+00 0. -1.
</event>
<event>
 7    1  0.2732144E-009  0.2530495E+03  0.7561462E-02  0.1111393E+00
          2   -1    0    0  501    0  0.00000000000E+00  0.00000000000E+00  0.26507904007E+03  0.26507904007E+03  0.00000000000E+00 0.  1.
         -2   -1    0    0    0  501 -0.00000000000E+00 -0.00000000000E+00 -0.24616636650E+03  0.24616636650E+03  0.00000000000E+00 0. -1.
         25    2    1    2    0    0 -0.10152249722E+03 -0.20659923102E+03  0.35415272979E+02  0.26436718895E+03  0.12508280990E+03 0.  0.
          5    1    3    3  502    0 -0.92409756210E+02 -0.54507618445E+02  0.31503030669E+02  0.11189529415E+03  0.41800000000E+01 0. -1.
         -5    1    3    3    0  502 -0.91127410131E+01 -0.15209161257E+03  0.39122423096E+01  0.15247189480E+03  0.41800000000E+01 0. -1.
        -11    1    1    2    0    0 -0.33311509043E+01  0.87765750716E+02 -0.73069256274E+01  0.88132370484E+02  0.00000000000E+00 0. -1.
         11    1    1    2    0    0  0.10485364813E+03  0.11883348030E+03 -0.91956737798E+01  0.15874584714E+03  0.00000000000E+00 0.  1.
</event>
<event>
 7    1  0.2732144E-009  0.1767563E+03  0.7561462E-02  0.1170980E+00
          4   -1    0    0  501    0  0.00000000000E+00  0.00000000000E+00  0.43455981759E+03  0.43455981759E+03  0.00000000000E+00 0. -1.
         -4   -1    0    0    0  501 -0.00000000000E+00 -0.00000000000E+00 -0.12915560584E+03  0.12915560584E+03  0.00000000000E+00 0.  1.
         25    2    1    2    0    0 -0.38060358488E+02 -0.14937186686E+03 -0.12370225501E+02  0.19890571627E+03  0.12509962426E+03 0.  0.
          5    1    3    3  502    0 -0.67384243833E+02 -0.27825615554E+02  0.14792168800E+01  0.73038083768E+02  0.41800000000E+01 0.  1.
         -5    1    3    3    0  502  0.29323885346E+02 -0.12154625130E+03 -0.13849442381E+02  0.12586763250E+03  0.41800000000E+01 0.  1.
        -11    1    1    2    0    0  0.15747606003E+02  0.29349974336E+02  0.11725336124E+02  0.35311352220E+02  0.00000000000E+00 0.  1.
         11    1    1    2    0    0  0.22312752485E+02  0.12002189252E+03  0.30604910113E+03  0.32949835494E+03  0.00000000000E+00 0. -1.
</event>
<event>
 7    1  0.2732144E-009  0.2417595E+03  0.7561462E-02  0.1118626E+00
         -2   -1    0    0    0  501 -0.00000000000E+00  0.00000000000E+00  0.16196374917E+04  0.16196374917E+04  0.00000000000E+00 0.  1.
          2   -1    0    0  501    0  0.00000000000E+00 -0.00000000000E+00 -0.36381444848E+02  0.36381444848E+02  0.00000000000E+00 0. -1.
         25    2    1    2    0    0  0.13190749545E+03 -0.17104463607E+03  0.84201547157E+03  0.87823283303E+03  0.12508796810E+03 0.  0.
          5    1    3    3  502    0  0.89567087732E+01 -0.11109782539E+03  0.33540690659E+03  0.35346600236E+03  0.41800000000E+01 0.  1.
         -5    1    3    3    0  502  0.12295078668E+03 -0.59946810675E+02  0.50660856499E+03  0.52476683067E+03  0.41800000000E+01 0.  1.
        -11    1    1    2    0    0 -0.42270302371E+02  0.12970940383E+03  0.45434675222E+03  0.47438621308E+03  0.00000000000E+00 0.  1.
         11    1    1    2    0    0 -0.89637193080E+02  0.41335232243E+02  0.28689382302E+03  0.30339989040E+03  0.00000000000E+00 0. -1.
</event>
<event>
 6    1  0.2732144E-009  0.8506625E+02  0.7561462E-02  0.1315259E+00
         -1   -1    0    0    0  501 -0.00000000000E+00  0.00000000000E+00  0.33141295046E+02  0.33141295046E+02  0.00000000000E+00 0.  1.
          1   -1    0    0  501    0  0.00000000000E+00 -0.00000000000E+00 -0.33893307766E+03  0.33893307766E+03  0.00000000000E+00 0. -1.
          5    1    1    2  502    0  0.63021729958E+01  0.42483847494E+02 -0.20856199706E+02  0.47927530173E+02  0.41800000000E+01 0. -1.
         -5    1    1    2    0  502  0.36764416267E+01 -0.58009059582E+02 -0.18169115343E+03  0.19080805762E+03  0.41800000000E+01 0. -1.
        -11    1    1    2    0    0 -0.35044290206E+01  0.41646468248E+02 -0.20939448595E+02  0.46745800322E+02  0.00000000000E+00 0.  1.
         11    1    1    2    0    0 -0.64741856019E+01 -0.26121256160E+02 -0.82304980880E+02  0.86592984590E+02  0.00000000000E+00 0. -1.
</event>
<event>
 7    1  0.2732144E-009  0.1100129E+03  0.7561462E-02  0.1260546E+00
         -4   -1    0    0    0  501 -0.00000000000E+00  0.00000000000E+00  0.37640567581E+03  0.37640567581E+03  0.00000000000E+00 0.  1.
          4   -1    0    0  501    0  0.00000000000E+00 -0.00000000000E+00 -0.38643477955E+02  0.38643477955E+02  0.00000000000E+00 0. -1.
         25    2    1    2    0    0  0.35915959892E+02 -0.15946477242E+02  0.24787005966E+03  0.28041246152E+03  0.12508931123E+03 0.  0.
          5    1    3    3  502    0 -0.36965434432E+02 -0.27753514350E+02  0.15440964106E+03  0.16123433429E+03  0.41800000000E+01 0. -1.
         -5    1    3    3    0  502  0.72881394324E+02  0.11807037108E+02  0.93460418603E+02  0.11917812723E+03  0.41800000000E+01 0. -1.
        -11    1    1    2    0    0  0.93531962731E+00  0.49688611485E+02  0.37663393480E+02  0.62356748973E+02  0.00000000000E+00 0. -1.
         11    1    1    2    0    0 -0.36851279519E+02 -0.33742134243E+02  0.52228744709E+02  0.72279943272E+02  0.00000000000E+00 0.  1.
</event>
<event>
 7    1  0.2732144E-009  0.8038182E+02  0.7561462E-02  0.1327971E+00
         -1   -1    0    0    0  501 -0.00000000000E+00  0.00000000000E+00  0.24091510132E+02  0.24091510132E+02  0.00000000000E+00 0.  1.
          1   -1    0    0  501    0  0.00000000000E+00 -0.00000000000E+00 -0.52703546382E+03  0.52703546382E+03  0.00000000000E+00 0. -1.
         25    2    1    2    0    0 -0.12364241009E+02 -0.51155086373E+01 -0.35393124430E+03  0.37562592661E+03  0.12509383744E+03 0.  0.
          5    1    3    3  502    0  0.49587345769E+01  0.33575279673E+02 -0.31818483066E+03  0.32001710472E+03  0.41800000000E+01 0.  1.
         -5    1    3    3    0  502 -0.17322975586E+02 -0.38690788311E+02 -0.35746413636E+02  0.55608821882E+02  0.41800000000E+01 0.  1.
        -11    1    1    2    0    0 -0.30193478566E+02 -0.18389743290E+02 -0.10166930864E+03  0.10764049947E+03  0.00000000000E+00 0. -1.
         11    1    1    2    0    0  0.42557719576E+02  0.23505251927E+02 -0.47343400753E+02  0.67860547879E+02  0.00000000000E+00 0.  1.
</event>
<event>
 7    1  0.2732144E-009  0.8986837E+02  0.7561462E-02  0.1303171E+00
         -4   -1    0    0    0  501 -0.00000000000E+00  0.00000000000E+00  0.74820587458E+03  0.74820587458E+03  0.00000000000E+00 0.  1.
          4   -1    0    0  501    0  0.00000000000E+00 -0.00000000000E+00 -0.15861481322E+02  0.15861481322E+02  0.00000000000E+00 0. -1.
         25    2    1    2    0    0  0.83225152284E+00  0.54578221317E+01  0.45196817448E+03  0.46899196149E+03  0.12509096181E+03 0.  0.
          5    1    3    3  502    0  0.21029454516E+01  0.46380565305E+02  0.65813013112E+02  0.80649887244E+02  0.41800000000E+01 0. -1.
         -5    1    3    3    0  502 -0.12706939287E+01 -0.40922743174E+02  0.38615516137E+03  0.38834207424E+03  0.41800000000E+01 0. -1.
        -11    1    1    2    0    0  0.24876247861E+02 -0.41086161802E+02  0.14804900521E+03  0.15564513594E+03  0.00000000000E+00 0.  1.
         11    1    1    2    0    0 -0.25708499384E+02  0.35628339670E+02  0.13232721357E+03  0.13943025848E+03  0.00000000000E+00 0. -1.
</event>
<event>
 7    1  0.2732144E-009  0.2482323E+03  0.7561462E-02  0.1114427E+00
         -2   -1    0    0    0  501 -0.00000000000E+00  0.00000000000E+00  0.92099385904E+02  0.92099385904E+02  0.00000000000E+00 0.  1.
          2   -1    0    0  501    0  0.00000000000E+00 -0.00000000000E+00 -0.80115416638E+03  0.80115416638E+03  0.00000000000E+00 0. -1.
         25    2    1    2    0    0  0.21151134796E+03 -0.12469128553E+03 -0.27807236175E+03  0.39147990745E+03  0.12508921844E+03 0.  0.
          5    1    3    3  502    0  0.79618090582E+02 -0.67815998471E+02 -0.37353317445E+02  0.11113412042E+03  0.41800000000E+01 0.  1.
         -5    1    3    3    0  502  0.13189325738E+03 -0.56875287055E+02 -0.24071904430E+03  0.28034578704E+03  0.41800000000E+01 0.  1.
        -11    1    1    2    0    0 -0.16985274549E+03  0.82569678113E+02 -0.26403286610E+03  0.32462449272E+03  0.00000000000E+00 0.  1.
         11    1    1    2    0    0 -0.41658602474E+02  0.42121607413E+02 -0.16694955263E+03  0.17714915211E+03  0.00000000000E+00 0. -1.
</event>
<event>
 7    1  0.2732144E-009  0.6249395E+02  0.7561462E-02  0.1387654E+00
          1   -1    0    0  501    0  0.00000000000E+00  0.00000000000E+00  0.16963063071E+03  0.16963063071E+03  0.00000000000E+00 0. -1.
         -1   -1    0    0    0  501 -0.00000000000E+00 -0.00000000000E+00 -0.88591450916E+02  0.88591450916E+02  0.00000000000E+00 0.  1.
         25    2    1    2    0    0 -0.46279772326E+02 -0.51965602032E+01  0.97019904080E+01  0.13382319177E+03  0.12508275850E+03 0.  0.
          5    1    3    3  502    0 -0.20978186307E+02 -0.18428955858E+02  0.65321990751E+02  0.71162810445E+02  0.41800000000E+01 0. -1.
         -5    1    3    3    0  502 -0.25301586020E+02  0.13232395655E+02 -0.55620000343E+02  0.62660381327E+02  0.41800000000E+01 0. -1.
        -11    1    1    2    0    0  0.28837834657E+02 -0.21525453183E+02  0.82967072918E+02  0.90435065274E+02  0.00000000000E+00 0. -1.
         11    1    1    2    0    0  0.17441937669E+02  0.26722013386E+02 -0.11629883534E+02  0.33963824579E+02  0.00000000000E+00 0.  1.
</event>
<event>
 7    1  0.2732144E-009  0.2597113E+03  0.7561462E-02  0.1107317E+00
         -3   -1    0    0    0  501 -0.00000000000E+00  0.00000000000E+00  0.12636882115E+04  0.12636882115E+04  0.00000000000E+00 0.  1.
          3   -1    0    0  501    0  0.00000000000E+00 -0.00000000000E+00 -0.70571906744E+02  0.70571906744E+02  0.00000000000E+00 0. -1.
         25    2    1    2    0    0  0.16033368958E+03  0.19343431738E+03  0.87598688338E+03  0.91984981856E+03  0.12508773594E+03 0.  0.
          5    1    3    3  502    0  0.14060714886E+03  0.18489397297E+03  0.86439763487E+03  0.89507368139E+03  0.41800000000E+01 0. -1.
         -5    1    3    3    0  502  0.19726540726E+02  0.85403444060E+01  0.11589248510E+02  0.24776137161E+02  0.41800000000E+01 0. -1.
        -11    1    1    2    0    0 -0.11577134160E+03 -0.73191438394E+02  0.14132181653E+03  0.19680408029E+03  0.00000000000E+00 0.  1.
         11    1    1    2    0    0 -0.44562347986E+02 -0.12024287898E+03  0.17580760484E+03  0.21760621940E+03  0.00000000000E+00 0. -1.
</event>
<event>
 7    1  0.2732144E-009  0.6249090E+02  0.7561462E-02  0.1387666E+00
          1   -1    0    0  501    0  0.00000000000E+00  0.00000000000E+00  0.39806029700E+02  0.39806029700E+02  0.00000000000E+00 0. -1.
         -1   -1    0    0    0  501 -0.00000000000E+00 -0.00000000000E+00 -0.30652443957E+03  0.30652443957E+03  0.00000000000E+00 0.  1.
         25    2    1    2    0    0  0.80310022488E+01  0.91534418999E+01 -0.12087130037E+03  0.17438791163E+03  0.12511190980E+03 0.  0.
          5    1    3    3  502    0  0.11550021119E+02 -0.97051372594E+01 -0.14354414780E+03  0.14439524731E+03  0.41800000000E+01 0.  1.
         -5    1    3    3    0  502 -0.35190188703E+01  0.18858579159E+02  0.22672847439E+02  0.29992664315E+02  0.41800000000E+01 0.  1.
        -11    1    1    2    0    0 -0.38253394440E+02  0.23741782123E+02 -0.58332962514E+02  0.73686694323E+02  0.00000000000E+00 0. -1.
         11    1    1    2    0    0  0.30222392192E+02 -0.32895224023E+02 -0.87514146988E+02  0.98255863318E+02  0.00000000000E+00 0.  1.
</event>
<event>
 7    1  0.2732144E-009  0.1416082E+03  0.7561462E-02  0.1211181E+00
         -1   -1    0    0    0  501 -0.00000000000E+00  0.00000000000E+00  0.50485696910E+03  0.50485696910E+03  0.00000000000E+00 0.  1.
          1   -1    0    0  501    0  0.00000000000E+00 -0.00000000000E+00 -0.50346459041E+02  0.50346459041E+02  0.00000000000E+00 0. -1.
         25    2    1    2    0    0  0.92376213187E+02  0.63886154155E+02  0.18834146500E+03  0.25246139127E+03  0.12509772656E+03 0.  0.
          5    1    3    3  502    0  0.63562837549E+02  0.99701199668E+02  0.11008224541E+03  0.16160487829E+03  0.41800000000E+01 0.  1.
         -5    1    3    3    0  502  0.28813375639E+02 -0.35815045513E+02  0.78259219588E+02  0.90856512982E+02  0.41800000000E+01 0.  1.
        -11    1    1    2    0    0 -0.70870270550E+02 -0.26589768694E+02  0.74170707891E+02  0.10597596405E+03  0.00000000000E+00 0. -1.
         11    1    1    2    0    0 -0.21505942637E+02 -0.37296385461E+02  0.19199833717E+03  0.19676607282E+03  0.00000000000E+00 0.  1.
</event>
<event>
 7    1  0.2732144E-009  0.1092645E+03  0.7561462E-02  0.1261938E+00
          1   -1    0    0  501    0  0.00000000000E+00  0.00000000000E+00  0.19886195620E+03  0.19886195620E+03  0.00000000000E+00 0. -1.
         -1   -1    0    0    0  501 -0.00000000000E+00 -0.00000000000E+00 -0.71346767279E+02  0.71346767279E+02  0.00000000000E+00 0.  1.
         25    2    1    2    0    0 -0.93484868683E+01 -0.48242975303E+02  0.69579462850E+02  0.15133679169E+03  0.12508694574E+03 0.  0.
          5    1    3    3  502    0  0.12263394993E+02 -0.79490355770E+02  0.78086984086E+02  0.11217912908E+03  0.41800000000E+01 0.  1.
         -5    1    3    3    0  502 -0.21611881861E+02  0.31247380467E+02 -0.85075212354E+01  0.39157662612E+02  0.41800000000E+01 0.  1.
        -11    1    1    2    0    0  0.48066201166E+02  0.32214183890E+02  0.49455379189E+02  0.76117986501E+02  0.00000000000E+00 0. -1.
         11    1    1    2    0    0 -0.38717714298E+02  0.16028791413E+02  0.84803468843E+01  0.42753945290E+02  0.00000000000E+00 0.  1.
</event>
<event>
 7    1  0.2732144E-009  0.1007396E+03  0.7561462E-02  0.1278748E+00
         -2   -1    0    0    0  501 -0.00000000000E+00  0.00000000000E+00  0.44531938618E+02  0.44531938618E+02  0.00000000000E+00 0. -1.
          2   -1    0    0  501    0  0.00000000000E+00 -0.00000000000E+00 -0.36322937852E+03  0.36322937852E+03  0.00000000000E+00 0.  1.
         25    2    1    2    0    0 -0.25585333044E+02 -0.48022799907E+02 -0.22966346218E+03  0.26712176540E+03  0.12509169881E+03 0.  0.
          5    1    3    3  502    0 -0.32583649111E+02 -0.85309686716E+02 -0.19583336836E+03  0.21611945169E+03  0.41800000000E+01 0. -1.
         -5    1    3    3    0  502  0.69983160670E+01  0.37286886809E+02 -0.33830093819E+02  0.51002313707E+02  0.41800000000E+01 0. -1.
        -11    1    1    2    0    0  0.32416373845E+02  0.10975940773E+02 -0.96364583544E+02  0.10226155451E+03  0.00000000000E+00 0.  1.
         11    1    1    2    0    0 -0.68310408003E+01  0.37046859134E+02  0.73306058145E+01  0.38377997234E+02  0.00000000000E+00 0. -1.
</event>
<event>
 6    1  0.2732144E-009  0.1877317E+03  0.7561462E-02  0.1160523E+00
          1   -1    0    0  501    0  0.00000000000E+00  0.00000000000E+00  0.82782506338E+03  0.82782506338E+03  0.00000000000E+00 0.  1.
         -1   -1    0    0    0  501 -0.00000000000E+00 -0.00000000000E+00 -0.49373225037E+02  0.49373225037E+02  0.00000000000E+00 0. -1.
          5    1    1    2  502    0  0.64462275731E+02 -0.17763652128E+02  0.10216499372E+03  0.12217238097E+03  0.41800000000E+01 0.  1.
         -5    1    1    2    0  502  0.73114650227E+02  0.10628888617E+03  0.40911062438E+03  0.42898957421E+03  0.41800000000E+01 0.  1.
        -11    1    1    2    0    0 -0.13178386657E+03 -0.50818204731E+02  0.16629237595E+03  0.21818027344E+03  0.00000000000E+00 0. -1.
         11    1    1    2    0    0 -0.57930593920E+01 -0.37707029309E+02  0.10088384429E+03  0.10785605980E+03  0.00000000000E+00 0.  1.
</event>
<event>
 7    1  0.2732144E-009  0.1038201E+03  0.7561462E-02  0.1272462E+00
         -4   -1    0    0    0  501 -0.00000000000E+00  0.00000000000E+00  0.57726159532E+03  0.57726159532E+03  0.00000000000E+00 0.  1.
          4   -1    0    0  501    0  0.00000000000E+00 -0.00000000000E+00 -0.40673450525E+02  0.40673450525E+02  0.00000000000E+00 0. -1.
         25    2    1    2    0    0 -0.58763359322E+02  0.11695153129E+02  0.10769749328E+03  0.17560312725E+03  0.12509116370E+03 0.  0.
          5    1    3    3  502    0 -0.77490231896E+02  0.11851084042E+01  0.12539042734E+03  0.14746651210E+03  0.41800000000E+01 0. -1.
         -5    1    3    3    0  502  0.18726872574E+02  0.10510044724E+02 -0.17692934064E+02  0.28136615154E+02  0.41800000000E+01 0. -1.
        -11    1    1    2    0    0  0.63460215649E+02  0.27148941458E+02  0.28094388031E+03  0.28929868281E+03  0.00000000000E+00 0.  1.
         11    1    1    2    0    0 -0.46968563268E+01 -0.38844094586E+02  0.14794677120E+03  0.15303323578E+03  0.00000000000E+00 0. -1.
</event>
<event>
 7    1  0.2732144E-009  0.1340354E+03  0.7561462E-02  0.1221588E+00
         -2   -1    0    0    0  501 -0.00000000000E+00  0.00000000000E+00  0.54516619687E+02  0.54516619687E+02  0.00000000000E+00 0.  1.
          2   -1    0    0  501    0  0.00000000000E+00 -0.00000000000E+00 -0.37138542381E+03  0.37138542381E+03  0.00000000000E+00 0. -1.
         25    2    1    2    0    0 -0.49594108964E+02 -0.72388899081E+02 -0.21250240044E+03  0.26173364083E+03  0.12508996840E+03 0.  0.
          5    1    3    3  502    0 -0.85611118188E+02 -0.30974937182E+02 -0.93249824662E+02  0.13039061504E+03  0.41800000000E+01 0. -1.
         -5    1    3    3    0  502  0.36017009224E+02 -0.41413961899E+02 -0.11925257578E+03  0.13134302579E+03  0.41800000000E+01 0. -1.
        -11    1    1    2    0    0 -0.24085232912E+02  0.13833915203E+02 -0.45042793616E+02  0.52918134047E+02  0.00000000000E+00 0. -1.
         11    1    1    2    0    0  0.73679341877E+02  0.58554983878E+02 -0.59323610061E+02  0.11125026862E+03  0.00000000000E+00 0.  1.
</event>
<event>
 7    1  0.2732144E-009  0.1522281E+03  0.7561462E-02  0.1197762E+00
         -2   -1    0    0    0  501 -0.00000000000E+00  0.00000000000E+00  0.74877373161E+02  0.74877373161E+02  0.00000000000E+00 0.  1.
          2   -1    0    0  501    0  0.00000000000E+00 -0.00000000000E+00 -0.43786015256E+03  0.43786015256E+03  0.00000000000E+00 0. -1.
         25    2    1    2    0    0  0.96053216321E+02 -0.54193362727E+02 -0.58126008814E+02  0.17660632138E+03  0.12509204181E+03 0.  0.
          5    1    3    3  502    0 -0.16523872351E+02 -0.49246632106E+02 -0.30964499258E+02  0.60617998528E+02  0.41800000000E+01 0. -1.
         -5    1    3    3    0  502  0.11257708867E+03 -0.49467306210E+01 -0.27161509556E+02  0.11598832286E+03  0.41800000000E+01 0. -1.
        -11    1    1    2    0    0 -0.93635075191E+02  0.74173672348E+02 -0.23776004587E+03  0.26608100343E+03  0.00000000000E+00 0.  1.
         11    1    1    2    0    0 -0.24181411296E+01 -0.19980309621E+02 -0.67096724719E+02  0.70050200907E+02  0.00000000000E+00 0. -1.
</event>
<event>
 7    1  0.2732144E-009  0.1588284E+03  0.7561462E-02  0.1190026E+00
          2   -1    0    0  501    0  0.00000000000E+00  0.00000000000E+00  0.84547086758E+03  0.84547086758E+03  0.00000000000E+00 0. -1.
         -2   -1    0    0    0  501 -0.00000000000E+00 -0.00000000000E+00 -0.37961294528E+02  0.37961294528E+02  0.00000000000E+00 0.  1.
         25    2    1    2    0    0  0.35521874656E+02 -0.12745048026E+03  0.29944041512E+03  0.35045380844E+03  0.12509149109E+03 0.  0.
          5    1    3    3  502    0  0.76759726002E+02 -0.61854374496E+02  0.12285090402E+03  0.15756851271E+03  0.41800000000E+01 0. -1.
         -5    1    3    3    0  502 -0.41237851346E+02 -0.65596105762E+02  0.17658951111E+03  0.19288529573E+03  0.41800000000E+01 0. -1.
        -11    1    1    2    0    0 -0.47114801651E+02  0.82833413451E+02  0.44361855394E+03  0.45373847128E+03  0.00000000000E+00 0.  1.
         11    1    1    2    0    0  0.11592926995E+02  0.44617066807E+02  0.64450603983E+02  0.79239882385E+02  0.00000000000E+00 0. -1.
</event>
<event>
 7    1  0.2732144E-009  0.1070570E+03  0.7561462E-02  0.1266119E+00
         -1   -1    0    0    0  501 -0.00000000000E+00  0.00000000000E+00  0.71165001823E+02  0.71165001823E+02  0.00000000000E+00 0.  1.
          1   -1    0    0  501    0  0.00000000000E+00 -0.00000000000E+00 -0.25621337758E+03  0.25621337758E+03  0.00000000000E+00 0. -1.
         25    2    1    2    0    0 -0.41069801133E+02 -0.44486394217E+02 -0.37491560511E+02  0.14393987679E+03  0.12508918093E+03 0.  0.
          5    1    3    3  502    0 -0.57540865254E+02 -0.66063929473E+02 -0.61773858893E+02  0.10727942950E+03  0.41800000000E+01 0.  1.
         -5    1    3    3    0  502  0.16471064121E+02  0.21577535256E+02  0.24282298382E+02  0.36660447293E+02  0.41800000000E+01 0.  1.
        -11    1    1    2    0    0  0.64719078345E+02  0.33080373934E+02 -0.67523404240E+02  0.99208267607E+02  0.00000000000E+00 0. -1.
         11    1    1    2    0    0 -0.23649277212E+02  0.11406020282E+02 -0.80033411009E+02  0.84230235006E+02  0.00000000000E+00 0.  1.
</event>
<event>
 7    1  0.2732144E-009  0.1353438E+03  0.7561462E-02  0.1219735E+00
          1   -1    0    0  501    0  0.00000000000E+00  0.00000000000E+00  0.11241668309E+03  0.11241668309E+03  0.00000000000E+00 0. -1.
         -1   -1    0    0    0  501 -0.00000000000E+00 -0.00000000000E+00 -0.23130111995E+03  0.23130111995E+03  0.00000000000E+00 0.  1.
         25    2    1    2    0    0 -0.77330475255E+02  0.43365689471E+02  0.21359525839E+02  0.15480148866E+03  0.12508671441E+03 0.  0.
          5    1    3    3  502    0 -0.16401854879E+02 -0.41586911948E+02 -0.91395669357E+01  0.45820259413E+02  0.41800000000E+01 0. -1.
         -5    1    3    3    0  502 -0.60928620376E+02  0.84952601419E+02  0.30499092775E+02  0.10898122925E+03  0.41800000000E+01 0. -1.
        -11    1    1    2    0    0  0.58235075684E+02  0.14678932331E+02 -0.96892042642E+02  0.11399501314E+03  0.00000000000E+00 0. -1.
         11    1    1    2    0    0  0.19095399571E+02 -0.58044621802E+02 -0.43351920063E+02  0.74921301230E+02  0.00000000000E+00 0.  1.
</event>
<event>
 7    1  0.2732144E-009  0.1669023E+03  0.7561462E-02  0.1181117E+00
          1   -1    0    0  501    0  0.00000000000E+00  0.00000000000E+00  0.32864463176E+03  0.32864463176E+03  0.00000000000E+00 0. -1.
         -1   -1    0    0    0  501 -0.00000000000E+00 -0.00000000000E+00 -0.11360380604E+03  0.11360380604E+03  0.00000000000E+00 0.  1.
         25    2    1    2    0    0  0.55688401988E+02 -0.14358112114E+03  0.12427785523E+03  0.23411277837E+03  0.12508825377E+03 0.  0.
          5    1    3    3  502    0  0.24013336441E+02 -0.12174417978E+03  0.14444544537E+03  0.19047373762E+03  0.41800000000E+01 0.  1.
         -5    1    3    3    0  502  0.31675065547E+02 -0.21836941366E+02 -0.20167590136E+02  0.43639040749E+02  0.41800000000E+01 0.  1.
        -11    1    1    2    0    0 -0.31418059948E+02  0.14326831651E+03  0.40252535586E+02  0.15209592903E+03  0.00000000000E+00 0.  1.
         11    1    1    2    0    0 -0.24270342040E+02  0.31280463330E+00  0.50510434896E+02  0.56039730396E+02  0.00000000000E+00 0. -1.
</event>
<event>
 7    1  0.2732144E-009  0.1147666E+03  0.7561462E-02  0.1251989E+00
          2   -1    0    0  501    0  0.00000000000E+00  0.00000000000E+00  0.41202518316E+03  0.41202518316E+03  0.00000000000E+00 0. -1.
         -2   -1    0    0    0  501 -0.00000000000E+00 -0.00000000000E+00 -0.48297221279E+02  0.48297221279E+02  0.00000000000E+00 0.  1.
         25    2    1    2    0    0  0.61012336568E+02  0.28668464422E+02  0.29682039895E+03  0.32908051076E+03  0.12508895741E+03 0.  0.
          5    1    3    3  502    0 -0.26156467127E+02 -0.20753928321E+02  0.34280045473E+02  0.48036238726E+02  0.41800000000E+01 0.  1.
         -5    1    3    3    0  502  0.87168803695E+02  0.49422392742E+02  0.26254035348E+03  0.28104427204E+03  0.41800000000E+01 0.  1.
        -11    1    1    2    0    0  0.14437366151E+02  0.11037402293E+01 -0.11452991572E+02  0.18461495059E+02  0.00000000000E+00 0.  1.
         11    1    1    2    0    0 -0.75449702719E+02 -0.29772204651E+02  0.78360554507E+02  0.11278039862E+03  0.00000000000E+00 0. -1.
</event>
<event>
 7    1  0.2732144E-009  0.1320326E+03  0.7561462E-02  0.1224471E+00
         -1   -1    0    0    0  501 -0.00000000000E+00  0.00000000000E+00  0.22234465559E+03  0.22234465559E+03  0.00000000000E+00 0.  1.
          1   -1    0    0  501    0  0.00000000000E+00 -0.00000000000E+00 -0.85686256715E+02  0.85686256715E+02  0.00000000000E+00 0. -1.
         25    2    1    2    0    0  0.53283917156E+02 -0.60533254621E+02  0.33033532455E+02  0.15245543109E+03  0.12509194003E+03 0.  0.
          5    1    3    3  502    0 -0.10638103455E+02  0.32975808609E+02  0.13591037596E+02  0.37453463144E+02  0.41800000000E+01 0.  1.
         -5    1    3    3    0  502  0.63922020611E+02 -0.93509063230E+02  0.19442494858E+02  0.11500196795E+03  0.41800000000E+01 0.  1.
        -11    1    1    2    0    0 -0.48150801633E+01  0.66775548466E+02  0.64634695505E+02  0.93058061085E+02  0.00000000000E+00 0. -1.
         11    1    1    2    0    0 -0.48468836993E+02 -0.62422938449E+01  0.38990170918E+02  0.62517420133E+02  0.00000000000E+00 0.  1.
</event>
<event>
 7    1  0.2732144E-009  0.1933537E+03  0.7561462E-02  0.1155471E+00
         -2   -1    0    0    0  501 -0.00000000000E+00  0.00000000000E+00  0.34317617498E+02  0.34317617498E+02  0.00000000000E+00 0.  1.
          2   -1    0    0  501    0  0.00000000000E+00 -0.00000000000E+00 -0.14064522324E+04  0.14064522324E+04  0.00000000000E+00 0. -1.
         25    2    1    2    0    0  0.17710643907E+03  0.14644373427E+02 -0.94287197093E+03  0.96759296073E+03  0.12508971043E+03 0.  0.
          5    1    3    3  502    0  0.16549509566E+03 -0.17356781693E+02 -0.88334968190E+03  0.89889599926E+03  0.41800000000E+01 0. -1.
         -5    1    3    3    0  502  0.11611343406E+02  0.32001155120E+02 -0.59522289027E+02  0.68696961474E+02  0.41800000000E+01 0. -1.
        -11    1    1    2    0    0 -0.27465373403E+02  0.17941286771E+02 -0.16071850394E+03  0.16403253950E+03  0.00000000000E+00 0. -1.
         11    1    1    2    0    0 -0.14964106566E+03 -0.32585660198E+02 -0.26854414002E+03  0.30914434966E+03  0.00000000000E+00 0.  1.
</event>
<event>
 7    1  0.2732144E-009  0.1156509E+03  0.7561462E-02  0.1250449E+00
         -2   -1    0    0    0  501 -0.00000000000E+00  0.00000000000E+00  0.23713055986E+02  0.23713055986E+02  0.00000000000E+00 0. -1.
          2   -1    0    0  501    0  0.00000000000E+00 -0.00000000000E+00 -0.57798606043E+03  0.57798606043E+03  0.00000000000E+00 0.  1.
         25    2    1    2    0    0 -0.80657011421E+01 -0.42413395181E+02 -0.35407805122E+03  0.37799856084E+03  0.12509074311E+03 0.  0.
          5    1    3    3  502    0  0.58179999709E+02 -0.25315410749E+02 -0.18081684044E+03  0.19167155390E+03  0.41800000000E+01 0.  1.
         -5    1    3    3    0  502 -0.66245700851E+02 -0.17097984433E+02 -0.17326121078E+03  0.18632700694E+03  0.41800000000E+01 0.  1.
        -11    1    1    2    0    0  0.41589159525E+02  0.49760611654E+02 -0.14263372229E+03  0.15668489205E+03  0.00000000000E+00 0.  1.
         11    1    1    2    0    0 -0.33523458383E+02 -0.73472164731E+01 -0.57561230932E+02  0.67015663530E+02  0.00000000000E+00 0. -1.
</event>
<event>
 6    1  0.2732144E-009  0.8031365E+02  0.7561462E-02  0.1328164E+00
          2   -1    0    0  501    0  0.00000000000E+00  0.00000000000E+00  0.19943947502E+03  0.19943947502E+03  0.00000000000E+00 0. -1.
         -2   -1    0    0    0  501 -0.00000000000E+00 -0.00000000000E+00 -0.67838781664E+02  0.67838781664E+02  0.00000000000E+00 0.  1.
          5    1    1    2  502    0 -0.25361084459E+01 -0.46278353938E+02 -0.23224342503E+02  0.52009233545E+02  0.41800000000E+01 0. -1.
         -5    1    1    2    0  502  0.33784503840E+02  0.31704999797E+02  0.73656173617E+02  0.87116611641E+02  0.41800000000E+01 0. -1.
        -11    1    1    2    0    0  0.12134397405E+02  0.20463772375E+02 -0.10926616886E+02  0.26180155401E+02  0.00000000000E+00 0.  1.
         11    1    1    2    0    0 -0.43382792799E+02 -0.58904182346E+01  0.92095479132E+02  0.10197225610E+03  0.00000000000E+00 0. -1.
</event>
<event>
 7    1  0.2732144E-009  0.1137580E+03  0.7561462E-02  0.1253765E+00
          2   -1    0    0  501    0  0.00000000000E+00  0.00000000000E+00  0.60541936538E+03  0.60541936538E+03  0.00000000000E+00 0.  1.
         -2   -1    0    0    0  501 -0.00000000000E+00 -0.00000000000E+00 -0.25385203301E+02  0.25385203301E+02  0.00000000000E+00 0. -1.
         25    2    1    2    0    0 -0.53694056264E+02 -0.26419086705E+02  0.30206211330E+03  0.33237571239E+03  0.12510425283E+03 0.  0.
          5    1    3    3  502    0 -0.47983224747E+02  0.39302187793E+02  0.83910066419E+02  0.10442903556E+03  0.41800000000E+01 0. -1.
         -5    1    3    3    0  502 -0.57108315172E+01 -0.65721274498E+02  0.21815204688E+03  0.22794667683E+03  0.41800000000E+01 0. -1.
        -11    1    1    2    0    0  0.60311924235E+02  0.47743422521E+02  0.25518439848E+03  0.26652587084E+03  0.00000000000E+00 0.  1.
         11    1    1    2    0    0 -0.66178679701E+01 -0.21324335816E+02  0.22787650296E+02  0.31902985448E+02  0.00000000000E+00 0. -1.
</event>
<event>
 7    1  0.2732144E-009  0.1198062E+03  0.7561462E-02  0.1243417E+00
         -1   -1    0    0    0  501 -0.00000000000E+00  0.00000000000E+00  0.47317580010E+03  0.47317580010E+03  0.00000000000E+00 0.  1.
          1   -1    0    0  501    0  0.00000000000E+00 -0.00000000000E+00 -0.52803553298E+02  0.52803553298E+02  0.00000000000E+00 0. -1.
         25    2    1    2    0    0  0.87411290615E+02  0.72989413430E+02  0.24515965114E+03  0.29785713864E+03  0.12508969698E+03 0.  0.
          5    1    3    3  502    0  0.85336648917E+02  0.68950055079E+02  0.25975819005E+03  0.28200752373E+03  0.41800000000E+01 0. -1.
         -5    1    3    3    0  502  0.20746416979E+01  0.40393583518E+01 -0.14598538916E+02  0.15849614902E+02  0.41800000000E+01 0. -1.
        -11    1    1    2    0    0 -0.65935139412E+02 -0.77450682590E+02  0.77225150148E+02  0.12770972813E+03  0.00000000000E+00 0. -1.
         11    1    1    2    0    0 -0.21476151203E+02  0.44612691595E+01  0.97987445514E+02  0.10041248663E+03  0.00000000000E+00 0.  1.
</event>
<event>
 7    1  0.2732144E-009  0.7225480E+02  0.7561462E-02  0.1352589E+00
         -1   -1    0    0    0  501 -0.00000000000E+00  0.00000000000E+00  0.17390015502E+03  0.17390015502E+03  0.00000000000E+00 0.  1.
          1   -1    0    0  501    0  0.00000000000E+00 -0.00000000000E+00 -0.75935604720E+02  0.75935604720E+02  0.00000000000E+00 0. -1.
         25    2    1    2    0    0  0.37085438526E+02 -0.17344198952E+01  0.47746912094E+02  0.13894282908E+03  0.12508798574E+03 0.  0.
          5    1    3    3  502    0  0.70359735908E+01 -0.23320857748E+02 -0.38074116795E+02  0.45392489469E+02  0.41800000000E+01 0. -1.
         -5    1    3    3    0  502  0.30049464935E+02  0.21586437853E+02  0.85821028889E+02  0.93550339612E+02  0.41800000000E+01 0. -1.
        -11    1    1    2    0    0 -0.53838416732E+02 -0.17912437947E+02  0.60642665062E+02  0.83047958285E+02  0.00000000000E+00 0. -1.
         11    1    1    2    0    0  0.16752978207E+02  0.19646857842E+02 -0.10425026852E+02  0.27844972378E+02  0.00000000000E+00 0.  1.
</event>
<event>
 7    1  0.2732144E-009  0.1099492E+03  0.7561462E-02  0.1260664E+00
          3   -1    0    0  501    0  0.00000000000E+00  0.00000000000E+00  0.27651307785E+02  0.27651307785E+02  0.00000000000E+00 0. -1.
         -3   -1    0    0    0  501 -0.00000000000E+00 -0.00000000000E+00 -0.76819323298E+03  0.76819323298E+03  0.00000000000E+00 0.  1.
         25    2    1    2    0    0  0.28007614436E+01  0.42427879859E+02 -0.63807795512E+03  0.65161252152E+03  0.12508969637E+03 0.  0.
          5    1    3    3  502    0  0.45848662757E+01 -0.37663207696E+02 -0.90955067805E+02  0.98639925853E+02  0.41800000000E+01 0. -1.
         -5    1    3    3    0  502 -0.17841048321E+01  0.80091087555E+02 -0.54712288731E+03  0.55297259566E+03  0.41800000000E+01 0. -1.
        -11    1    1    2    0    0 -0.41006633658E+02  0.42059286933E+01 -0.41910996628E+02  0.58785759147E+02  0.00000000000E+00 0.  1.
         11    1    1    2    0    0  0.38205872214E+02 -0.46633808552E+02 -0.60552973455E+02  0.85446260105E+02  0.00000000000E+00 0. -1.
</event>
<event>
 7    1  0.2732144E-009  0.1029048E+03  0.7561462E-02  0.1274304E+00
         -3   -1    0    0    0  501 -0.00000000000E+00  0.00000000000E+00  0.32166067754E+03  0.32166067754E+03  0.00000000000E+00 0.  1.
          3   -1    0    0  501    0  0.00000000000E+00 -0.00000000000E+00 -0.53290998331E+02  0.53290998331E+02  0.00000000000E+00 0. -1.
         25    2    1    2    0    0 -0.72407608462E+02  0.11928105223E+02  0.14210297817E+03  0.20304139472E+03  0.12508960831E+03 0.  0.
          5    1    3    3  502    0 -0.23065669185E+02 -0.24125226107E+02 -0.13169167798E+02  0.36124105666E+02  0.41800000000E+01 0.  1.
         -5    1    3    3    0  502 -0.49341939277E+02  0.36053331330E+02  0.15527214596E+03  0.16691728905E+03  0.41800000000E+01 0.  1.
        -11    1    1    2    0    0  0.14949987081E+02  0.34141991508E+02  0.69726221711E+02  0.79062783229E+02  0.00000000000E+00 0.  1.
         11    1    1    2    0    0  0.57457621381E+02 -0.46070096731E+02  0.56540479328E+02  0.92847497921E+02  0.00000000000E+00 0. -1.
</event>
<event>
 7    1  0.2732144E-009  0.1943730E+03  0.7561462E-02  0.1154575E+00
          1   -1    0    0  501    0  0.00000000000E+00  0.00000000000E+00  0.27719417705E+04  0.27719417705E+04  0.00000000000E+00 0. -1.
         -1   -1    0    0    0  501 -0.00000000000E+00 -0.00000000000E+00 -0.22815451895E+02  0.22815451895E+02  0.00000000000E+00 0.  1.
         25    2    1    2    0    0 -0.17485152669E+03  0.19390683070E+02  0.22155569902E+04  0.22260480470E+04  0.12509226856E+03 0.  0.
          5    1    3    3  502    0 -0.10375888203E+03 -0.48335004633E+02  0.13758374914E+04  0.13805971366E+04  0.41800000000E+01 0. -1.
         -5    1    3    3    0  502 -0.71092644656E+02  0.67725687702E+02  0.83971949876E+03  0.84545091040E+03  0.41800000000E+01 0. -1.
        -11    1    1    2    0    0  0.53085633022E+02 -0.64619457090E+01  0.63825876720E+02  0.83268143457E+02  0.00000000000E+00 0.  1.
         11    1    1    2    0    0  0.12176589366E+03 -0.12928737361E+02  0.46974345165E+03  0.48544103193E+03  0.00000000000E+00 0. -1.
</event>
<event>
 7    1  0.2732144E-009  0.8494667E+02  0.7561462E-02  0.1315572E+00
          2   -1    0    0  501    0  0.00000000000E+00  0.00000000000E+00  0.44710149890E+03  0.44710149890E+03  0.00000000000E+00 0. -1.
         -2   -1    0    0    0  501 -0.00000000000E+00 -0.00000000000E+00 -0.25547782761E+02  0.25547782761E+02  0.00000000000E+00 0.  1.
         25    2    1    2    0    0  0.43021188268E+02 -0.13123231459E+02  0.22742213292E+03  0.26342128505E+03  0.12508758944E+03 0.  0.
          5    1    3    3  502    0  0.66849584488E+02  0.21921528883E+02  0.66277681091E+02  0.96745148641E+02  0.41800000000E+01 0.  1.
         -5    1    3    3    0  502 -0.23828396220E+02 -0.35044760343E+02  0.16114445183E+03  0.16667613641E+03  0.41800000000E+01 0.  1.
        -11    1    1    2    0    0 -0.31570531140E+01 -0.10179431697E+02  0.10586745068E+01  0.10710210350E+02  0.00000000000E+00 0.  1.
         11    1    1    2    0    0 -0.39864135154E+02  0.23302663156E+02  0.19307290872E+03  0.19851778626E+03  0.00000000000E+00 0. -1.
</event>
<event>
 7    1  0.2732144E-009  0.1376904E+03  0.7561462E-02  0.1216471E+00
         -2   -1    0    0    0  501 -0.00000000000E+00  0.00000000000E+00  0.14618992981E+03  0.14618992981E+03  0.00000000000E+00 0. -1.
          2   -1    0    0  501    0  0.00000000000E+00 -0.00000000000E+00 -0.14138877992E+03  0.14138877992E+03  0.00000000000E+00 0.  1.
         25    2    1    2    0    0  0.82523724934E+02 -0.43649678091E+02  0.14190358593E+02  0.15673103380E+03  0.12509113119E+03 0.  0.
          5    1    3    3  502    0  0.97214551977E+02 -0.70713936146E+02 -0.46749198911E+01  0.12037631477E+03  0.41800000000E+01 0. -1.
         -5    1    3    3    0  502 -0.14690827043E+02  0.27064258055E+02  0.18865278484E+02  0.36354719027E+02  0.41800000000E+01 0. -1.
        -11    1    1    2    0    0 -0.19103614696E+02 -0.24405904974E+02 -0.20502443117E+02  0.37161088060E+02  0.00000000000E+00 0.  1.
         11    1    1    2    0    0 -0.63420110239E+02  0.68055583065E+02  0.11113234413E+02  0.93686587878E+02  0.00000000000E+00 0. -1.
</event>
<event>
 7    1  0.2732144E-009  0.8383438E+02  0.7561462E-02  0.1318509E+00
          1   -1    0    0  501    0  0.00000000000E+00  0.00000000000E+00  0.66486723392E+03  0.66486723392E+03  0.00000000000E+00 0. -1.
         -1   -1    0    0    0  501 -0.00000000000E+00 -0.00000000000E+00 -0.20411874996E+02  0.20411874996E+02  0.00000000000E+00 0.  1.
         25    2    1    2    0    0  0.33234355289E+02 -0.17849374560E+02  0.40348400587E+03  0.42411009597E+03  0.12508760118E+03 0.  0.
          5    1    3    3  502    0  0.58983835981E+02 -0.82246489018E+01  0.38743007094E+03  0.39200289543E+03  0.41800000000E+01 0.  1.
         -5    1    3    3    0  502 -0.25749480692E+02 -0.96247256586E+01  0.16053934931E+02  0.32107200543E+02  0.41800000000E+01 0.  1.
        -11    1    1    2    0    0  0.20417068638E+02 -0.62423014631E+01  0.11438106218E+02  0.24220926762E+02  0.00000000000E+00 0.  1.
         11    1    1    2    0    0 -0.53651423927E+02  0.24091676023E+02  0.22953324684E+03  0.23694808619E+03  0.00000000000E+00 0. -1.
</event>
<event>
 7    1  0.2732144E-009  0.1153025E+03  0.7561462E-02  0.1251054E+00
          3   -1    0    0  501    0  0.00000000000E+00  0.00000000000E+00  0.43459297948E+03  0.43459297948E+03  0.00000000000E+00 0. -1.
         -3   -1    0    0    0  501 -0.00000000000E+00 -0.00000000000E+00 -0.32664958046E+02  0.32664958046E+02  0.00000000000E+00 0.  1.
         25    2    1    2    0    0 -0.46537089200E+02  0.11050697333E+02  0.24775323207E+03  0.28163192148E+03  0.12508819533E+03 0.  0.
          5    1    3    3  502    0 -0.74808131928E+02  0.46624958676E+02  0.15994135824E+03  0.18267143687E+03  0.41800000000E+01 0.  1.
         -5    1    3    3    0  502  0.28271042728E+02 -0.35574261343E+02  0.87811873834E+02  0.98960484605E+02  0.41800000000E+01 0.  1.
        -11    1    1    2    0    0  0.15016591400E+01 -0.42034668225E+02  0.10080744542E+03  0.10923053312E+03  0.00000000000E+00 0. -1.
         11    1    1    2    0    0  0.45035430060E+02  0.30983970892E+02  0.53367343942E+02  0.76395482931E+02  0.00000000000E+00 0.  1.
</event>
<event>
 7    1  0.2732144E-009  0.2656981E+03  0.7561462E-02  0.1103767E+00
          2   -1    0    0  501    0  0.00000000000E+00  0.00000000000E+00  0.95693678590E+03  0.95693678590E+03  0.00000000000E+00 0. -1.
         -2   -1    0    0    0  501 -0.00000000000E+00 -0.00000000000E+00 -0.84554415989E+02  0.84554415989E+02  0.00000000000E+00 0.  1.
         25    2    1    2    0    0  0.24777319864E+03 -0.14425977350E+01  0.28700517079E+03  0.39926619810E+03  0.12509152583E+03 0.  0.
          5    1    3    3  502    0  0.14893261650E+03 -0.61887515497E+02  0.17605669352E+03  0.23879786550E+03  0.41800000000E+01 0.  1.
         -5    1    3    3    0  502  0.98840582137E+02  0.60444917762E+02  0.11094847727E+03  0.16046833260E+03  0.41800000000E+01 0.  1.
        -11    1    1    2    0    0 -0.15887644132E+03 -0.26225893527E+02  0.44982911980E+03  0.47778212410E+03  0.00000000000E+00 0.  1.
         11    1    1    2    0    0 -0.88896757317E+02  0.27668491262E+02  0.13554807933E+03  0.16444287969E+03  0.00000000000E+00 0. -1.
</event>
<event>
 7    1  0.2732144E-009  0.9768805E+02  0.7561462E-02  0.1285234E+00
          2   -1    0    0  501    0  0.00000000000E+00  0.00000000000E+00  0.64321757269E+03  0.64321757269E+03  0.00000000000E+00 0. -1.
         -2   -1    0    0    0  501 -0.00000000000E+00 -0.00000000000E+00 -0.20773237745E+02  0.20773237745E+02  0.00000000000E+00 0.  1.
         25    2    1    2    0    0 -0.23365351118E+02  0.15600046624E+02  0.43629948182E+03  0.45474522280E+03  0.12508668487E+03 0.  0.
          5    1    3    3  502    0 -0.73375335827E+02  0.39800352448E+01  0.20596441069E+03  0.21872034990E+03  0.41800000000E+01 0.  1.
         -5    1    3    3    0  502  0.50009984708E+02  0.11620011380E+02  0.23033507113E+03  0.23602487290E+03  0.41800000000E+01 0.  1.
        -11    1    1    2    0    0  0.18924770454E+02 -0.40640556659E+02  0.37517582945E+02  0.58458282666E+02  0.00000000000E+00 0.  1.
         11    1    1    2    0    0  0.44405806648E+01  0.25040510034E+02  0.14862727018E+03  0.15078730497E+03  0.00000000000E+00 0. -1.
</event>
<event>
 7    1  0.2732144E-009  0.1151795E+03  0.7561462E-02  0.1251268E+00
          2   -1    0    0  501    0  0.00000000000E+00  0.00000000000E+00  0.53933553458E+03  0.53933553458E+03  0.00000000000E+00 0. -1.
         -2   -1    0    0    0  501 -0.00000000000E+00 -0.00000000000E+00 -0.31452322744E+02  0.31452322744E+02  0.00000000000E+00 0.  1.
         25    2    1    2    0    0  0.13348651389E+01  0.69355995027E+02  0.32802518871E+03  0.35784851302E+03  0.12507197101E+03 0.  0.
          5    1    3    3  502    0  0.58071874694E+02  0.59246889621E+02  0.22314817571E+03  0.23810736504E+03  0.41800000000E+01 0.  1.
         -5    1    3    3    0  502 -0.56737009556E+02  0.10109105406E+02  0.10487701300E+03  0.11974114799E+03  0.41800000000E+01 0.  1.
        -11    1    1    2    0    0 -0.27963237885E+02 -0.47240406994E+02  0.37619142279E+02  0.66549219317E+02  0.00000000000E+00 0.  1.
         11    1    1    2    0    0  0.26628372746E+02 -0.22115588033E+02  0.14223888084E+03  0.14639012498E+03  0.00000000000E+00 0. -1.
</event>
<event>
 7    1  0.2732144E-009  0.1454812E+03  0.7561462E-02  0.1206138E+00
          1   -1    0    0  501    0  0.00000000000E+00  0.00000000000E+00  0.66358153294E+03  0.66358153294E+03  0.00000000000E+00 0. -1.
         -1   -1    0    0    0  501 -0.00000000000E+00 -0.00000000000E+00 -0.33400760570E+02  0.33400760570E+02  0.00000000000E+00 0.  1.
         25    2    1    2    0    0 -0.50757504799E+02 -0.87852918833E+02  0.35508875756E+03  0.38990994319E+03  0.12508908193E+03 0.  0.
          5    1    3    3  502    0  0.39125487557E+02 -0.48991322599E+02  0.12900712543E+03  0.14349656539E+03  0.41800000000E+01 0. -1.
         -5    1    3    3    0  502 -0.89882992356E+02 -0.38861596234E+02  0.22608163212E+03  0.24641337780E+03  0.41800000000E+01 0. -1.
        -11    1    1    2    0    0  0.35434487286E+02  0.10278224927E+03  0.18595870600E+03  0.21540759966E+03  0.00000000000E+00 0.  1.
         11    1    1    2    0    0  0.15323017513E+02 -0.14929330435E+02  0.89133308812E+02  0.91664750656E+02  0.00000000000E+00 0. -1.
</event>
<event>
 6    1  0.3676737E-009  0.1594719E+03  0.7561462E-02  0.1189294E+00
         -2   -1    0    0    0  501 -0.00000000000E+00  0.00000000000E+00  0.51223583928E+02  0.51223583928E+02  0.00000000000E+00 0.  1.
          2   -1    0    0  501    0  0.00000000000E+00 -0.00000000000E+00 -0.62540638744E+03  0.62540638744E+03  0.00000000000E+00 0. -1.
          5    1    1    2  502    0 -0.87856343351E+02  0.75605541343E+02 -0.30999688486E+03  0.33098410229E+03  0.41800000000E+01 0. -1.
         -5    1    1    2    0  502  0.18889969163E+02  0.46525021129E+02 -0.33419672955E+02  0.60462843685E+02  0.41800000000E+01 0. -1.
        -11    1    1    2    0    0  0.67081221861E+02 -0.58772316922E+02 -0.18980336204E+03  0.20971264103E+03  0.00000000000E+00 0. -1.
         11    1    1    2    0    0  0.18851523268E+01 -0.63358245550E+02 -0.40962883651E+02  0.75470384360E+02  0.00000000000E+00 0.  1.
</event>
<event>
 7    1  0.2732144E-009  0.1544410E+03  0.7561462E-02  0.1195120E+00
         -2   -1    0    0    0  501 -0.00000000000E+00  0.00000000000E+00  0.19432755542E+03  0.19432755542E+03  0.00000000000E+00 0.  1.
          2   -1    0    0  501    0  0.00000000000E+00 -0.00000000000E+00 -0.17896889819E+03  0.17896889819E+03  0.00000000000E+00 0. -1.
         25    2    1    2    0    0 -0.12146155914E+03  0.65237297284E+02 -0.51525356359E+02  0.19316061924E+03  0.12508935676E+03 0.  0.
          5    1    3    3  502    0 -0.83813458268E+02  0.19853967303E+02  0.31008996270E+02  0.91640089776E+02  0.41800000000E+01 0.  1.
         -5    1    3    3    0  502 -0.37648100868E+02  0.45383329981E+02 -0.82534352629E+02  0.10152052947E+03  0.41800000000E+01 0.  1.
        -11    1    1    2    0    0  0.90830124523E+02 -0.87144686553E+02  0.66747290586E+02  0.14247634441E+03  0.00000000000E+00 0.  1.
         11    1    1    2    0    0  0.30631434613E+02  0.21907389269E+02  0.13672299717E+00  0.37659489962E+02  0.00000000000E+00 0. -1.
</event>
<event>
 7    1  0.2732144E-009  0.1137635E+03  0.7561462E-02  0.1253755E+00
         -4   -1    0    0    0  501 -0.00000000000E+00  0.00000000000E+00  0.86374834852E+02  0.86374834852E+02  0.00000000000E+00 0.  1.
          4   -1    0    0  501    0  0.00000000000E+00 -0.00000000000E+00 -0.19942503529E+03  0.19942503529E+03  0.00000000000E+00 0. -1.
         25    2    1    2    0    0  0.47004447122E+01 -0.47249624518E+02 -0.17239209925E+01  0.13380593331E+03  0.12508570936E+03 0.  0.
          5    1    3    3  502    0 -0.32468420190E+02 -0.77810002953E+02 -0.92550711787E+01  0.84921867689E+02  0.41800000000E+01 0.  1.
         -5    1    3    3    0  502  0.37168864902E+02  0.30560378435E+02  0.75311501862E+01  0.48884065618E+02  0.41800000000E+01 0.  1.
        -11    1    1    2    0    0  0.28369736954E+02 -0.88249423545E+01 -0.66840119749E+02  0.73145903443E+02  0.00000000000E+00 0. -1.
         11    1    1    2    0    0 -0.33070181666E+02  0.56074566873E+02 -0.44486159697E+02  0.78848033393E+02  0.00000000000E+00 0.  1.
</event>
<event>
 7    1  0.2732144E-009  0.1253846E+03  0.7561462E-02  0.1234469E+00
          2   -1    0    0  501    0  0.00000000000E+00  0.00000000000E+00  0.42754222683E+02  0.42754222683E+02  0.00000000000E+00 0. -1.
         -2   -1    0    0    0  501 -0.00000000000E+00 -0.00000000000E+00 -0.82553590820E+03  0.82553590820E+03  0.00000000000E+00 0.  1.
         25    2    1    2    0    0 -0.19307803790E+01  0.83934108506E+02 -0.70759101593E+03  0.72345009767E+03  0.12508531293E+03 0.  0.
          5    1    3    3  502    0  0.58600875307E+02  0.63242194140E+02 -0.42529059280E+03  0.43396220853E+03  0.41800000000E+01 0.  1.
         -5    1    3    3    0  502 -0.60531655686E+02  0.20691914367E+02 -0.28230042313E+03  0.28948788914E+03  0.41800000000E+01 0.  1.
        -11    1    1    2    0    0  0.27339081433E+02 -0.57546773546E+02 -0.85647416484E+02  0.10674519413E+03  0.00000000000E+00 0.  1.
         11    1    1    2    0    0 -0.25408301054E+02 -0.26387334961E+02  0.10456746902E+02  0.38094839080E+02  0.00000000000E+00 0. -1.
</event>
<event>
 7    1  0.4506593E-009  0.1299981E+03  0.7561462E-02  0.1227459E+00
         -1   -1    0    0    0  501 -0.00000000000E+00  0.00000000000E+00  0.52763235047E+02  0.52763235047E+02  0.00000000000E+00 0.  1.
          1   -1    0    0  501    0  0.00000000000E+00 -0.00000000000E+00 -0.48323277049E+03  0.48323277049E+03  0.00000000000E+00 0. -1.
         25    2    1    2    0    0 -0.10384414105E+03 -0.53209679204E+02 -0.22817020064E+03  0.28517414149E+03  0.12509106650E+03 0.  0.
          5    1    3    3  502    0 -0.23310643309E+02 -0.12725008181E+02  0.11379140880E+02  0.29193649512E+02  0.41800000000E+01 0.  1.
         -5    1    3    3    0  502 -0.80533497740E+02 -0.40484671023E+02 -0.23954934152E+03  0.25598049197E+03  0.41800000000E+01 0.  1.
        -11    1    1    2    0    0  0.75536665332E+02 -0.74849463599E+01 -0.73544780396E+02  0.10569128136E+03  0.00000000000E+00 0.  1.
         11    1    1    2    0    0  0.28307475718E+02  0.60694625563E+02 -0.12875455441E+03  0.14513058270E+03  0.00000000000E+00 0. -1.
</event>
<event>
 7    1  0.2732144E-009  0.1232816E+03  0.7561462E-02  0.1237780E+00
          1   -1    0    0  501    0  0.00000000000E+00  0.00000000000E+00  0.37792120110E+03  0.37792120110E+03  0.00000000000E+00 0. -1.
         -1   -1    0    0    0  501 -0.00000000000E+00 -0.00000000000E+00 -0.49050136710E+02  0.49050136710E+02  0.00000000000E+00 0.  1.
         25    2    1    2    0    0 -0.29299199733E+02 -0.47906511727E+02  0.89700046272E+02  0.16385141216E+03  0.12509080699E+03 0.  0.
          5    1    3    3  502    0 -0.77820607973E+02 -0.18682892725E+02  0.48338519273E+02  0.93590503532E+02  0.41800000000E+01 0. -1.
         -5    1    3    3    0  502  0.48521408240E+02 -0.29223619002E+02  0.41361527000E+02  0.70260908625E+02  0.41800000000E+01 0. -1.
        -11    1    1    2    0    0 -0.34146100887E+02  0.94266586076E+01  0.81126623323E+02  0.88523144488E+02  0.00000000000E+00 0.  1.
         11    1    1    2    0    0  0.63445300620E+02  0.38479853119E+02  0.15804439479E+03  0.17459678116E+03  0.00000000000E+00 0. -1.
</event>
<event>
 7    1  0.2732144E-009  0.1031744E+03  0.7561462E-02  0.1273759E+00
         -3   -1    0    0    0  501 -0.00000000000E+00  0.00000000000E+00  0.14715897742E+03  0.14715897742E+03  0.00000000000E+00 0.  1.
          3   -1    0    0  501    0  0.00000000000E+00 -0.00000000000E+00 -0.10546623086E+03  0.10546623086E+03  0.00000000000E+00 0. -1.
         25    2    1    2    0    0  0.49070942707E+02 -0.20685218167E+02  0.78211843726E+02  0.15684384723E+03  0.12508822585E+03 0.  0.
          5    1    3    3  502    0  0.88728636952E+02 -0.78226859637E+01  0.32690386819E+02  0.94974202926E+02  0.41800000000E+01 0.  1.
         -5    1    3    3    0  502 -0.39657694245E+02 -0.12862532204E+02  0.45521456907E+02  0.61869644305E+02  0.41800000000E+01 0.  1.
        -11    1    1    2    0    0 -0.32684981273E+02 -0.15035701380E+02  0.75216419224E+01  0.36755345380E+02  0.00000000000E+00 0.  1.
         11    1    1    2    0    0 -0.16385961434E+02  0.35720919547E+02 -0.44040739092E+02  0.59026015664E+02  0.00000000000E+00 0. -1.
</event>
<event>
 7    1  0.2732144E-009  0.1082355E+03  0.7561462E-02  0.1263873E+00
         -2   -1    0    0    0  501 -0.00000000000E+00  0.00000000000E+00  0.28951865990E+03  0.28951865990E+03  0.00000000000E+00 0.  1.
          2   -1    0    0  501    0  0.00000000000E+00 -0.00000000000E+00 -0.70494665535E+02  0.70494665535E+02  0.00000000000E+00 0. -1.
         25    2    1    2    0    0 -0.83572329062E+02  0.42032142959E+02  0.11937771354E+03  0.19659450552E+03  0.12508927165E+03 0.  0.
          5    1    3    3  502    0 -0.42395520209E+02  0.27745704550E+02 -0.16805767856E+02  0.53545405853E+02  0.41800000000E+01 0.  1.
         -5    1    3    3    0  502 -0.41176808853E+02  0.14286438409E+02  0.13618348140E+03  0.14304909966E+03  0.41800000000E+01 0.  1.
        -11    1    1    2    0    0  0.68080991415E+02  0.88542775760E+01  0.27904138333E+02  0.74108437843E+02  0.00000000000E+00 0.  1.
         11    1    1    2    0    0  0.15491337646E+02 -0.50886420535E+02  0.71742142494E+02  0.89310382076E+02  0.00000000000E+00 0. -1.
</event>
<event>
 7    1  0.2732144E-009  0.1154782E+03  0.7561462E-02  0.1250749E+00
          2   -1    0    0  501    0  0.00000000000E+00  0.00000000000E+00  0.18278349531E+03  0.18278349531E+03  0.00000000000E+00 0.  1.
         -2   -1    0    0    0  501 -0.00000000000E+00 -0.00000000000E+00 -0.77587749805E+02  0.77587749805E+02  0.00000000000E+00 0. -1.
         25    2    1    2    0    0 -0.40206420884E+02  0.29208572087E+02  0.71451924167E+02  0.15239734778E+03  0.12509946914E+03 0.  0.
          5    1    3    3  502    0 -0.72232238420E+02 -0.18134667722E+02  0.55299474214E+02  0.92854007393E+02  0.41800000000E+01 0.  1.
         -5    1    3    3    0  502  0.32025817536E+02  0.47343239810E+02  0.16152449953E+02  0.59543340383E+02  0.41800000000E+01 0.  1.
        -11    1    1    2    0    0  0.67280313949E+02 -0.17245148976E+02  0.36107823698E+02  0.78280334315E+02  0.00000000000E+00 0.  1.
         11    1    1    2    0    0 -0.27073893065E+02 -0.11963423111E+02 -0.23640023561E+01  0.29693563029E+02  0.00000000000E+00 0. -1.
</event>
<event>
 7    1  0.2732144E-009  0.1237543E+03  0.7561462E-02  0.1237029E+00
         -2   -1    0    0    0  501 -0.00000000000E+00  0.00000000000E+00  0.27831506333E+02  0.27831506333E+02  0.00000000000E+00 0.  1.
          2   -1    0    0  501    0  0.00000000000E+00 -0.00000000000E+00 -0.91722107881E+03  0.91722107881E+03  0.00000000000E+00 0. -1.
         25    2    1    2    0    0 -0.12935976783E+02 -0.10476744004E+03 -0.59131697495E+03  0.61355523789E+03  0.12510279412E+03 0.  0.
          5    1    3    3  502    0 -0.48482900168E+02 -0.25553479191E+02 -0.95595348326E+02  0.11027019057E+03  0.41800000000E+01 0. -1.
         -5    1    3    3    0  502  0.35546923385E+02 -0.79213960846E+02 -0.49572162662E+03  0.50328504732E+03  0.41800000000E+01 0. -1.
        -11    1    1    2    0    0  0.37154399138E+01  0.44035219027E+02 -0.24895414339E+03  0.25284594226E+03  0.00000000000E+00 0. -1.
         11    1    1    2    0    0  0.92205368697E+01  0.60732221011E+02 -0.49118454137E+02  0.78651404984E+02  0.00000000000E+00 0.  1.
</event>
<event>
 7    1  0.2732144E-009  0.9777100E+02  0.7561462E-02  0.1285054E+00
          3   -1    0    0  501    0  0.00000000000E+00  0.00000000000E+00  0.11051263504E+03  0.11051263504E+03  0.00000000000E+00 0. -1.
         -3   -1    0    0    0  501 -0.00000000000E+00 -0.00000000000E+00 -0.27469682960E+03  0.27469682960E+03  0.00000000000E+00 0.  1.
         25    2    1    2    0    0 -0.52742480462E+02  0.69455352667E+02 -0.20521592752E+03  0.25567260564E+03  0.12509631933E+03 0.  0.
          5    1    3    3  502    0 -0.61418902971E+02  0.32916105538E+02 -0.29239137378E+02  0.75684550606E+02  0.41800000000E+01 0.  1.
         -5    1    3    3    0  502  0.86764225086E+01  0.36539247130E+02 -0.17597679014E+03  0.17998805504E+03  0.41800000000E+01 0.  1.
        -11    1    1    2    0    0  0.26512527727E+02 -0.25657140053E+02  0.63751491482E+02  0.73657692255E+02  0.00000000000E+00 0. -1.
         11    1    1    2    0    0  0.26229952735E+02 -0.43798212615E+02 -0.22719758522E+02  0.55879166744E+02  0.00000000000E+00 0.  1.
</event>
<event>
 7    1  0.2732144E-009  0.1136472E+03  0.7561462E-02  0.1253961E+00
          4   -1    0    0  501    0  0.00000000000E+00  0.00000000000E+00  0.10821156864E+03  0.10821156864E+03  0.00000000000E+00 0. -1.
         -4   -1    0    0    0  501 -0.00000000000E+00 -0.00000000000E+00 -0.19993282333E+03  0.19993282333E+03  0.00000000000E+00 0.  1.
         25    2    1    2    0    0 -0.91973431830E+02 -0.21913062035E+02 -0.76239738902E+02  0.17435412768E+03  0.12509024582E+03 0.  0.
          5    1    3    3  502    0 -0.64436867420E+02 -0.14989880125E+02  0.23681938419E+02  0.70392563502E+02  0.41800000000E+01 0.  1.
         -5    1    3    3    0  502 -0.27536564411E+02 -0.69231819106E+01 -0.99921677321E+02  0.10396156418E+03  0.41800000000E+01 0.  1.
        -11    1    1    2    0    0  0.10037300137E+03 -0.85206466753E+01 -0.63934160470E+01  0.10093669597E+03  0.00000000000E+00 0.  1.
         11    1    1    2    0    0 -0.83995695432E+01  0.30433708711E+02 -0.90880997360E+01  0.32853568318E+02  0.00000000000E+00 0. -1.
</event>
<event>
 7    1  0.2732144E-009  0.7249059E+02  0.7561462E-02  0.1351823E+00
         -1   -1    0    0    0  501 -0.00000000000E+00  0.00000000000E+00  0.23572021481E+02  0.23572021481E+02  0.00000000000E+00 0.  1.
          1   -1    0    0  501    0  0.00000000000E+00 -0.00000000000E+00 -0.54749304963E+03  0.54749304963E+03  0.00000000000E+00 0. -1.
         25    2    1    2    0    0 -0.19936755831E+02  0.57905690071E+01 -0.23332584379E+03  0.26555180303E+03  0.12508319546E+03 0.  0.
          5    1    3    3  502    0 -0.36735069437E+02  0.16720910829E+02 -0.10670121840E+02  0.41956859815E+02  0.41800000000E+01 0.  1.
         -5    1    3    3    0  502  0.16798313606E+02 -0.10930341822E+02 -0.22265572195E+03  0.22359494321E+03  0.41800000000E+01 0.  1.
        -11    1    1    2    0    0 -0.30753312169E+02  0.72378568318E+01 -0.48914000022E+02  0.58229993809E+02  0.00000000000E+00 0.  1.
         11    1    1    2    0    0  0.50690068000E+02 -0.13028425839E+02 -0.24168118433E+03  0.24728327427E+03  0.00000000000E+00 0. -1.
</event>
<event>
 7    1  0.2732144E-009  0.1144320E+03  0.7561462E-02  0.1252576E+00
         -2   -1    0    0    0  501 -0.00000000000E+00  0.00000000000E+00  0.19080174993E+03  0.19080174993E+03  0.00000000000E+00 0. -1.
          2   -1    0    0  501    0  0.00000000000E+00 -0.00000000000E+00 -0.94228126337E+02  0.94228126337E+02  0.00000000000E+00 0.  1.
         25    2    1    2    0    0 -0.95061759530E+00  0.77395224620E+02  0.65317794087E+02  0.16095155752E+03  0.12509222668E+03 0.  0.
          5    1    3    3  502    0  0.29196594441E+02  0.74454498558E+02  0.90855898245E+02  0.12111226250E+03  0.41800000000E+01 0.  1.
         -5    1    3    3    0  502 -0.30147212036E+02  0.29407260629E+01 -0.25538104158E+02  0.39839295015E+02  0.41800000000E+01 0.  1.
        -11    1    1    2    0    0 -0.37953975846E+02 -0.68473358744E+02  0.30889492674E+02  0.84162140525E+02  0.00000000000E+00 0. -1.
         11    1    1    2    0    0  0.38904593441E+02 -0.89218658768E+01  0.36633683394E+00  0.39916178227E+02  0.00000000000E+00 0.  1.
</event>
<event>
 7    1  0.2732144E-009  0.2738649E+03  0.7561462E-02  0.1099088E+00
          2   -1    0    0  501    0  0.00000000000E+00  0.00000000000E+00  0.11971989254E+04  0.11971989254E+04  0.00000000000E+00 0. -1.
         -2   -1    0    0    0  501 -0.00000000000E+00 -0.00000000000E+00 -0.66046359408E+02  0.66046359408E+02  0.00000000000E+00 0.  1.
         25    2    1    2    0    0  0.37961428405E+02 -0.25638458039E+03  0.59715696255E+03  0.66289500422E+03  0.12513682746E+03 0.  0.
          5    1    3    3  502    0 -0.28422573359E+02 -0.17259676606E+03  0.30303764708E+03  0.34992395500E+03  0.41800000000E+01 0.  1.
         -5    1    3    3    0  502  0.66384001764E+02 -0.83787814334E+02  0.29411931546E+03  0.31297104922E+03  0.41800000000E+01 0.  1.
        -11    1    1    2    0    0 -0.50440991075E+02  0.14156820947E+03  0.22594516433E+03  0.27136150942E+03  0.00000000000E+00 0.  1.
         11    1    1    2    0    0  0.12479562670E+02  0.11481637093E+03  0.30805043915E+03  0.32898877120E+03  0.00000000000E+00 0. -1.
</event>
<event>
 7    1  0.2732144E-009  0.1130091E+03  0.7561462E-02  0.1255097E+00
         -1   -1    0    0    0  501 -0.00000000000E+00  0.00000000000E+00  0.18640924935E+02  0.18640924935E+02  0.00000000000E+00 0. -1.
          1   -1    0    0  501    0  0.00000000000E+00 -0.00000000000E+00 -0.76796084967E+03  0.76796084967E+03  0.00000000000E+00 0.  1.
         25    2    1    2    0    0 -0.28512230234E+02  0.37526402258E+02 -0.36535888907E+03  0.38904400670E+03  0.12508774197E+03 0.  0.
          5    1    3    3  502    0 -0.27297279516E+02  0.83152712388E+02 -0.25028145070E+03  0.26517502147E+03  0.41800000000E+01 0.  1.
         -5    1    3    3    0  502 -0.12149507181E+01 -0.45626310130E+02 -0.11507743837E+03  0.12386898523E+03  0.41800000000E+01 0.  1.
        -11    1    1    2    0    0 -0.28036374061E+02 -0.11218547605E+02 -0.55076271048E+02  0.62811541243E+02  0.00000000000E+00 0. -1.
         11    1    1    2    0    0  0.56548604296E+02 -0.26307854653E+02 -0.32888476462E+03  0.33474622666E+03  0.00000000000E+00 0.  1.
</event>
<event>
 7    1  0.2732144E-009  0.1045910E+03  0.7561462E-02  0.1270927E+00
         -1   -1    0    0    0  501 -0.00000000000E+00  0.00000000000E+00  0.65569589836E+02  0.65569589836E+02  0.00000000000E+00 0.  1.
          1   -1    0    0  501    0  0.00000000000E+00 -0.00000000000E+00 -0.19161269183E+03  0.19161269183E+03  0.00000000000E+00 0. -1.
         25    2    1    2    0    0 -0.24302262024E+01 -0.18050270903E+02 -0.44551737747E+02  0.13402911258E+03  0.12508887801E+03 0.  0.
          5    1    3    3  502    0  0.37577066131E+02 -0.58231515552E+02 -0.21551225717E+02  0.72697132216E+02  0.41800000000E+01 0.  1.
         -5    1    3    3    0  502 -0.40007292333E+02  0.40181244649E+02 -0.23000512030E+02  0.61331980361E+02  0.41800000000E+01 0.  1.
        -11    1    1    2    0    0  0.50027562714E+01  0.50298317846E+02 -0.21365109382E+02  0.54876372396E+02  0.00000000000E+00 0.  1.
         11    1    1    2    0    0 -0.25725300690E+01 -0.32248046943E+02 -0.60126254868E+02  0.68276796696E+02  0.00000000000E+00 0. -1.
</event>
<event>
 7    1  0.2732144E-009  0.1686849E+03  0.7561462E-02  0.1179226E+00
         -1   -1    0    0    0  501 -0.00000000000E+00  0.00000000000E+00  0.44331683405E+03  0.44331683405E+03  0.00000000000E+00 0.  1.
          1   -1    0    0  501    0  0.00000000000E+00 -0.00000000000E+00 -0.65265076878E+02  0.65265076878E+02  0.00000000000E+00 0. -1.
         25    2    1    2    0    0  0.33659093954E+02  0.12592329543E+03  0.20404948117E+03  0.27253200589E+03  0.12509153661E+03 0.  0.
          5    1    3    3  502    0 -0.27329031273E+02  0.11279009209E+03  0.15128681070E+03  0.19071877809E+03  0.41800000000E+01 0.  1.
         -5    1    3    3    0  502  0.60988125227E+02  0.13133203343E+02  0.52762670472E+02  0.81813227807E+02  0.41800000000E+01 0.  1.
        -11    1    1    2    0    0  0.27005008824E+02 -0.74310663222E+02  0.98440114153E+02  0.12626084605E+03  0.00000000000E+00 0. -1.
         11    1    1    2    0    0 -0.60664102778E+02 -0.51612632213E+02  0.75562161850E+02  0.10978905899E+03  0.00000000000E+00 0.  1.
</event>
<event>
 7    1  0.3409926E-009  0.1286040E+03  0.7561462E-02  0.1229542E+00
         -1   -1    0    0    0  501 -0.00000000000E+00  0.00000000000E+00  0.13658538820E+02  0.13658538820E+02  0.00000000000E+00 0.  1.
          1   -1    0    0  501    0  0.00000000000E+00 -0.00000000000E+00 -0.14793307347E+04  0.14793307347E+04  0.00000000000E+00 0. -1.
         25    2    1    2    0    0 -0.39466290648E+02  0.80477038177E+02 -0.88679304073E+03  0.90004671752E+03  0.12509218539E+03 0.  0.
          5    1    3    3  502    0 -0.62536765358E+02  0.21850363179E+02 -0.69423110384E+03  0.69739700554E+03  0.41800000000E+01 0. -1.
         -5    1    3    3    0  502  0.23070474711E+02  0.58626674998E+02 -0.19256193690E+03  0.20264971198E+03  0.41800000000E+01 0. -1.
        -11    1    1    2    0    0  0.69268444955E+02 -0.58412460574E+02 -0.38173304140E+03  0.39233945495E+03  0.00000000000E+00 0.  1.
         11    1    1    2    0    0 -0.29802154307E+02 -0.22064577602E+02 -0.19714611374E+03  0.20060310105E+03  0.00000000000E+00 0. -1.
</event>
<event>
 7    1  0.2777824E-009  0.1811733E+03  0.7561462E-02  0.1166672E+00
          1   -1    0    0  501    0  0.00000000000E+00  0.00000000000E+00  0.29398590679E+03  0.29398590679E+03  0.00000000000E+00 0. -1.
         -1   -1    0    0    0  501 -0.00000000000E+00 -0.00000000000E+00 -0.13345667263E+03  0.13345667263E+03  0.00000000000E+00 0.  1.
         25    2    1    2    0    0  0.62116919863E+02 -0.14977722820E+03  0.50417746639E+02  0.21090138355E+03  0.12508283090E+03 0.  0.
          5    1    3    3  502    0  0.49524119039E+02 -0.35253709627E+02 -0.32339914392E+02  0.68984091441E+02  0.41800000000E+01 0. -1.
         -5    1    3    3    0  502  0.12592800824E+02 -0.11452351857E+03  0.82757661031E+02  0.14191729210E+03  0.41800000000E+01 0. -1.
        -11    1    1    2    0    0 -0.18532868949E+02  0.14030231514E+03  0.89140796848E+02  0.16725515994E+03  0.00000000000E+00 0.  1.
         11    1    1    2    0    0 -0.43584050915E+02  0.94749130638E+01  0.20970690671E+02  0.49286035942E+02  0.00000000000E+00 0. -1.
</event>
<event>
 7    1  0.2732144E-009  0.2132340E+03  0.7561462E-02  0.1139030E+00
          2   -1    0    0  501    0  0.00000000000E+00  0.00000000000E+00  0.67002416598E+03  0.67002416598E+03  0.00000000000E+00 0. -1.
         -2   -1    0    0    0  501 -0.00000000000E+00 -0.00000000000E+00 -0.80451507488E+02  0.80451507488E+02  0.00000000000E+00 0.  1.
         25    2    1    2    0    0  0.65761065037E+02 -0.17441095623E+03  0.44236784389E+03  0.49606500411E+03  0.12508988638E+03 0.  0.
          5    1    3    3  502    0 -0.64749999952E+01  0.14870658956E+02  0.71618354199E+02  0.73550820395E+02  0.41800000000E+01 0. -1.
         -5    1    3    3    0  502  0.72236065033E+02 -0.18928161519E+03  0.37074948969E+03  0.42251418372E+03  0.41800000000E+01 0. -1.
        -11    1    1    2    0    0 -0.57055842096E+01  0.13527856962E+03  0.88464166682E+02  0.16173668067E+03  0.00000000000E+00 0. -1.
         11    1    1    2    0    0 -0.60055480828E+02  0.39132386617E+02  0.58740647930E+02  0.92673988686E+02  0.00000000000E+00 0.  1.
</event>
<event>
 7    1  0.2882320E-009  0.9770380E+02  0.7561462E-02  0.1285200E+00
          1   -1    0    0  501    0  0.00000000000E+00  0.00000000000E+00  0.81587933012E+03  0.81587933012E+03  0.00000000000E+00 0. -1.
         -1   -1    0    0    0  501 -0.00000000000E+00 -0.00000000000E+00 -0.16498307377E+02  0.16498307377E+02  0.00000000000E+00 0.  1.
         25    2    1    2    0    0  0.19587749313E+02  0.27135965375E+02  0.36967391058E+03  0.39169871418E+03  0.12509613098E+03 0.  0.
          5    1    3    3  502    0 -0.33501967317E+02  0.30743960943E+02  0.30237111512E+03  0.30579950393E+03  0.41800000000E+01 0.  1.
         -5    1    3    3    0  502  0.53089716630E+02 -0.36079955676E+01  0.67302795462E+02  0.85899210246E+02  0.41800000000E+01 0.  1.
        -11    1    1    2    0    0 -0.29035680786E+02 -0.57583353590E+02  0.32000660915E+03  0.32644010671E+03  0.00000000000E+00 0. -1.
         11    1    1    2    0    0  0.94479314731E+01  0.30447388215E+02  0.10970050301E+03  0.11423881660E+03  0.00000000000E+00 0.  1.
</event>
<event>
 7    1  0.2732144E-009  0.1687267E+03  0.7561462E-02  0.1179182E+00
          2   -1    0    0  501    0  0.00000000000E+00  0.00000000000E+00  0.10819452440E+03  0.10819452440E+03  0.00000000000E+00 0.  1.
         -2   -1    0    0    0  501 -0.00000000000E+00 -0.00000000000E+00 -0.33059204687E+03  0.33059204687E+03  0.00000000000E+00 0. -1.
         25    2    1    2    0    0 -0.12803947124E+03 -0.52985074748E+02 -0.19535612987E+03  0.27019818712E+03  0.12506605655E+03 0.  0.
          5    1    3    3  502    0 -0.13415357241E+03 -0.80571223452E+02 -0.15142498000E+03  0.21779784206E+03  0.41800000000E+01 0. -1.
         -5    1    3    3    0  502  0.61141011633E+01  0.27586148704E+02 -0.43931149865E+02  0.52400345054E+02  0.41800000000E+01 0. -1.
        -11    1    1    2    0    0  0.86182145166E+02  0.65955679636E+02  0.12909771559E+02  0.10928941405E+03  0.00000000000E+00 0.  1.
         11    1    1    2    0    0  0.41857326079E+02 -0.12970604888E+02 -0.39951164163E+02  0.59298970106E+02  0.00000000000E+00 0. -1.
</event>
<event>
 7    1  0.2732144E-009  0.1219425E+03  0.7561462E-02  0.1239926E+00
          2   -1    0    0  501    0  0.00000000000E+00  0.00000000000E+00  0.17685614612E+03  0.17685614612E+03  0.00000000000E+00 0. -1.
         -2   -1    0    0    0  501 -0.00000000000E+00 -0.00000000000E+00 -0.14373648274E+03  0.14373648274E+03  0.00000000000E+00 0.  1.
         25    2    1    2    0    0  0.93166760146E+02  0.34448708131E+02  0.77815253752E+02  0.17767857837E+03  0.12509078627E+03 0.  0.
          5    1    3    3  502    0  0.11597940034E+03  0.24337651852E+02  0.28050727438E+02  0.12185178829E+03  0.41800000000E+01 0.  1.
         -5    1    3    3    0  502 -0.22812640192E+02  0.10111056279E+02  0.49764526314E+02  0.55826790082E+02  0.41800000000E+01 0.  1.
        -11    1    1    2    0    0 -0.62823168871E+02 -0.17346571370E+02 -0.73124908658E+02  0.97953592846E+02  0.00000000000E+00 0.  1.
         11    1    1    2    0    0 -0.30343591275E+02 -0.17102136761E+02  0.28429318279E+02  0.44960457638E+02  0.00000000000E+00 0. -1.
</event>
<event>
 7    1  0.2732144E-009  0.1211647E+03  0.7561462E-02  0.1241188E+00
          2   -1    0    0  501    0  0.00000000000E+00  0.00000000000E+00  0.30504079312E+03  0.30504079312E+03  0.00000000000E+00 0. -1.
         -2   -1    0    0    0  501 -0.00000000000E+00 -0.00000000000E+00 -0.49638234380E+02  0.49638234380E+02  0.00000000000E+00 0.  1.
         25    2    1    2    0    0 -0.46208207634E+02  0.17129256978E+02  0.11990263720E+03  0.18014352887E+03  0.12508572536E+03 0.  0.
          5    1    3    3  502    0  0.51632025593E+01 -0.49646247839E+02  0.44254400759E+02  0.66838110174E+02  0.41800000000E+01 0. -1.
         -5    1    3    3    0  502 -0.51371410194E+02  0.66775504817E+02  0.75648236445E+02  0.11330541870E+03  0.41800000000E+01 0. -1.
        -11    1    1    2    0    0 -0.23149060812E+02 -0.29434798223E+02  0.31545547673E+02  0.48963332616E+02  0.00000000000E+00 0.  1.
         11    1    1    2    0    0  0.69357268446E+02  0.12305541245E+02  0.10395437386E+03  0.12557216601E+03  0.00000000000E+00 0. -1.
</event>
<event>
 7    1  0.2732144E-009  0.1094121E+03  0.7561462E-02  0.1261662E+00
         -3   -1    0    0    0  501 -0.00000000000E+00  0.00000000000E+00  0.37974633380E+02  0.37974633380E+02  0.00000000000E+00 0.  1.
          3   -1    0    0  501    0  0.00000000000E+00 -0.00000000000E+00 -0.38783809527E+03  0.38783809527E+03  0.00000000000E+00 0. -1.
         25    2    1    2    0    0  0.60683443495E+01  0.50003389975E+02 -0.22216686581E+03  0.25988982016E+03  0.12508972199E+03 0.  0.
          5    1    3    3  502    0  0.37594728281E+02 -0.17813622559E+02 -0.24391890429E+02  0.48405841196E+02  0.41800000000E+01 0.  1.
         -5    1    3    3    0  502 -0.31526383932E+02  0.67817012534E+02 -0.19777497538E+03  0.21148397897E+03  0.41800000000E+01 0.  1.
        -11    1    1    2    0    0  0.40130422791E+02 -0.10901707626E+02 -0.31087839723E+02  0.51920630208E+02  0.00000000000E+00 0.  1.
         11    1    1    2    0    0 -0.46198767141E+02 -0.39101682348E+02 -0.96608756355E+02  0.11400227828E+03  0.00000000000E+00 0. -1.
</event>
<event>
 7    1  0.2732144E-009  0.1103789E+03  0.7561462E-02  0.1259870E+00
          1   -1    0    0  501    0  0.00000000000E+00  0.00000000000E+00  0.61170863568E+02  0.61170863568E+02  0.00000000000E+00 0. -1.
         -1   -1    0    0    0  501 -0.00000000000E+00 -0.00000000000E+00 -0.23635561233E+03  0.23635561233E+03  0.00000000000E+00 0.  1.
         25    2    1    2    0    0  0.43561922773E+02  0.13341994437E+02 -0.74540989880E+02  0.15257854223E+03  0.12509277535E+03 0.  0.
          5    1    3    3  502    0 -0.33675166001E+02 -0.22018000825E+02 -0.15145141492E+01  0.40479319641E+02  0.41800000000E+01 0. -1.
         -5    1    3    3    0  502  0.77237088773E+02  0.35359995263E+02 -0.73026475731E+02  0.11209922259E+03  0.41800000000E+01 0. -1.
        -11    1    1    2    0    0  0.21766031056E+02 -0.20040915963E+02 -0.67161110212E+01  0.30339818190E+02  0.00000000000E+00 0.  1.
         11    1    1    2    0    0 -0.65327953828E+02  0.66989215260E+01 -0.93927647865E+02  0.11460811548E+03  0.00000000000E+00 0. -1.
</event>
<event>
 7    1  0.2732144E-009  0.1324693E+03  0.7561462E-02  0.1223837E+00
          2   -1    0    0  501    0  0.00000000000E+00  0.00000000000E+00  0.30121351731E+03  0.30121351731E+03  0.00000000000E+00 0. -1.
         -2   -1    0    0    0  501 -0.00000000000E+00 -0.00000000000E+00 -0.11977381617E+03  0.11977381617E+03  0.00000000000E+00 0.  1.
         25    2    1    2    0    0 -0.11055291429E+03  0.49152020096E+02 -0.12425724012E+02  0.17447850836E+03  0.12510189177E+03 0.  0.
          5    1    3    3  502    0 -0.85086302128E+02  0.14687601225E+01  0.44281787216E+02  0.96021795156E+02  0.41800000000E+01 0.  1.
         -5    1    3    3    0  502 -0.25466612159E+02  0.47683259974E+02 -0.56707511228E+02  0.78456713201E+02  0.41800000000E+01 0.  1.
        -11    1    1    2    0    0  0.71736538958E+02 -0.13874618794E+02  0.38625623404E+02  0.82647291859E+02  0.00000000000E+00 0.  1.
         11    1    1    2    0    0  0.38816375329E+02 -0.35277401302E+02  0.15523980175E+03  0.16386153326E+03  0.00000000000E+00 0. -1.
</event>
<event>
 7    1  0.2732144E-009  0.1051227E+03  0.7561462E-02  0.1269878E+00
         -1   -1    0    0    0  501 -0.00000000000E+00  0.00000000000E+00  0.41896963457E+03  0.41896963457E+03  0.00000000000E+00 0.  1.
          1   -1    0    0  501    0  0.00000000000E+00 -0.00000000000E+00 -0.46935689470E+02  0.46935689470E+02  0.00000000000E+00 0. -1.
         25    2    1    2    0    0 -0.56022092517E+02  0.26923382956E+02  0.10058546466E+03  0.17212973296E+03  0.12509143003E+03 0.  0.
          5    1    3    3  502    0 -0.15971412822E+01  0.61781538501E+02  0.85584944438E+02  0.10564925212E+03  0.41800000000E+01 0. -1.
         -5    1    3    3    0  502 -0.54424951234E+02 -0.34858155545E+02  0.15000520222E+02  0.66480480833E+02  0.41800000000E+01 0. -1.
        -11    1    1    2    0    0  0.28236178336E+02 -0.42994336056E+02  0.24984269065E+03  0.25508266262E+03  0.00000000000E+00 0.  1.
         11    1    1    2    0    0  0.27785914180E+02  0.16070953101E+02  0.21605789793E+02  0.38692928462E+02  0.00000000000E+00 0. -1.
</event>
<event>
 7    1  0.2732144E-009  0.1026470E+03  0.7561462E-02  0.1274826E+00
         -2   -1    0    0    0  501 -0.00000000000E+00  0.00000000000E+00  0.15070996162E+02  0.15070996162E+02  0.00000000000E+00 0.  1.
          2   -1    0    0  501    0  0.00000000000E+00 -0.00000000000E+00 -0.27764451204E+04  0.27764451204E+04  0.00000000000E+00 0. -1.
         25    2    1    2    0    0 -0.26523742455E+02 -0.14452316266E+02 -0.26029263087E+04  0.26061059301E+04  0.12510144556E+03 0.  0.
          5    1    3    3  502    0  0.30765688137E+01 -0.67230786085E+02 -0.14960818776E+04  0.14976007147E+04  0.41800000000E+01 0.  1.
         -5    1    3    3    0  502 -0.29600311269E+02  0.52778469819E+02 -0.11068444312E+04  0.11085052154E+04  0.41800000000E+01 0.  1.
        -11    1    1    2    0    0  0.47408965369E+02  0.25230036977E+02 -0.46549885541E+02  0.71070785891E+02  0.00000000000E+00 0.  1.
         11    1    1    2    0    0 -0.20885222915E+02 -0.10777720711E+02 -0.11189792997E+03  0.11433940061E+03  0.00000000000E+00 0. -1.
</event>
<event>
 7    1  0.2732144E-009  0.1045702E+03  0.7561462E-02  0.1270969E+00
         -2   -1    0    0    0  501 -0.00000000000E+00  0.00000000000E+00  0.17629514144E+03  0.17629514144E+03  0.00000000000E+00 0.  1.
          2   -1    0    0  501    0  0.00000000000E+00 -0.00000000000E+00 -0.99457569277E+02  0.99457569277E+02  0.00000000000E+00 0. -1.
         25    2    1    2    0    0  0.58242401264E+01  0.19468150190E+02 -0.31242713418E+02  0.13051333582E+03  0.12507874735E+03 0.  0.
          5    1    3    3  502    0  0.18766493376E+02  0.65308779290E+02  0.81428776335E+01  0.68565273879E+02  0.41800000000E+01 0.  1.
         -5    1    3    3    0  502 -0.12942253249E+02 -0.45840629100E+02 -0.39385591052E+02  0.61948061939E+02  0.41800000000E+01 0.  1.
        -11    1    1    2    0    0  0.29257938259E+02  0.23675883910E+02  0.24703754090E+02  0.45020549711E+02  0.00000000000E+00 0.  1.
         11    1    1    2    0    0 -0.35082178385E+02 -0.43144034100E+02  0.83376531490E+02  0.10021882519E+03  0.00000000000E+00 0. -1.
</event>
<event>
 7    1  0.2732144E-009  0.1220081E+03  0.7561462E-02  0.1239821E+00
          1   -1    0    0  501    0  0.00000000000E+00  0.00000000000E+00  0.54107092119E+03  0.54107092119E+03  0.00000000000E+00 0. -1.
         -1   -1    0    0    0  501 -0.00000000000E+00 -0.00000000000E+00 -0.60442848934E+02  0.60442848934E+02  0.00000000000E+00 0.  1.
         25    2    1    2    0    0 -0.14028690879E+02 -0.81929701931E+02  0.44916018147E+03  0.47360605545E+03  0.12509415223E+03 0.  0.
          5    1    3    3  502    0 -0.37621198447E+02 -0.10814797677E+03  0.34986299327E+03  0.36814796742E+03  0.41800000000E+01 0.  1.
         -5    1    3    3    0  502  0.23592507568E+02  0.26218274844E+02  0.99297188197E+02  0.10545808804E+03  0.41800000000E+01 0.  1.
        -11    1    1    2    0    0  0.29615028921E+02  0.45438567233E+02 -0.24325553188E+02  0.59442794922E+02  0.00000000000E+00 0.  1.
         11    1    1    2    0    0 -0.15586338043E+02  0.36491134698E+02  0.55793443981E+02  0.68464919750E+02  0.00000000000E+00 0. -1.
</event>
<event>
 7    1  0.2732144E-009  0.8170587E+02  0.7561462E-02  0.1324279E+00
         -3   -1    0    0    0  501 -0.00000000000E+00  0.00000000000E+00  0.67880302940E+02  0.67880302940E+02  0.00000000000E+00 0.  1.
          3   -1    0    0  501    0  0.00000000000E+00 -0.00000000000E+00 -0.22072965404E+03  0.22072965404E+03  0.00000000000E+00 0. -1.
         25    2    1    2    0    0  0.29198863312E+02  0.18957719218E+02 -0.29319866168E+02  0.13311507286E+03  0.12509196351E+03 0.  0.
          5    1    3    3  502    0 -0.31466189004E+02 -0.10634931453E+02 -0.51949838488E+02  0.61801949293E+02  0.41800000000E+01 0.  1.
         -5    1    3    3    0  502  0.60665052316E+02  0.29592650671E+02  0.22629972320E+02  0.71313123571E+02  0.41800000000E+01 0.  1.
        -11    1    1    2    0    0 -0.42533797171E+02 -0.47110366385E+01 -0.15186617797E+02  0.45408712029E+02  0.00000000000E+00 0.  1.
         11    1    1    2    0    0  0.13334933859E+02 -0.14246682580E+02 -0.10834286713E+03  0.11008617208E+03  0.00000000000E+00 0. -1.
</event>
<event>
 7    1  0.2732144E-009  0.2071299E+03  0.7561462E-02  0.1143859E+00
          1   -1    0    0  501    0  0.00000000000E+00  0.00000000000E+00  0.33121486544E+03  0.33121486544E+03  0.00000000000E+00 0. -1.
         -1   -1    0    0    0  501 -0.00000000000E+00 -0.00000000000E+00 -0.13616167110E+03  0.13616167110E+03  0.00000000000E+00 0.  1.
         25    2    1    2    0    0 -0.18289832389E+03  0.39855206611E+02  0.12499862527E+03  0.25751552893E+03  0.12509738985E+03 0.  0.
          5    1    3    3  502    0  0.14657958189E+02  0.20377956309E+02  0.64216337447E+01  0.26245506693E+02  0.41800000000E+01 0. -1.
         -5    1    3    3    0  502 -0.19755628208E+03  0.19477250302E+02  0.11857699152E+03  0.23127002224E+03  0.41800000000E+01 0. -1.
        -11    1    1    2    0    0  0.75099148281E+02 -0.33601309037E+02  0.59154014268E+02  0.10133176918E+03  0.00000000000E+00 0. -1.
         11    1    1    2    0    0  0.10779917561E+03 -0.62538975739E+01  0.10900554805E+02  0.10852923842E+03  0.00000000000E+00 0.  1.
</event>
<event>
 7    1  0.2732144E-009  0.1145575E+03  0.7561462E-02  0.1252355E+00
          2   -1    0    0  501    0  0.00000000000E+00  0.00000000000E+00  0.66628291990E+03  0.66628291990E+03  0.00000000000E+00 0. -1.
         -2   -1    0    0    0  501 -0.00000000000E+00 -0.00000000000E+00 -0.29942673935E+02  0.29942673935E+02  0.00000000000E+00 0.  1.
         25    2    1    2    0    0  0.78348083023E+02 -0.42777594568E+02  0.30237859507E+03  0.33918854973E+03  0.12509081822E+03 0.  0.
          5    1    3    3  502    0  0.10059722973E+03 -0.15543899753E+02  0.27830800919E+03  0.29636841233E+03  0.41800000000E+01 0.  1.
         -5    1    3    3    0  502 -0.22249146707E+02 -0.27233694815E+02  0.24070585878E+02  0.42820137400E+02  0.41800000000E+01 0.  1.
        -11    1    1    2    0    0 -0.65607105862E+02  0.25572340191E+02  0.32704323237E+03  0.33453775985E+03  0.00000000000E+00 0. -1.
         11    1    1    2    0    0 -0.12740977161E+02  0.17205254376E+02  0.69184185242E+01  0.22499284256E+02  0.00000000000E+00 0.  1.
</event>
<event>
 7    1  0.2732144E-009  0.7276828E+02  0.7561462E-02  0.1350925E+00
          3   -1    0    0  501    0  0.00000000000E+00  0.00000000000E+00  0.15806852146E+02  0.15806852146E+02  0.00000000000E+00 0. -1.
         -3   -1    0    0    0  501 -0.00000000000E+00 -0.00000000000E+00 -0.93320983023E+03  0.93320983023E+03  0.00000000000E+00 0.  1.
         25    2    1    2    0    0  0.43323945450E+01 -0.30124661305E+02 -0.67877839010E+03  0.69087928202E+03  0.12509122508E+03 0.  0.
          5    1    3    3  502    0  0.20559158279E+00  0.21226202036E+02 -0.57037014803E+03  0.57078031859E+03  0.41800000000E+01 0.  1.
         -5    1    3    3    0  502  0.41268029622E+01 -0.51350863341E+02 -0.10840824207E+03  0.12009896343E+03  0.41800000000E+01 0.  1.
        -11    1    1    2    0    0  0.75785299388E+01  0.49171194654E+02 -0.22785810217E+03  0.23322640336E+03  0.00000000000E+00 0.  1.
         11    1    1    2    0    0 -0.11910924484E+02 -0.19046533349E+02 -0.10766485814E+02  0.24910996999E+02  0.00000000000E+00 0. -1.
</event>
<event>
 7    1  0.2732144E-009  0.1046608E+03  0.7561462E-02  0.1270789E+00
         -3   -1    0    0    0  501 -0.00000000000E+00  0.00000000000E+00  0.11337088460E+03  0.11337088460E+03  0.00000000000E+00 0.  1.
          3   -1    0    0  501    0  0.00000000000E+00 -0.00000000000E+00 -0.19201018527E+03  0.19201018527E+03  0.00000000000E+00 0. -1.
         25    2    1    2    0    0 -0.87696409069E+02 -0.37654598119E+02 -0.12196547602E+02  0.15781190110E+03  0.12508921389E+03 0.  0.
          5    1    3    3  502    0 -0.94339231162E+02 -0.23552878764E+02  0.38458729767E+02  0.10464786156E+03  0.41800000000E+01 0. -1.
         -5    1    3    3    0  502  0.66428220933E+01 -0.14101719355E+02 -0.50655277368E+02  0.53164039532E+02  0.41800000000E+01 0. -1.
        -11    1    1    2    0    0  0.46953157489E+02  0.25006001711E+02 -0.85616338133E+02  0.10079710549E+03  0.00000000000E+00 0. -1.
         11    1    1    2    0    0  0.40743251580E+02  0.12648596408E+02  0.19173585060E+02  0.46772063291E+02  0.00000000000E+00 0.  1.
</event>
<event>
 7    1  0.2732144E-009  0.1502331E+03  0.7561462E-02  0.1200187E+00
          1   -1    0    0  501    0  0.00000000000E+00  0.00000000000E+00  0.33599887784E+03  0.33599887784E+03  0.00000000000E+00 0. -1.
         -1   -1    0    0    0  501 -0.00000000000E+00 -0.00000000000E+00 -0.88075616120E+02  0.88075616120E+02  0.00000000000E+00 0.  1.
         25    2    1    2    0    0  0.10938319361E+03 -0.42668882349E+02  0.23388253693E+03  0.29006147309E+03  0.12509716432E+03 0.  0.
          5    1    3    3  502    0 -0.21766862407E+02  0.11893037690E+02  0.62838364870E+02  0.67685841533E+02  0.41800000000E+01 0. -1.
         -5    1    3    3    0  502  0.13115005602E+03 -0.54561920039E+02  0.17104417206E+03  0.22237563155E+03  0.41800000000E+01 0. -1.
        -11    1    1    2    0    0 -0.23231815584E+02 -0.16670487645E+02  0.12155938999E+01  0.28619924566E+02  0.00000000000E+00 0.  1.
         11    1    1    2    0    0 -0.86151378028E+02  0.59339369994E+02  0.12825130891E+02  0.10539309631E+03  0.00000000000E+00 0. -1.
</event>
<event>
 7    1  0.2732144E-009  0.1064308E+03  0.7561462E-02  0.1267326E+00
         -1   -1    0    0    0  501 -0.00000000000E+00  0.00000000000E+00  0.16922026124E+03  0.16922026124E+03  0.00000000000E+00 0.  1.
          1   -1    0    0  501    0  0.00000000000E+00 -0.00000000000E+00 -0.20279421283E+03  0.20279421283E+03  0.00000000000E+00 0. -1.
         25    2    1    2    0    0  0.10127841280E+02 -0.48204663190E+02  0.12892337769E+03  0.18626297546E+03  0.12508555468E+03 0.  0.
          5    1    3    3  502    0 -0.55070737364E+02 -0.39153132532E+02  0.55284784046E+02  0.87404997843E+02  0.41800000000E+01 0.  1.
         -5    1    3    3    0  502  0.65198578644E+02 -0.90515306583E+01  0.73638593641E+02  0.98857977613E+02  0.41800000000E+01 0.  1.
        -11    1    1    2    0    0  0.18660037946E+02 -0.44607033865E+01 -0.88085709299E+02  0.90150912772E+02  0.00000000000E+00 0. -1.
         11    1    1    2    0    0 -0.28787879226E+02  0.52665366576E+02 -0.74411619977E+02  0.95600585848E+02  0.00000000000E+00 0.  1.
</event>
<event>
 7    1  0.2732144E-009  0.1137364E+03  0.7561462E-02  0.1253803E+00
          1   -1    0    0  501    0  0.00000000000E+00  0.00000000000E+00  0.72717925311E+03  0.72717925311E+03  0.00000000000E+00 0. -1.
         -1   -1    0    0    0  501 -0.00000000000E+00 -0.00000000000E+00 -0.19383581199E+02  0.19383581199E+02  0.00000000000E+00 0.  1.
         25    2    1    2    0    0  0.46156288469E+02  0.59009283213E+01  0.43208253629E+03  0.45222439582E+03  0.12508541917E+03 0.  0.
          5    1    3    3  502    0 -0.38756839806E+02 -0.76431752389E+01  0.21603499658E+03  0.21965678435E+03  0.41800000000E+01 0.  1.
         -5    1    3    3    0  502  0.84913128275E+02  0.13544103560E+02  0.21604753970E+03  0.23256761147E+03  0.41800000000E+01 0.  1.
        -11    1    1    2    0    0 -0.57227288731E+02  0.29631457555E+02  0.19694569025E+03  0.20722111563E+03  0.00000000000E+00 0.  1.
         11    1    1    2    0    0  0.11071000263E+02 -0.35532385876E+02  0.78767445367E+02  0.87117322862E+02  0.00000000000E+00 0. -1.
</event>
<event>
 7    1  0.2732144E-009  0.8651284E+02  0.7561462E-02  0.1311523E+00
         -1   -1    0    0    0  501 -0.00000000000E+00  0.00000000000E+00  0.12444214409E+03  0.12444214409E+03  0.00000000000E+00 0.  1.
          1   -1    0    0  501    0  0.00000000000E+00 -0.00000000000E+00 -0.10201890081E+03  0.10201890081E+03  0.00000000000E+00 0. -1.
         25    2    1    2    0    0 -0.25370649261E+02 -0.80790910271E+01  0.24580655845E+02  0.13023989746E+03  0.12509708507E+03 0.  0.
          5    1    3    3  502    0  0.58093273751E+01 -0.55950835037E+02 -0.17615108017E+02  0.59093220054E+02  0.41800000000E+01 0. -1.
         -5    1    3    3    0  502 -0.31179976636E+02  0.47871744009E+02  0.42195763863E+02  0.71146677403E+02  0.41800000000E+01 0. -1.
        -11    1    1    2    0    0  0.39266867131E+02  0.17035826186E+02  0.35168374411E+02  0.55397840994E+02  0.00000000000E+00 0.  1.
         11    1    1    2    0    0 -0.13896217870E+02 -0.89567351585E+01 -0.37325786978E+02  0.40823306447E+02  0.00000000000E+00 0. -1.
</event>
<event>
 7    1  0.2732144E-009  0.1029560E+03  0.7561462E-02  0.1274200E+00
          3   -1    0    0  501    0  0.00000000000E+00  0.00000000000E+00  0.35951108475E+02  0.35951108475E+02  0.00000000000E+00 0. -1.
         -3   -1    0    0    0  501 -0.00000000000E+00 -0.00000000000E+00 -0.38509495159E+03  0.38509495159E+03  0.00000000000E+00 0.  1.
         25    2    1    2    0    0 -0.83887818599E+01 -0.11550846564E+02 -0.21817145769E+03  0.25189127316E+03  0.12508650937E+03 0.  0.
          5    1    3    3  502    0  0.40787376980E+02 -0.36249087229E+02 -0.47322560852E+02  0.72349869464E+02  0.41800000000E+01 0. -1.
         -5    1    3    3    0  502 -0.49176158840E+02  0.24698240666E+02 -0.17084889684E+03  0.17954140370E+03  0.41800000000E+01 0. -1.
        -11    1    1    2    0    0  0.42969762746E+02  0.33977064607E+02 -0.11005447276E+03  0.12293424423E+03  0.00000000000E+00 0.  1.
         11    1    1    2    0    0 -0.34580980886E+02 -0.22426218043E+02 -0.20917912658E+02  0.46220542670E+02  0.00000000000E+00 0. -1.
</event>
<event>
 7    1  0.2732144E-009  0.1108712E+03  0.7561462E-02  0.1258965E+00
          1   -1    0    0  501    0  0.00000000000E+00  0.00000000000E+00  0.69428537543E+03  0.69428537543E+03  0.00000000000E+00 0. -1.
         -1   -1    0    0    0  501 -0.00000000000E+00 -0.00000000000E+00 -0.23815270973E+02  0.23815270973E+02  0.00000000000E+00 0.  1.
         25    2    1    2    0    0 -0.55670889040E+02 -0.20459365360E+02  0.36162197390E+03  0.38721858397E+03  0.12509974520E+03 0.  0.
          5    1    3    3  502    0 -0.26044520677E+02 -0.69972329691E+02  0.25710793410E+03  0.26776184597E+03  0.41800000000E+01 0.  1.
         -5    1    3    3    0  502 -0.29626368363E+02  0.49512964331E+02  0.10451403980E+03  0.11945673800E+03  0.41800000000E+01 0.  1.
        -11    1    1    2    0    0  0.14161844452E+02  0.40582604297E+02  0.42068851082E+02  0.60143942681E+02  0.00000000000E+00 0.  1.
         11    1    1    2    0    0  0.41509044587E+02 -0.20123238937E+02  0.26677927948E+03  0.27073811975E+03  0.00000000000E+00 0. -1.
</event>
<event>
 7    1  0.2732144E-009  0.1297191E+03  0.7561462E-02  0.1227873E+00
          1   -1    0    0  501    0  0.00000000000E+00  0.00000000000E+00  0.25488301298E+03  0.25488301298E+03  0.00000000000E+00 0. -1.
         -1   -1    0    0    0  501 -0.00000000000E+00 -0.00000000000E+00 -0.84263272019E+02  0.84263272019E+02  0.00000000000E+00 0.  1.
         25    2    1    2    0    0  0.51118518153E+01 -0.84539484701E+02  0.15049016710E+03  0.21323148505E+03  0.12508924942E+03 0.  0.
          5    1    3    3  502    0 -0.31599971421E+02 -0.98980488121E+02  0.13554709982E+03  0.17083964379E+03  0.41800000000E+01 0.  1.
         -5    1    3    3    0  502  0.36711823236E+02  0.14441003420E+02  0.14943067281E+02  0.42391841254E+02  0.41800000000E+01 0.  1.
        -11    1    1    2    0    0  0.19247208683E+02 -0.74366310902E+01 -0.13884718398E+02  0.24870543400E+02  0.00000000000E+00 0.  1.
         11    1    1    2    0    0 -0.24359060498E+02  0.91976115792E+02  0.34014292263E+02  0.10104425655E+03  0.00000000000E+00 0. -1.
</event>
<event>
 7    1  0.2732144E-009  0.1413982E+03  0.7561462E-02  0.1211460E+00
          1   -1    0    0  501    0  0.00000000000E+00  0.00000000000E+00  0.14628897147E+04  0.14628897147E+04  0.00000000000E+00 0.  1.
         -1   -1    0    0    0  501 -0.00000000000E+00 -0.00000000000E+00 -0.17914559562E+02  0.17914559562E+02  0.00000000000E+00 0. -1.
         25    2    1    2    0    0 -0.78897184024E+02  0.76152707970E+02  0.10008864722E+04  0.10146154478E+04  0.12508707464E+03 0.  0.
          5    1    3    3  502    0  0.19182064421E+02  0.47169549032E+02  0.54448731992E+03  0.54687917486E+03  0.41800000000E+01 0.  1.
         -5    1    3    3    0  502 -0.98079248445E+02  0.28983158938E+02  0.45639915224E+03  0.46773627296E+03  0.41800000000E+01 0.  1.
        -11    1    1    2    0    0  0.17172018352E+02 -0.64223709341E+02  0.32280842512E+03  0.32958283084E+03  0.00000000000E+00 0.  1.
         11    1    1    2    0    0  0.61725165673E+02 -0.11928998629E+02  0.12128025786E+03  0.13660599559E+03  0.00000000000E+00 0. -1.
</event>
<event>
 7    1  0.2732144E-009  0.7979013E+02  0.7561462E-02  0.1329648E+00
          2   -1    0    0  501    0  0.00000000000E+00  0.00000000000E+00  0.46466113978E+03  0.46466113978E+03  0.00000000000E+00 0. -1.
         -2   -1    0    0    0  501 -0.00000000000E+00 -0.00000000000E+00 -0.37146689887E+02  0.37146689887E+02  0.00000000000E+00 0.  1.
         25    2    1    2    0    0 -0.63461231241E+02  0.10718826874E+02  0.30125040162E+03  0.33247816143E+03  0.12509077596E+03 0.  0.
          5    1    3    3  502    0 -0.43857123333E+02  0.25156515875E+02  0.27675401928E+02  0.57790118791E+02  0.41800000000E+01 0.  1.
         -5    1    3    3    0  502 -0.19604107908E+02 -0.14437689001E+02  0.27357499970E+03  0.27468804264E+03  0.41800000000E+01 0.  1.
        -11    1    1    2    0    0  0.36142455835E+02  0.21381514688E+02  0.66637143237E+01  0.42518835505E+02  0.00000000000E+00 0.  1.
         11    1    1    2    0    0  0.27318775406E+02 -0.32100341563E+02  0.11960033395E+03  0.12681083273E+03  0.00000000000E+00 0. -1.
</event>
<event>
 7    1  0.2732144E-009  0.9812369E+02  0.7561462E-02  0.1284292E+00
         -1   -1    0    0    0  501 -0.00000000000E+00  0.00000000000E+00  0.18892586952E+03  0.18892586952E+03  0.00000000000E+00 0.  1.
          1   -1    0    0  501    0  0.00000000000E+00 -0.00000000000E+00 -0.76823675482E+02  0.76823675482E+02  0.00000000000E+00 0. -1.
         25    2    1    2    0    0 -0.88331857137E+00 -0.51738202216E+02  0.61011829869E+02  0.14844761610E+03  0.12504650943E+03 0.  0.
          5    1    3    3  502    0 -0.13055923252E+01  0.40585276308E+02  0.70408986915E+01  0.41423614988E+02  0.41800000000E+01 0.  1.
         -5    1    3    3    0  502  0.42227375385E+00 -0.92323478524E+02  0.53970931178E+02  0.10702400111E+03  0.41800000000E+01 0.  1.
        -11    1    1    2    0    0 -0.16360999446E+02  0.14066569431E+02 -0.23546308877E+02  0.31937115401E+02  0.00000000000E+00 0. -1.
         11    1    1    2    0    0  0.17244318017E+02  0.37671632785E+02  0.74636673049E+02  0.85364813503E+02  0.00000000000E+00 0.  1.
</event>
<event>
 7    1  0.2732144E-009  0.7315712E+02  0.7561462E-02  0.1349675E+00
          2   -1    0    0  501    0  0.00000000000E+00  0.00000000000E+00  0.14750638061E+04  0.14750638061E+04  0.00000000000E+00 0. -1.
         -2   -1    0    0    0  501 -0.00000000000E+00 -0.00000000000E+00 -0.11535809265E+02  0.11535809265E+02  0.00000000000E+00 0.  1.
         25    2    1    2    0    0 -0.12555164703E+02  0.37644777196E+01  0.12128889918E+04  0.12193921681E+04  0.12508297136E+03 0.  0.
          5    1    3    3  502    0  0.16472367160E+02 -0.12685939777E+02  0.11263542707E+04  0.11265538991E+04  0.41800000000E+01 0. -1.
         -5    1    3    3    0  502 -0.29027531864E+02  0.16450417497E+02  0.86534721052E+02  0.92838268992E+02  0.41800000000E+01 0. -1.
        -11    1    1    2    0    0 -0.14478939345E+02 -0.42129590386E+02  0.14308057332E+03  0.14985523858E+03  0.00000000000E+00 0.  1.
         11    1    1    2    0    0  0.27034104048E+02  0.38365112666E+02  0.10755843181E+03  0.11735220878E+03  0.00000000000E+00 0. -1.
</event>
<event>
 7    1  0.2732144E-009  0.1399151E+03  0.7561462E-02  0.1213443E+00
         -2   -1    0    0    0  501 -0.00000000000E+00  0.00000000000E+00  0.52224707247E+03  0.52224707247E+03  0.00000000000E+00 0.  1.
          2   -1    0    0  501    0  0.00000000000E+00 -0.00000000000E+00 -0.46845734653E+02  0.46845734653E+02  0.00000000000E+00 0. -1.
         25    2    1    2    0    0  0.94315653621E+02 -0.13992055670E+02  0.36309234667E+03  0.39569530989E+03  0.12508999129E+03 0.  0.
          5    1    3    3  502    0  0.12295881493E+03  0.41138898503E+01  0.28805884476E+03  0.31325894193E+03  0.41800000000E+01 0. -1.
         -5    1    3    3    0  502 -0.28643161309E+02 -0.18105945520E+02  0.75033501917E+02  0.82436367962E+02  0.41800000000E+01 0. -1.
        -11    1    1    2    0    0 -0.95758044844E+02  0.34684657057E+02  0.11365519401E+03  0.15261104715E+03  0.00000000000E+00 0.  1.
         11    1    1    2    0    0  0.14423912224E+01 -0.20692601387E+02 -0.13462028647E+01  0.20786450076E+02  0.00000000000E+00 0. -1.
</event>
<event>
 7    1  0.2732144E-009  0.9629285E+02  0.7561462E-02  0.1288291E+00
         -1   -1    0    0    0  501 -0.00000000000E+00  0.00000000000E+00  0.73745988882E+02  0.73745988882E+02  0.00000000000E+00 0.  1.
          1   -1    0    0  501    0  0.00000000000E+00 -0.00000000000E+00 -0.20873882172E+03  0.20873882172E+03  0.00000000000E+00 0. -1.
         25    2    1    2    0    0  0.39045745869E+02 -0.30527818229E+02 -0.12409361528E+03  0.18305419503E+03  0.12511232955E+03 0.  0.
          5    1    3    3  502    0  0.46377679366E+01  0.47391632371E+02 -0.31912556325E+02  0.57474858516E+02  0.41800000000E+01 0.  1.
         -5    1    3    3    0  502  0.34407977932E+02 -0.77919450600E+02 -0.92181058960E+02  0.12557933651E+03  0.41800000000E+01 0.  1.
        -11    1    1    2    0    0 -0.25444097803E+02  0.36626729378E+02  0.31425834400E+02  0.54557332098E+02  0.00000000000E+00 0.  1.
         11    1    1    2    0    0 -0.13601648066E+02 -0.60989111483E+01 -0.42325051955E+02  0.44873283480E+02  0.00000000000E+00 0. -1.
</event>
<event>
 7    1  0.2732144E-009  0.1155461E+03  0.7561462E-02  0.1250631E+00
          4   -1    0    0  501    0  0.00000000000E+00  0.00000000000E+00  0.95556249167E+03  0.95556249167E+03  0.00000000000E+00 0.  1.
         -4   -1    0    0    0  501 -0.00000000000E+00 -0.00000000000E+00 -0.14143092051E+02  0.14143092051E+02  0.00000000000E+00 0. -1.
         25    2    1    2    0    0  0.85971143070E+00  0.44768694379E+02  0.55339280683E+03  0.56911881494E+03  0.12509057425E+03 0.  0.
          5    1    3    3  502    0  0.53096584310E+02 -0.11856359383E+02  0.26680808977E+03  0.27233040537E+03  0.41800000000E+01 0.  1.
         -5    1    3    3    0  502 -0.52236872879E+02  0.56625053761E+02  0.28658471706E+03  0.29678840957E+03  0.41800000000E+01 0.  1.
        -11    1    1    2    0    0 -0.44528228845E+02 -0.17214951172E+02  0.17546227553E+03  0.18184094105E+03  0.00000000000E+00 0. -1.
         11    1    1    2    0    0  0.43668517415E+02 -0.27553743207E+02  0.21256431726E+03  0.21874582773E+03  0.00000000000E+00 0.  1.
</event>
<event>
 7    1  0.2732144E-009  0.1126885E+03  0.7561462E-02  0.1255671E+00
          4   -1    0    0  501    0  0.00000000000E+00  0.00000000000E+00  0.16725914064E+03  0.16725914064E+03  0.00000000000E+00 0. -1.
         -4   -1    0    0    0  501 -0.00000000000E+00 -0.00000000000E+00 -0.12772330211E+03  0.12772330211E+03  0.00000000000E+00 0.  1.
         25    2    1    2    0    0  0.61906196914E+02  0.49254770864E+02  0.79132891869E+02  0.16782884909E+03  0.12508436490E+03 0.  0.
          5    1    3    3  502    0  0.96476043955E+02  0.49307449553E+02  0.40309380799E+02  0.11567700817E+03  0.41800000000E+01 0. -1.
         -5    1    3    3    0  502 -0.34569847041E+02 -0.52678688395E-01  0.38823511069E+02  0.52151840919E+02  0.41800000000E+01 0. -1.
        -11    1    1    2    0    0 -0.19244879812E+02 -0.29242221686E+02  0.27948697127E+02  0.44795118029E+02  0.00000000000E+00 0. -1.
         11    1    1    2    0    0 -0.42661317102E+02 -0.20012549178E+02 -0.67545750469E+02  0.82358475629E+02  0.00000000000E+00 0.  1.
</event>
<event>
 7    1  0.2732144E-009  0.1118309E+03  0.7561462E-02  0.1257216E+00
         -2   -1    0    0    0  501 -0.00000000000E+00  0.00000000000E+00  0.44279316061E+02  0.44279316061E+02  0.00000000000E+00 0.  1.
          2   -1    0    0  501    0  0.00000000000E+00 -0.00000000000E+00 -0.54765724015E+03  0.54765724015E+03  0.00000000000E+00 0. -1.
         25    2    1    2    0    0 -0.94277523884E+02 -0.46134017654E+02 -0.34596759887E+03  0.38256684546E+03  0.12508881919E+03 0.  0.
          5    1    3    3  502    0 -0.55012962221E+02 -0.49837128868E+02 -0.64823925135E+02  0.98639642620E+02  0.41800000000E+01 0.  1.
         -5    1    3    3    0  502 -0.39264561663E+02  0.37031112143E+01 -0.28114367373E+03  0.28392720284E+03  0.41800000000E+01 0.  1.
        -11    1    1    2    0    0  0.41518315696E+02  0.37978119519E+02 -0.16426875384E+02  0.58616979923E+02  0.00000000000E+00 0.  1.
         11    1    1    2    0    0  0.52759208188E+02  0.81558981352E+01 -0.14098344984E+03  0.15075273083E+03  0.00000000000E+00 0. -1.
</event>
<event>
 7    1  0.2732144E-009  0.1150706E+03  0.7561462E-02  0.1251458E+00
          1   -1    0    0  501    0  0.00000000000E+00  0.00000000000E+00  0.32209989640E+03  0.32209989640E+03  0.00000000000E+00 0. -1.
         -1   -1    0    0    0  501 -0.00000000000E+00 -0.00000000000E+00 -0.59073902043E+02  0.59073902043E+02  0.00000000000E+00 0.  1.
         25    2    1    2    0    0  0.27212072548E+02 -0.75722807152E+02  0.10489407331E+03  0.18200176860E+03  0.12508971477E+03 0.  0.
          5    1    3    3  502    0 -0.34365775780E+02 -0.75530004758E+02  0.80343693195E+02  0.11557841321E+03  0.41800000000E+01 0. -1.
         -5    1    3    3    0  502  0.61577848328E+02 -0.19280239424E+00  0.24550380116E+02  0.66423355390E+02  0.41800000000E+01 0. -1.
        -11    1    1    2    0    0 -0.63183915529E+01  0.56788375968E+02  0.16099148405E+03  0.17083061685E+03  0.00000000000E+00 0. -1.
         11    1    1    2    0    0 -0.20893680995E+02  0.18934431184E+02 -0.28595630044E+01  0.28341412992E+02  0.00000000000E+00 0.  1.
</event>
<event>
 7    1  0.2732144E-009  0.8645255E+02  0.7561462E-02  0.1311677E+00
         -2   -1    0    0    0  501 -0.00000000000E+00  0.00000000000E+00  0.54460580411E+03  0.54460580411E+03  0.00000000000E+00 0.  1.
          2   -1    0    0  501    0  0.00000000000E+00 -0.00000000000E+00 -0.31072844654E+02  0.31072844654E+02  0.00000000000E+00 0. -1.
         25    2    1    2    0    0  0.48523386211E+02  0.49229686851E+02  0.33069626691E+03  0.36025737970E+03  0.12508907868E+03 0.  0.
          5    1    3    3  502    0  0.41747894141E+01 -0.18351172987E+02  0.23117162967E+03  0.23197411317E+03  0.41800000000E+01 0.  1.
         -5    1    3    3    0  502  0.44348596797E+02  0.67580859838E+02  0.99524637243E+02  0.12828326653E+03  0.41800000000E+01 0.  1.
        -11    1    1    2    0    0 -0.27008532761E+02 -0.11716349249E+02  0.20249140615E+01  0.29509895943E+02  0.00000000000E+00 0. -1.
         11    1    1    2    0    0 -0.21514853450E+02 -0.37513337602E+02  0.18081177848E+03  0.18591137312E+03  0.00000000000E+00 0.  1.
</event>
<event>
 7    1  0.2732144E-009  0.1666394E+03  0.7561462E-02  0.1181398E+00
         -2   -1    0    0    0  501 -0.00000000000E+00  0.00000000000E+00  0.36516056152E+02  0.36516056152E+02  0.00000000000E+00 0. -1.
          2   -1    0    0  501    0  0.00000000000E+00 -0.00000000000E+00 -0.89674252853E+03  0.89674252853E+03  0.00000000000E+00 0.  1.
         25    2    1    2    0    0 -0.11349086902E+02 -0.12842217851E+03 -0.63005168179E+03  0.65515901339E+03  0.12508858219E+03 0.  0.
          5    1    3    3  502    0 -0.47896072299E+02 -0.27151149200E+01 -0.19185630718E+03  0.19780728145E+03  0.41800000000E+01 0. -1.
         -5    1    3    3    0  502  0.36546985398E+02 -0.12570706359E+03 -0.43819537461E+03  0.45735173194E+03  0.41800000000E+01 0. -1.
        -11    1    1    2    0    0 -0.15549745861E+02  0.12620051373E+03 -0.20474568440E+03  0.24101692792E+03  0.00000000000E+00 0. -1.
         11    1    1    2    0    0  0.26898832763E+02  0.22216647808E+01 -0.25429106192E+02  0.37082643381E+02  0.00000000000E+00 0.  1.
</event>
<event>
 7    1  0.2732144E-009  0.1500404E+03  0.7561462E-02  0.1200423E+00
          2   -1    0    0  501    0  0.00000000000E+00  0.00000000000E+00  0.43130825073E+03  0.43130825073E+03  0.00000000000E+00 0. -1.
         -2   -1    0    0    0  501 -0.00000000000E+00 -0.00000000000E+00 -0.56681853182E+02  0.56681853182E+02  0.00000000000E+00 0.  1.
         25    2    1    2    0    0 -0.10994731478E+03 -0.27192523642E+02  0.18491590813E+03  0.25033889335E+03  0.12509125898E+03 0.  0.
          5    1    3    3  502    0 -0.42908942476E+01 -0.57452125543E+02  0.76955540771E+02  0.96222586529E+02  0.41800000000E+01 0. -1.
         -5    1    3    3    0  502 -0.10565642054E+03  0.30259601901E+02  0.10796036736E+03  0.15411630682E+03  0.41800000000E+01 0. -1.
        -11    1    1    2    0    0  0.36957876814E+02  0.43971772260E+02  0.39214220786E+02  0.69549669490E+02  0.00000000000E+00 0. -1.
         11    1    1    2    0    0  0.72989437969E+02 -0.16779248618E+02  0.15049626863E+03  0.16810154107E+03  0.00000000000E+00 0.  1.
</event>
<event>
 7    1  0.2732144E-009  0.1322599E+03  0.7561462E-02  0.1224141E+00
          1   -1    0    0  501    0  0.00000000000E+00  0.00000000000E+00  0.18172154985E+03  0.18172154985E+03  0.00000000000E+00 0. -1.
         -1   -1    0    0    0  501 -0.00000000000E+00 -0.00000000000E+00 -0.13857791066E+03  0.13857791066E+03  0.00000000000E+00 0.  1.
         25    2    1    2    0    0 -0.97891522480E+02  0.42883515448E+02  0.67509639260E+02  0.17783959968E+03  0.12509047026E+03 0.  0.
          5    1    3    3  502    0 -0.88742821831E+01  0.57060690125E+02  0.65720138844E+02  0.87585868103E+02  0.41800000000E+01 0. -1.
         -5    1    3    3    0  502 -0.89017240297E+02 -0.14177174677E+02  0.17895004165E+01  0.90253731578E+02  0.41800000000E+01 0. -1.
        -11    1    1    2    0    0  0.10761263393E+02  0.98096526000E+01  0.25282526822E+02  0.29176021600E+02  0.00000000000E+00 0. -1.
         11    1    1    2    0    0  0.87130259088E+02 -0.52693168048E+02 -0.49648526892E+02  0.11328383923E+03  0.00000000000E+00 0.  1.
</event>
<event>
 7    1  0.2732144E-009  0.1196414E+03  0.7561462E-02  0.1243690E+00
          2   -1    0    0  501    0  0.00000000000E+00  0.00000000000E+00  0.19397419289E+02  0.19397419289E+02  0.00000000000E+00 0.  1.
         -2   -1    0    0    0  501 -0.00000000000E+00 -0.00000000000E+00 -0.10329251198E+04  0.10329251198E+04  0.00000000000E+00 0. -1.
         25    2    1    2    0    0 -0.58018638413E+02 -0.67733730149E+02 -0.45692581731E+03  0.48205313317E+03  0.12505998591E+03 0.  0.
          5    1    3    3  502    0 -0.79019393766E+02 -0.51916893272E+02 -0.17568143619E+03  0.19955166704E+03  0.41800000000E+01 0. -1.
         -5    1    3    3    0  502  0.21000755352E+02 -0.15816836877E+02 -0.28124438112E+03  0.28250146613E+03  0.41800000000E+01 0. -1.
        -11    1    1    2    0    0  0.47220308780E+01  0.64450573839E+02 -0.39004706776E+03  0.39536424865E+03  0.00000000000E+00 0. -1.
         11    1    1    2    0    0  0.53296607535E+02  0.32831563099E+01 -0.16655481541E+03  0.17490515723E+03  0.00000000000E+00 0.  1.
</event>
<event>
 7    1  0.2732144E-009  0.1144245E+03  0.7561462E-02  0.1252589E+00
         -2   -1    0    0    0  501 -0.00000000000E+00  0.00000000000E+00  0.32837823367E+02  0.32837823367E+02  0.00000000000E+00 0. -1.
          2   -1    0    0  501    0  0.00000000000E+00 -0.00000000000E+00 -0.68582003905E+03  0.68582003905E+03  0.00000000000E+00 0.  1.
         25    2    1    2    0    0 -0.96205400698E+02  0.13055538766E+02 -0.43813257266E+03  0.46586833271E+03  0.12508887233E+03 0.  0.
          5    1    3    3  502    0 -0.98969546125E+02  0.12034540397E+02 -0.44570055828E+03  0.45673434432E+03  0.41800000000E+01 0. -1.
         -5    1    3    3    0  502  0.27641454265E+01  0.10209983690E+01  0.75679856238E+01  0.91339883956E+01  0.41800000000E+01 0. -1.
        -11    1    1    2    0    0  0.10476470095E+03 -0.26450862723E+02 -0.14316889713E+03  0.17936728746E+03  0.00000000000E+00 0. -1.
         11    1    1    2    0    0 -0.85593002566E+01  0.13395323958E+02 -0.71680745890E+02  0.73422242244E+02  0.00000000000E+00 0.  1.
</event>
<event>
 7    1  0.2732144E-009  0.1405680E+03  0.7561462E-02  0.1212567E+00
          2   -1    0    0  501    0  0.00000000000E+00  0.00000000000E+00  0.80203312052E+02  0.80203312052E+02  0.00000000000E+00 0. -1.
         -2   -1    0    0    0  501 -0.00000000000E+00 -0.00000000000E+00 -0.38634169989E+03  0.38634169989E+03  0.00000000000E+00 0.  1.
         25    2    1    2    0    0  0.67623275182E+02  0.10029338534E+03 -0.71728265743E+02  0.18821203964E+03  0.12508859769E+03 0.  0.
          5    1    3    3  502    0  0.16181192251E+02  0.68869109370E+02 -0.99135854236E+02  0.12186129494E+03  0.41800000000E+01 0. -1.
         -5    1    3    3    0  502  0.51442082931E+02  0.31424275966E+02  0.27407588494E+02  0.66350744708E+02  0.41800000000E+01 0. -1.
        -11    1    1    2    0    0 -0.14196842239E+01 -0.80822765120E+02 -0.13407004878E+03  0.15655386564E+03  0.00000000000E+00 0.  1.
         11    1    1    2    0    0 -0.66203590958E+02 -0.19470620216E+02 -0.10034007331E+03  0.12177910666E+03  0.00000000000E+00 0. -1.
</event>
<event>
 7    1  0.2732144E-009  0.1693551E+03  0.7561462E-02  0.1178522E+00
         -1   -1    0    0    0  501 -0.00000000000E+00  0.00000000000E+00  0.17839738229E+03  0.17839738229E+03  0.00000000000E+00 0.  1.
          1   -1    0    0  501    0  0.00000000000E+00 -0.00000000000E+00 -0.17987871115E+03  0.17987871115E+03  0.00000000000E+00 0. -1.
         25    2    1    2    0    0  0.12044127146E+02 -0.13790501006E+03 -0.29929109092E+02  0.18896185936E+03  0.12509188592E+03 0.  0.
          5    1    3    3  502    0  0.64215406407E+02 -0.10823528808E+03 -0.13801611191E+02  0.12667459444E+03  0.41800000000E+01 0.  1.
         -5    1    3    3    0  502 -0.52171279260E+02 -0.29669721977E+02 -0.16127497901E+02  0.62287264914E+02  0.41800000000E+01 0.  1.
        -11    1    1    2    0    0  0.18420037290E+02  0.10928807459E+03  0.50798290384E+02  0.12191655887E+03  0.00000000000E+00 0.  1.
         11    1    1    2    0    0 -0.30464164436E+02  0.28616935469E+02 -0.22350510153E+02  0.47397675201E+02  0.00000000000E+00 0. -1.
</event>
<event>
 7    1  0.2732144E-009  0.1335786E+03  0.7561462E-02  0.1222240E+00
         -2   -1    0    0    0  501 -0.00000000000E+00  0.00000000000E+00  0.54974939551E+02  0.54974939551E+02  0.00000000000E+00 0.  1.
          2   -1    0    0  501    0  0.00000000000E+00 -0.00000000000E+00 -0.43717537101E+03  0.43717537101E+03  0.00000000000E+00 0. -1.
         25    2    1    2    0    0  0.84523566573E+02  0.56174618767E+01 -0.32104792536E+03  0.35481751853E+03  0.12509161401E+03 0.  0.
          5    1    3    3  502    0 -0.28984051792E+02  0.21571237229E+02 -0.78460750175E+02  0.86480953116E+02  0.41800000000E+01 0.  1.
         -5    1    3    3    0  502  0.11350761836E+03 -0.15953775352E+02 -0.24258717518E+03  0.26833656541E+03  0.41800000000E+01 0.  1.
        -11    1    1    2    0    0 -0.50249986295E+02 -0.42445519407E+02 -0.11741381309E+02  0.66817237862E+02  0.00000000000E+00 0.  1.
         11    1    1    2    0    0 -0.34273580278E+02  0.36828057531E+02 -0.49411124792E+02  0.70515554169E+02  0.00000000000E+00 0. -1.
</event>
<event>
 7    1  0.2732144E-009  0.1388806E+03  0.7561462E-02  0.1214843E+00
         -2   -1    0    0    0  501 -0.00000000000E+00  0.00000000000E+00  0.30752740253E+02  0.30752740253E+02  0.00000000000E+00 0.  1.
          2   -1    0    0  501    0  0.00000000000E+00 -0.00000000000E+00 -0.74434605057E+03  0.74434605057E+03  0.00000000000E+00 0. -1.
         25    2    1    2    0    0 -0.69311423549E+02 -0.82046696285E+02 -0.36667563388E+03  0.40203809857E+03  0.12509148018E+03 0.  0.
          5    1    3    3  502    0  0.28990283315E+02 -0.17391321043E+01 -0.28940796623E+02  0.41212901091E+02  0.41800000000E+01 0.  1.
         -5    1    3    3    0  502 -0.98301706864E+02 -0.80307564181E+02 -0.33773483726E+03  0.36082519748E+03  0.41800000000E+01 0.  1.
        -11    1    1    2    0    0  0.38797882028E+02  0.82206048548E+02 -0.31901289286E+03  0.33171122363E+03  0.00000000000E+00 0. -1.
         11    1    1    2    0    0  0.30513541521E+02 -0.15935226279E+00 -0.27904783571E+02  0.41349468623E+02  0.00000000000E+00 0.  1.
</event>
<event>
 7    1  0.2732144E-009  0.1083607E+03  0.7561462E-02  0.1263636E+00
         -1   -1    0    0    0  501 -0.00000000000E+00  0.00000000000E+00  0.11995501503E+03  0.11995501503E+03  0.00000000000E+00 0.  1.
          1   -1    0    0  501    0  0.00000000000E+00 -0.00000000000E+00 -0.11806251855E+03  0.11806251855E+03  0.00000000000E+00 0. -1.
         25    2    1    2    0    0  0.45216378537E+02  0.97313800601E+01  0.21976564899E+02  0.13516559973E+03  0.12509016468E+03 0.  0.
          5    1    3    3  502    0  0.71376509396E+02 -0.25923373133E+02  0.41506562299E+02  0.86642336545E+02  0.41800000000E+01 0. -1.
         -5    1    3    3    0  502 -0.26160130859E+02  0.35654753193E+02 -0.19529997400E+02  0.48523263187E+02  0.41800000000E+01 0. -1.
        -11    1    1    2    0    0 -0.76676387072E+01  0.36153989635E+02 -0.22929177752E+02  0.43493112584E+02  0.00000000000E+00 0. -1.
         11    1    1    2    0    0 -0.37548739830E+02 -0.45885369695E+02  0.28451093240E+01  0.59358821264E+02  0.00000000000E+00 0.  1.
</event>
<event>
 7    1  0.2732144E-009  0.9304258E+02  0.7561462E-02  0.1295647E+00
         -2   -1    0    0    0  501 -0.00000000000E+00  0.00000000000E+00  0.20257688875E+02  0.20257688875E+02  0.00000000000E+00 0.  1.
          2   -1    0    0  501    0  0.00000000000E+00 -0.00000000000E+00 -0.80804401744E+03  0.80804401744E+03  0.00000000000E+00 0. -1.
         25    2    1    2    0    0 -0.36485881508E+02 -0.11476395623E+02 -0.61160280347E+03  0.62543451685E+03  0.12508964164E+03 0.  0.
          5    1    3    3  502    0  0.91956118168E+00  0.41074116164E+02 -0.81105789752E+02  0.91014010695E+02  0.41800000000E+01 0. -1.
         -5    1    3    3    0  502 -0.37405442690E+02 -0.52550511788E+02 -0.53049701372E+03  0.53442050616E+03  0.41800000000E+01 0. -1.
        -11    1    1    2    0    0  0.36251788893E+02 -0.24767727911E+02 -0.15453153380E+03  0.16064752560E+03  0.00000000000E+00 0. -1.
         11    1    1    2    0    0  0.23409261466E+00  0.36244123534E+02 -0.21651991301E+02  0.42219663871E+02  0.00000000000E+00 0.  1.
</event>
<event>
 7    1  0.3389451E-009  0.1433448E+03  0.7561462E-02  0.1208898E+00
         -2   -1    0    0    0  501 -0.00000000000E+00  0.00000000000E+00  0.36068893325E+02  0.36068893325E+02  0.00000000000E+00 0.  1.
          2   -1    0    0  501    0  0.00000000000E+00 -0.00000000000E+00 -0.97494752150E+03  0.97494752150E+03  0.00000000000E+00 0. -1.
         25    2    1    2    0    0  0.77830051712E+02 -0.11754930065E+03 -0.33620599053E+03  0.38543106869E+03  0.12508911066E+03 0.  0.
          5    1    3    3  502    0  0.65096258218E+02 -0.94711580192E+02 -0.11496365823E+03  0.16260972102E+03  0.41800000000E+01 0. -1.
         -5    1    3    3    0  502  0.12733793494E+02 -0.22837720459E+02 -0.22124233231E+03  0.22282134767E+03  0.41800000000E+01 0. -1.
        -11    1    1    2    0    0 -0.37880191072E+02  0.27853595119E+02 -0.72603707586E+02  0.86498728267E+02  0.00000000000E+00 0.  1.
         11    1    1    2    0    0 -0.39949860640E+02  0.89695705532E+02 -0.53006893006E+03  0.53908661787E+03  0.00000000000E+00 0. -1.
</event>
<event>
 7    1  0.2732144E-009  0.1194883E+03  0.7561462E-02  0.1243944E+00
          2   -1    0    0  501    0  0.00000000000E+00  0.00000000000E+00  0.45480915564E+03  0.45480915564E+03  0.00000000000E+00 0. -1.
         -2   -1    0    0    0  501 -0.00000000000E+00 -0.00000000000E+00 -0.45468630657E+02  0.45468630657E+02  0.00000000000E+00 0.  1.
         25    2    1    2    0    0 -0.33168105244E+02  0.82257558139E+02  0.16928664379E+03  0.22840903480E+03  0.12508513235E+03 0.  0.
          5    1    3    3  502    0 -0.19722676593E+02  0.92566771961E+02  0.18309726267E+03  0.20615448392E+03  0.41800000000E+01 0.  1.
         -5    1    3    3    0  502 -0.13445428651E+02 -0.10309213822E+02 -0.13810618875E+02  0.22254550881E+02  0.41800000000E+01 0.  1.
        -11    1    1    2    0    0 -0.29921395772E+02 -0.11670625858E+02  0.48080169660E+02  0.57820378305E+02  0.00000000000E+00 0.  1.
         11    1    1    2    0    0  0.63089501016E+02 -0.70586932281E+02  0.19197371153E+03  0.21404837319E+03  0.00000000000E+00 0. -1.
</event>
<event>
 7    1  0.2732144E-009  0.1125835E+03  0.7561462E-02  0.1255859E+00
          2   -1    0    0  501    0  0.00000000000E+00  0.00000000000E+00  0.57741238541E+02  0.57741238541E+02  0.00000000000E+00 0. -1.
         -2   -1    0    0    0  501 -0.00000000000E+00 -0.00000000000E+00 -0.37819583178E+03  0.37819583178E+03  0.00000000000E+00 0.  1.
         25    2    1    2    0    0  0.88322024231E+02 -0.45102486236E+02 -0.20151780302E+03  0.25708273293E+03  0.12508833842E+03 0.  0.
          5    1    3    3  502    0  0.32056544070E+02 -0.40874526615E+02 -0.19294411790E+03  0.19985808459E+03  0.41800000000E+01 0.  1.
         -5    1    3    3    0  502  0.56265480161E+02 -0.42279596205E+01 -0.85736851112E+01  0.57224648332E+02  0.41800000000E+01 0.  1.
        -11    1    1    2    0    0 -0.20069048612E+02 -0.15375887198E+02 -0.71962045077E+02  0.76273983448E+02  0.00000000000E+00 0.  1.
         11    1    1    2    0    0 -0.68252975619E+02  0.60478373434E+02 -0.46974745145E+02  0.10258035395E+03  0.00000000000E+00 0. -1.
</event>
<event>
 7    1  0.2732144E-009  0.1322308E+03  0.7561462E-02  0.1224183E+00
          2   -1    0    0  501    0  0.00000000000E+00  0.00000000000E+00  0.16298125882E+03  0.16298125882E+03  0.00000000000E+00 0. -1.
         -2   -1    0    0    0  501 -0.00000000000E+00 -0.00000000000E+00 -0.11662305912E+03  0.11662305912E+03  0.00000000000E+00 0.  1.
         25    2    1    2    0    0 -0.40940891977E+02  0.84071964111E+02  0.37566095684E+02  0.16063548932E+03  0.12509315369E+03 0.  0.
          5    1    3    3  502    0  0.41655753976E+02  0.44585021682E+02  0.31485904165E+02  0.68788520545E+02  0.41800000000E+01 0.  1.
         -5    1    3    3    0  502 -0.82596645952E+02  0.39486942429E+02  0.60801915189E+01  0.91846968779E+02  0.41800000000E+01 0.  1.
        -11    1    1    2    0    0  0.36882036471E+02 -0.11021842707E+02 -0.16046897053E+02  0.41704538553E+02  0.00000000000E+00 0.  1.
         11    1    1    2    0    0  0.40588555056E+01 -0.73050121405E+02  0.24839001061E+02  0.77264290063E+02  0.00000000000E+00 0. -1.
</event>
<event>
 7    1  0.2732144E-009  0.1045764E+03  0.7561462E-02  0.1270956E+00
         -1   -1    0    0    0  501 -0.00000000000E+00  0.00000000000E+00  0.17029666820E+03  0.17029666820E+03  0.00000000000E+00 0.  1.
          1   -1    0    0  501    0  0.00000000000E+00 -0.00000000000E+00 -0.10885982118E+03  0.10885982118E+03  0.00000000000E+00 0. -1.
         25    2    1    2    0    0 -0.17687172967E+02  0.71716562376E+02 -0.46439170093E+01  0.14534410174E+03  0.12508893052E+03 0.  0.
          5    1    3    3  502    0 -0.31630842569E+02  0.84928772381E+02 -0.44390281028E+02  0.10100186152E+03  0.41800000000E+01 0.  1.
         -5    1    3    3    0  502  0.13943669602E+02 -0.13212210006E+02  0.39746364019E+02  0.44342240222E+02  0.41800000000E+01 0.  1.
        -11    1    1    2    0    0 -0.91587166539E+01 -0.71335859023E+02  0.76512156620E+02  0.10500855672E+03  0.00000000000E+00 0.  1.
         11    1    1    2    0    0  0.26845889621E+02 -0.38070335315E+00 -0.10431392597E+02  0.28803830927E+02  0.00000000000E+00 0. -1.
</event>
<event>
 7    1  0.2732144E-009  0.1702484E+03  0.7561462E-02  0.1177589E+00
          2   -1    0    0  501    0  0.00000000000E+00  0.00000000000E+00  0.46790108000E+03  0.46790108000E+03  0.00000000000E+00 0. -1.
         -2   -1    0    0    0  501 -0.00000000000E+00 -0.00000000000E+00 -0.80315025205E+02  0.80315025205E+02  0.00000000000E+00 0.  1.
         25    2    1    2    0    0  0.14846297329E+03 -0.18306216879E+02  0.12233246608E+03  0.23020078665E+03  0.12510314906E+03 0.  0.
          5    1    3    3  502    0  0.11116510038E+03  0.32188186408E+02  0.32052010006E+02  0.12016057020E+03  0.41800000000E+01 0.  1.
         -5    1    3    3    0  502  0.37297872913E+02 -0.50494403287E+02  0.90280456075E+02  0.11004021645E+03  0.41800000000E+01 0.  1.
        -11    1    1    2    0    0 -0.48236471227E+02 -0.22914921614E+02  0.15270191769E+03  0.16177059824E+03  0.00000000000E+00 0.  1.
         11    1    1    2    0    0 -0.10022650206E+03  0.41221138492E+02  0.11255167103E+03  0.15624472031E+03  0.00000000000E+00 0. -1.
</event>
<event>
 7    1  0.2732144E-009  0.1557743E+03  0.7561462E-02  0.1193552E+00
          1   -1    0    0  501    0  0.00000000000E+00  0.00000000000E+00  0.44347584089E+02  0.44347584089E+02  0.00000000000E+00 0. -1.
         -1   -1    0    0    0  501 -0.00000000000E+00 -0.00000000000E+00 -0.61926948709E+03  0.61926948709E+03  0.00000000000E+00 0.  1.
         25    2    1    2    0    0  0.32654506021E+02  0.11749431965E+03 -0.30206217428E+03  0.34894282579E+03  0.12509319177E+03 0.  0.
          5    1    3    3  502    0 -0.37770919193E+02  0.70152529035E+01 -0.38322107915E+02  0.54423455100E+02  0.41800000000E+01 0. -1.
         -5    1    3    3    0  502  0.70425425214E+02  0.11047906675E+03 -0.26374006637E+03  0.29451937069E+03  0.41800000000E+01 0. -1.
        -11    1    1    2    0    0 -0.55995053902E+02 -0.79791485103E+02 -0.24130440781E+03  0.26024977308E+03  0.00000000000E+00 0.  1.
         11    1    1    2    0    0  0.23340547881E+02 -0.37702834549E+02 -0.31555320899E+02  0.54424472303E+02  0.00000000000E+00 0. -1.
</event>
<event>
 7    1  0.2732144E-009  0.6012646E+02  0.7561462E-02  0.1397302E+00
          3   -1    0    0  501    0  0.00000000000E+00  0.00000000000E+00  0.47268428035E+02  0.47268428035E+02  0.00000000000E+00 0. -1.
         -3   -1    0    0    0  501 -0.00000000000E+00 -0.00000000000E+00 -0.26446276688E+03  0.26446276688E+03  0.00000000000E+00 0.  1.
         25    2    1    2    0    0 -0.12027257846E+02 -0.18703128036E+02 -0.13016302589E+03  0.18188296053E+03  0.12507811996E+03 0.  0.
          5    1    3    3  502    0 -0.76597884742E+01 -0.90325370786E+01 -0.15449824679E+03  0.15500786995E+03  0.41800000000E+01 0.  1.
         -5    1    3    3    0  502 -0.43674693721E+01 -0.96705909577E+01  0.24335220890E+02  0.26875090585E+02  0.41800000000E+01 0.  1.
        -11    1    1    2    0    0  0.49833433359E+02  0.28266713206E+02 -0.49249520450E+02  0.75550601721E+02  0.00000000000E+00 0. -1.
         11    1    1    2    0    0 -0.37806175513E+02 -0.95635851698E+01 -0.37781792497E+02  0.54297632660E+02  0.00000000000E+00 0.  1.
</event>
<event>
 7    1  0.2732144E-009  0.8933416E+02  0.7561462E-02  0.1304472E+00
         -2   -1    0    0    0  501 -0.00000000000E+00  0.00000000000E+00  0.29244716141E+02  0.29244716141E+02  0.00000000000E+00 0.  1.
          2   -1    0    0  501    0  0.00000000000E+00 -0.00000000000E+00 -0.27476408093E+03  0.27476408093E+03  0.00000000000E+00 0. -1.
         25    2    1    2    0    0  0.15309907234E+01  0.19845817701E+02 -0.18031714644E+03  0.22036167818E+03  0.12509514578E+03 0.  0.
          5    1    3    3  502    0 -0.58615910290E+02 -0.90063844198E+01 -0.76423604808E+02  0.96824478678E+02  0.41800000000E+01 0.  1.
         -5    1    3    3    0  502  0.60146901013E+02  0.28852202120E+02 -0.10389354163E+03  0.12353719950E+03  0.41800000000E+01 0.  1.
        -11    1    1    2    0    0 -0.23697986826E+02 -0.17505451904E+01 -0.30737550021E+02  0.38851717714E+02  0.00000000000E+00 0.  1.
         11    1    1    2    0    0  0.22166996103E+02 -0.18095272510E+02 -0.34464668336E+02  0.44795401180E+02  0.00000000000E+00 0. -1.
</event>
<event>
 7    1  0.2732144E-009  0.1623745E+03  0.7561462E-02  0.1186042E+00
          2   -1    0    0  501    0  0.00000000000E+00  0.00000000000E+00  0.40746678461E+03  0.40746678461E+03  0.00000000000E+00 0.  1.
         -2   -1    0    0    0  501 -0.00000000000E+00 -0.00000000000E+00 -0.68079802900E+02  0.68079802900E+02  0.00000000000E+00 0. -1.
         25    2    1    2    0    0  0.12002923314E+03  0.36792041242E+02  0.20365690958E+03  0.26998337576E+03  0.12511680647E+03 0.  0.
          5    1    3    3  502    0  0.12162985211E+03 -0.15650929292E+02  0.15978245167E+03  0.20146135305E+03  0.41800000000E+01 0.  1.
         -5    1    3    3    0  502 -0.16006189644E+01  0.52442970533E+02  0.43874457905E+02  0.68522022707E+02  0.41800000000E+01 0.  1.
        -11    1    1    2    0    0 -0.95160564421E+02 -0.62336986152E+02  0.12340977235E+03  0.16784339360E+03  0.00000000000E+00 0.  1.
         11    1    1    2    0    0 -0.24868668724E+02  0.25544944911E+02  0.12320299783E+02  0.37719818151E+02  0.00000000000E+00 0. -1.
</event>
<event>
 7    1  0.2732144E-009  0.8476351E+02  0.7561462E-02  0.1316052E+00
         -2   -1    0    0    0  501 -0.00000000000E+00  0.00000000000E+00  0.22183501314E+03  0.22183501314E+03  0.00000000000E+00 0.  1.
          2   -1    0    0  501    0  0.00000000000E+00 -0.00000000000E+00 -0.13224425524E+03  0.13224425524E+03  0.00000000000E+00 0. -1.
         25    2    1    2    0    0  0.56101212826E+02  0.17283420788E+02  0.16743814963E+03  0.21709149994E+03  0.12508845943E+03 0.  0.
          5    1    3    3  502    0  0.51499206681E+02  0.11609684413E+02  0.36448733705E+01  0.53082111514E+02  0.41800000000E+01 0. -1.
         -5    1    3    3    0  502  0.46020061455E+01  0.56737363759E+01  0.16379327626E+03  0.16400938843E+03  0.41800000000E+01 0. -1.
        -11    1    1    2    0    0 -0.73269540519E+02 -0.36940092518E+02 -0.74213473809E+02  0.11063740641E+03  0.00000000000E+00 0. -1.
         11    1    1    2    0    0  0.17168327692E+02  0.19656671730E+02 -0.36339179221E+01  0.26350362022E+02  0.00000000000E+00 0.  1.
</event>
<event>
 7    1  0.2732144E-009  0.1429248E+03  0.7561462E-02  0.1209447E+00
         -1   -1    0    0    0  501 -0.00000000000E+00  0.00000000000E+00  0.19237869547E+02  0.19237869547E+02  0.00000000000E+00 0.  1.
          1   -1    0    0  501    0  0.00000000000E+00 -0.00000000000E+00 -0.14561186425E+04  0.14561186425E+04  0.00000000000E+00 0. -1.
         25    2    1    2    0    0  0.10458860078E+03 -0.70197487988E+02 -0.83261583837E+03  0.85133036084E+03  0.12509111179E+03 0.  0.
          5    1    3    3  502    0  0.75617745414E+02 -0.66158563112E+02 -0.80377113660E+03  0.81003735181E+03  0.41800000000E+01 0.  1.
         -5    1    3    3    0  502  0.28970855363E+02 -0.40389248765E+01 -0.28844701772E+02  0.41293009033E+02  0.41800000000E+01 0.  1.
        -11    1    1    2    0    0 -0.11610614584E+03  0.38993887392E+02 -0.46824121038E+03  0.48399482585E+03  0.00000000000E+00 0.  1.
         11    1    1    2    0    0  0.11517545061E+02  0.31203600596E+02 -0.13602372420E+03  0.14003132535E+03  0.00000000000E+00 0. -1.
</event>
<event>
 7    1  0.2732144E-009  0.1228106E+03  0.7561462E-02  0.1238531E+00
         -1   -1    0    0    0  501 -0.00000000000E+00  0.00000000000E+00  0.93904522262E+02  0.93904522262E+02  0.00000000000E+00 0.  1.
          1   -1    0    0  501    0  0.00000000000E+00 -0.00000000000E+00 -0.17612365726E+03  0.17612365726E+03  0.00000000000E+00 0. -1.
         25    2    1    2    0    0 -0.54121818996E+00  0.62283779501E+02 -0.71122945042E+02  0.15679789890E+03  0.12509015022E+03 0.  0.
          5    1    3    3  502    0 -0.28009269235E+02  0.93569213689E+02 -0.52954699482E+02  0.11118178588E+03  0.41800000000E+01 0. -1.
         -5    1    3    3    0  502  0.27468051045E+02 -0.31285434188E+02 -0.18168245560E+02  0.45616113022E+02  0.41800000000E+01 0. -1.
        -11    1    1    2    0    0  0.42988719899E+02 -0.36174895824E+02  0.13311874604E+02  0.57739580289E+02  0.00000000000E+00 0.  1.
         11    1    1    2    0    0 -0.42447501709E+02 -0.26108883677E+02 -0.24408064564E+02  0.55490700338E+02  0.00000000000E+00 0. -1.
</event>
<event>
 7    1  0.2732144E-009  0.1709982E+03  0.7561462E-02  0.1176811E+00
          1   -1    0    0  501    0  0.00000000000E+00  0.00000000000E+00  0.64425945997E+03  0.64425945997E+03  0.00000000000E+00 0. -1.
         -1   -1    0    0    0  501 -0.00000000000E+00 -0.00000000000E+00 -0.77692466996E+02  0.77692466996E+02  0.00000000000E+00 0.  1.
         25    2    1    2    0    0 -0.11851238179E+03 -0.99981429131E+02  0.99661601095E+02  0.22275859409E+03  0.12508991047E+03 0.  0.
          5    1    3    3  502    0 -0.10248312714E+03 -0.51654251325E+02  0.12151311765E+03  0.16719408838E+03  0.41800000000E+01 0.  1.
         -5    1    3    3    0  502 -0.16029254652E+02 -0.48327177806E+02 -0.21851516555E+02  0.55564505713E+02  0.41800000000E+01 0.  1.
        -11    1    1    2    0    0  0.16293087839E+01  0.48201615878E+02  0.14609219004E+03  0.15384725676E+03  0.00000000000E+00 0.  1.
         11    1    1    2    0    0  0.11688307301E+03  0.51779813253E+02  0.32081320184E+03  0.34534607612E+03  0.00000000000E+00 0. -1.
</event>
<event>
 7    1  0.2732144E-009  0.9436731E+02  0.7561462E-02  0.1292607E+00
         -1   -1    0    0    0  501 -0.00000000000E+00  0.00000000000E+00  0.38257476859E+03  0.38257476859E+03  0.00000000000E+00 0.  1.
          1   -1    0    0  501    0  0.00000000000E+00 -0.00000000000E+00 -0.38317827736E+02  0.38317827736E+02  0.00000000000E+00 0. -1.
         25    2    1    2    0    0 -0.48535766901E+02 -0.23345592961E+02  0.23143377033E+03  0.26853070927E+03  0.12508562825E+03 0.  0.
          5    1    3    3  502    0 -0.25959551225E+01 -0.49006699491E+02  0.20235854622E+03  0.20826629397E+03  0.41800000000E+01 0. -1.
         -5    1    3    3    0  502 -0.45939811779E+02  0.25661106530E+02  0.29075224113E+02  0.60264415304E+02  0.41800000000E+01 0. -1.
        -11    1    1    2    0    0  0.37974965860E+02 -0.19414459071E+02  0.96296029845E+02  0.10531830143E+03  0.00000000000E+00 0.  1.
         11    1    1    2    0    0  0.10560801042E+02  0.42760052032E+02  0.16527140676E+02  0.47043585614E+02  0.00000000000E+00 0. -1.
</event>
<event>
 7    1  0.2732144E-009  0.2409678E+03  0.7561462E-02  0.1119150E+00
         -2   -1    0    0    0  501 -0.00000000000E+00  0.00000000000E+00  0.13251063999E+03  0.13251063999E+03  0.00000000000E+00 0.  1.
          2   -1    0    0  501    0  0.00000000000E+00 -0.00000000000E+00 -0.69019118836E+03  0.69019118836E+03  0.00000000000E+00 0. -1.
         25    2    1    2    0    0  0.20620647043E+03  0.10647259209E+03 -0.50254122249E+03  0.56749887754E+03  0.12509905831E+03 0.  0.
          5    1    3    3  502    0  0.85862208804E+02  0.92772627892E+02 -0.35324150788E+03  0.37520143214E+03  0.41800000000E+01 0.  1.
         -5    1    3    3    0  502  0.12034426162E+03  0.13699964199E+02 -0.14929971461E+03  0.19229744540E+03  0.41800000000E+01 0.  1.
        -11    1    1    2    0    0 -0.10021395025E+03 -0.69720658558E+02  0.14844282859E+02  0.12298031870E+03  0.00000000000E+00 0.  1.
         11    1    1    2    0    0 -0.10599252018E+03 -0.36751933533E+02 -0.69983608731E+02  0.13222263212E+03  0.00000000000E+00 0. -1.
</event>
<event>
 7    1  0.2732144E-009  0.7939312E+02  0.7561462E-02  0.1330783E+00
         -2   -1    0    0    0  501 -0.00000000000E+00  0.00000000000E+00  0.25571618211E+02  0.25571618211E+02  0.00000000000E+00 0.  1.
          2   -1    0    0  501    0  0.00000000000E+00 -0.00000000000E+00 -0.66221087131E+03  0.66221087131E+03  0.00000000000E+00 0. -1.
         25    2    1    2    0    0  0.12556053969E+01  0.55233708365E+02 -0.25496434458E+03  0.28932151418E+03  0.12509109671E+03 0.  0.
          5    1    3    3  502    0 -0.16400369743E+02  0.46673318715E+02 -0.26304795345E+03  0.26769211610E+03  0.41800000000E+01 0. -1.
         -5    1    3    3    0  502  0.17655975140E+02  0.85603896500E+01  0.80836088671E+01  0.21629398082E+02  0.41800000000E+01 0. -1.
        -11    1    1    2    0    0 -0.26611124879E+02  0.17889341335E+01 -0.25635153056E+02  0.36993422724E+02  0.00000000000E+00 0.  1.
         11    1    1    2    0    0  0.25355519482E+02 -0.57022642499E+02 -0.35603975546E+03  0.36146755261E+03  0.00000000000E+00 0. -1.
</event>
<event>
 7    1  0.2732144E-009  0.1105269E+03  0.7561462E-02  0.1259597E+00
          1   -1    0    0  501    0  0.00000000000E+00  0.00000000000E+00  0.58975016639E+03  0.58975016639E+03  0.00000000000E+00 0. -1.
         -1   -1    0    0    0  501 -0.00000000000E+00 -0.00000000000E+00 -0.23982179265E+02  0.23982179265E+02  0.00000000000E+00 0.  1.
         25    2    1    2    0    0 -0.62208256866E+01  0.48951531184E+02  0.31737283496E+03  0.34468578354E+03  0.12509125439E+03 0.  0.
          5    1    3    3  502    0  0.54429915969E+02  0.66725972664E+01  0.18507812230E+03  0.19307646946E+03  0.41800000000E+01 0. -1.
         -5    1    3    3    0  502 -0.60650741655E+02  0.42278933918E+02  0.13229471266E+03  0.15160931408E+03  0.41800000000E+01 0. -1.
        -11    1    1    2    0    0  0.30975233016E+02  0.61682945948E+01  0.34468095950E+02  0.46750000610E+02  0.00000000000E+00 0.  1.
         11    1    1    2    0    0 -0.24754407330E+02 -0.55119825779E+02  0.21392705621E+03  0.22229656150E+03  0.00000000000E+00 0. -1.
</event>
<event>
 7    1  0.2732144E-009  0.1276735E+03  0.7561462E-02  0.1230949E+00
          2   -1    0    0  501    0  0.00000000000E+00  0.00000000000E+00  0.79701649408E+03  0.79701649408E+03  0.00000000000E+00 0. -1.
         -2   -1    0    0    0  501 -0.00000000000E+00 -0.00000000000E+00 -0.20820167485E+02  0.20820167485E+02  0.00000000000E+00 0.  1.
         25    2    1    2    0    0  0.11191552438E+02  0.68283387725E+02  0.41581183350E+03  0.43970014213E+03  0.12509541247E+03 0.  0.
          5    1    3    3  502    0  0.75493240934E+01 -0.35841397753E+02  0.80290610378E+02  0.88349604425E+02  0.41800000000E+01 0. -1.
         -5    1    3    3    0  502  0.36422283446E+01  0.10412478548E+03  0.33552122312E+03  0.35135053770E+03  0.41800000000E+01 0. -1.
        -11    1    1    2    0    0  0.39888403829E+02 -0.23623992206E+02  0.15968319661E+03  0.16627657997E+03  0.00000000000E+00 0. -1.
         11    1    1    2    0    0 -0.51079956267E+02 -0.44659395519E+02  0.20070129649E+03  0.21185993947E+03  0.00000000000E+00 0.  1.
</event>
<event>
 7    1  0.2732144E-009  0.1079756E+03  0.7561462E-02  0.1264365E+00
         -2   -1    0    0    0  501 -0.00000000000E+00  0.00000000000E+00  0.47581721261E+03  0.47581721261E+03  0.00000000000E+00 0.  1.
          2   -1    0    0  501    0  0.00000000000E+00 -0.00000000000E+00 -0.28936269283E+02  0.28936269283E+02  0.00000000000E+00 0. -1.
         25    2    1    2    0    0  0.52269700136E+01 -0.40054102598E+02  0.28309164252E+03  0.31211994633E+03  0.12508529284E+03 0.  0.
          5    1    3    3  502    0  0.30579603393E+02 -0.75324627996E+02  0.22632525054E+03  0.24051923657E+03  0.41800000000E+01 0. -1.
         -5    1    3    3    0  502 -0.25352633380E+02  0.35270525398E+02  0.56766391975E+02  0.71600709766E+02  0.41800000000E+01 0. -1.
        -11    1    1    2    0    0 -0.41662070043E+02  0.80858307435E+01  0.12010172421E+03  0.12737948382E+03  0.00000000000E+00 0.  1.
         11    1    1    2    0    0  0.36435100029E+02  0.31968271855E+02  0.43687576595E+02  0.65254051739E+02  0.00000000000E+00 0. -1.
</event>
<event>
 7    1  0.2732144E-009  0.1067174E+03  0.7561462E-02  0.1266772E+00
         -3   -1    0    0    0  501 -0.00000000000E+00  0.00000000000E+00  0.20134998368E+02  0.20134998368E+02  0.00000000000E+00 0.  1.
          3   -1    0    0  501    0  0.00000000000E+00 -0.00000000000E+00 -0.66011249616E+03  0.66011249616E+03  0.00000000000E+00 0. -1.
         25    2    1    2    0    0  0.10944269651E+02  0.22397268717E+02 -0.46512773257E+03  0.48230014570E+03  0.12509279853E+03 0.  0.
          5    1    3    3  502    0 -0.48741927889E+02  0.38685202282E+02 -0.17973580826E+03  0.19024918812E+03  0.41800000000E+01 0. -1.
         -5    1    3    3    0  502  0.59686197540E+02 -0.16287933565E+02 -0.28539192431E+03  0.29205095757E+03  0.41800000000E+01 0. -1.
        -11    1    1    2    0    0  0.13569754498E+02  0.29052618681E+02 -0.38103936809E+02  0.49800631419E+02  0.00000000000E+00 0.  1.
         11    1    1    2    0    0 -0.24514024149E+02 -0.51449887397E+02 -0.13674582841E+03  0.14814671741E+03  0.00000000000E+00 0. -1.
</event>
<event>
 7    1  0.2732144E-009  0.1835924E+03  0.7561462E-02  0.1164371E+00
         -1   -1    0    0    0  501 -0.00000000000E+00  0.00000000000E+00  0.23357560659E+03  0.23357560659E+03  0.00000000000E+00 0.  1.
          1   -1    0    0  501    0  0.00000000000E+00 -0.00000000000E+00 -0.18138190943E+03  0.18138190943E+03  0.00000000000E+00 0. -1.
         25    2    1    2    0    0  0.14312714441E+03  0.93520134635E+02 -0.83741958533E+01  0.21201192539E+03  0.12509010473E+03 0.  0.
          5    1    3    3  502    0  0.81271943643E+02  0.54824993109E+01  0.43558533020E+02  0.92466236114E+02  0.41800000000E+01 0. -1.
         -5    1    3    3    0  502  0.61855200767E+02  0.88037635324E+02 -0.51932728873E+02  0.11954568927E+03  0.41800000000E+01 0. -1.
        -11    1    1    2    0    0 -0.99920055767E+02 -0.90199175699E+02  0.80406753783E+01  0.13485014387E+03  0.00000000000E+00 0. -1.
         11    1    1    2    0    0 -0.43207088643E+02 -0.33209589355E+01  0.52527217640E+02  0.68095446766E+02  0.00000000000E+00 0.  1.
</event>
<event>
 7    1  0.2732144E-009  0.1142123E+03  0.7561462E-02  0.1252962E+00
         -2   -1    0    0    0  501 -0.00000000000E+00  0.00000000000E+00  0.34352362441E+02  0.34352362441E+02  0.00000000000E+00 0.  1.
          2   -1    0    0  501    0  0.00000000000E+00 -0.00000000000E+00 -0.42232842572E+03  0.42232842572E+03  0.00000000000E+00 0. -1.
         25    2    1    2    0    0  0.38547447816E+02  0.35433611037E+02 -0.23734142804E+03  0.27334682201E+03  0.12508431203E+03 0.  0.
          5    1    3    3  502    0 -0.13412555729E+01  0.71530262983E+02 -0.18404073025E+03  0.19750149438E+03  0.41800000000E+01 0.  1.
         -5    1    3    3    0  502  0.39888703388E+02 -0.36096651946E+02 -0.53300697785E+02  0.75845327635E+02  0.41800000000E+01 0.  1.
        -11    1    1    2    0    0 -0.19488308040E+02  0.29372900026E+02 -0.36752947251E+02  0.50924851868E+02  0.00000000000E+00 0.  1.
         11    1    1    2    0    0 -0.19059139775E+02 -0.64806511063E+02 -0.11388168799E+03  0.13240911428E+03  0.00000000000E+00 0. -1.
</event>
<event>
 7    1  0.2732144E-009  0.6170611E+02  0.7561462E-02  0.1390808E+00
         -1   -1    0    0    0  501 -0.00000000000E+00  0.00000000000E+00  0.67265514382E+02  0.67265514382E+02  0.00000000000E+00 0.  1.
          1   -1    0    0  501    0  0.00000000000E+00 -0.00000000000E+00 -0.18320513144E+03  0.18320513144E+03  0.00000000000E+00 0. -1.
         25    2    1    2    0    0  0.62453229772E+01  0.17010304943E+01 -0.76590495516E+02  0.14681917589E+03  0.12509144192E+03 0.  0.
          5    1    3    3  502    0  0.28617962119E+02  0.24814059907E+02  0.21326219407E+02  0.43669272482E+02  0.41800000000E+01 0.  1.
         -5    1    3    3    0  502 -0.22372639142E+02 -0.23113029412E+02 -0.97916714923E+02  0.10314990340E+03  0.41800000000E+01 0.  1.
        -11    1    1    2    0    0 -0.29004225564E+02 -0.62192620291E+01 -0.63545201279E+02  0.70127861271E+02  0.00000000000E+00 0. -1.
         11    1    1    2    0    0  0.22758902587E+02  0.45182315347E+01  0.24196079738E+02  0.33523608664E+02  0.00000000000E+00 0.  1.
</event>
<event>
 7    1  0.2732144E-009  0.1547066E+03  0.7561462E-02  0.1194806E+00
         -1   -1    0    0    0  501 -0.00000000000E+00  0.00000000000E+00  0.12249887351E+04  0.12249887351E+04  0.00000000000E+00 0.  1.
          1   -1    0    0  501    0  0.00000000000E+00 -0.00000000000E+00 -0.21842571600E+02  0.21842571600E+02  0.00000000000E+00 0. -1.
         25    2    1    2    0    0 -0.67806410756E+02  0.10445826025E+03  0.52948919503E+03  0.55813587279E+03  0.12509039680E+03 0.  0.
          5    1    3    3  502    0 -0.37054712008E+02 -0.18739239471E+02  0.70872130600E+02  0.82246836254E+02  0.41800000000E+01 0. -1.
         -5    1    3    3    0  502 -0.30751698748E+02  0.12319749972E+03  0.45861706443E+03  0.47588903654E+03  0.41800000000E+01 0. -1.
        -11    1    1    2    0    0  0.41375902462E+02 -0.10027528693E+02  0.14945261654E+03  0.15539820214E+03  0.00000000000E+00 0. -1.
         11    1    1    2    0    0  0.26430508294E+02 -0.94430731557E+02  0.52420435195E+03  0.53329723179E+03  0.00000000000E+00 0.  1.
</event>
<event>
 7    1  0.2732144E-009  0.1604368E+03  0.7561462E-02  0.1188204E+00
         -2   -1    0    0    0  501 -0.00000000000E+00  0.00000000000E+00  0.61451071145E+02  0.61451071145E+02  0.00000000000E+00 0.  1.
          2   -1    0    0  501    0  0.00000000000E+00 -0.00000000000E+00 -0.49090084139E+03  0.49090084139E+03  0.00000000000E+00 0. -1.
         25    2    1    2    0    0 -0.10105717945E+03  0.72334902456E+02 -0.14454987545E+03  0.22800744596E+03  0.12509131581E+03 0.  0.
          5    1    3    3  502    0 -0.12890835903E+03  0.61268665275E+02 -0.10068181828E+03  0.17471552680E+03  0.41800000000E+01 0. -1.
         -5    1    3    3    0  502  0.27851179576E+02  0.11066237181E+02 -0.43868057167E+02  0.53291919169E+02  0.41800000000E+01 0. -1.
        -11    1    1    2    0    0  0.93139814085E+02 -0.20473925295E+02 -0.13311663424E+03  0.16375055694E+03  0.00000000000E+00 0.  1.
         11    1    1    2    0    0  0.79173653665E+01 -0.51860977161E+02 -0.15178326056E+03  0.16059390964E+03  0.00000000000E+00 0. -1.
</event>
<event>
 7    1  0.2732144E-009  0.1108882E+03  0.7561462E-02  0.1258934E+00
          2   -1    0    0  501    0  0.00000000000E+00  0.00000000000E+00  0.56899291597E+03  0.56899291597E+03  0.00000000000E+00 0. -1.
         -2   -1    0    0    0  501 -0.00000000000E+00 -0.00000000000E+00 -0.27682949847E+02  0.27682949847E+02  0.00000000000E+00 0.  1.
         25    2    1    2    0    0 -0.18178548021E+02 -0.21488741535E+02  0.43203820051E+03  0.45066218427E+03  0.12508865660E+03 0.  0.
          5    1    3    3  502    0  0.27223260583E+02 -0.61423965919E+02  0.24240585899E+03  0.25157917716E+03  0.41800000000E+01 0. -1.
         -5    1    3    3    0  502 -0.45401808604E+02  0.39935224384E+02  0.18963234152E+03  0.19908300711E+03  0.41800000000E+01 0. -1.
        -11    1    1    2    0    0  0.54310765955E+02  0.63743622911E+01  0.45324077251E+02  0.71025092551E+02  0.00000000000E+00 0. -1.
         11    1    1    2    0    0 -0.36132217934E+02  0.15114379244E+02  0.63947688357E+02  0.74988588991E+02  0.00000000000E+00 0.  1.
</event>
<event>
 7    1  0.2732144E-009  0.8073497E+02  0.7561462E-02  0.1326979E+00
          2   -1    0    0  501    0  0.00000000000E+00  0.00000000000E+00  0.19632184842E+03  0.19632184842E+03  0.00000000000E+00 0. -1.
         -2   -1    0    0    0  501 -0.00000000000E+00 -0.00000000000E+00 -0.89561859850E+02  0.89561859850E+02  0.00000000000E+00 0.  1.
         25    2    1    2    0    0 -0.53528240815E+02  0.90976547915E+01  0.11608690529E+03  0.17908521845E+03  0.12508919218E+03 0.  0.
          5    1    3    3  502    0 -0.17867107264E+02  0.16095710803E+01 -0.26267122650E+02  0.32082056875E+02  0.41800000000E+01 0.  1.
         -5    1    3    3    0  502 -0.35661133551E+02  0.74880837113E+01  0.14235402794E+03  0.14700316158E+03  0.41800000000E+01 0.  1.
        -11    1    1    2    0    0  0.79413128591E+02 -0.16232040958E+01 -0.78250001665E+01  0.79814224370E+02  0.00000000000E+00 0.  1.
         11    1    1    2    0    0 -0.25884887777E+02 -0.74744506957E+01 -0.15019165500E+01  0.26984265447E+02  0.00000000000E+00 0. -1.
</event>
<event>
 7    1  0.2732144E-009  0.1026261E+03  0.7561462E-02  0.1274869E+00
         -1   -1    0    0    0  501 -0.00000000000E+00  0.00000000000E+00  0.41692928340E+02  0.41692928340E+02  0.00000000000E+00 0.  1.
          1   -1    0    0  501    0  0.00000000000E+00 -0.00000000000E+00 -0.35911855428E+03  0.35911855428E+03  0.00000000000E+00 0. -1.
         25    2    1    2    0    0 -0.43991312954E+02 -0.94224630910E+01 -0.23721333268E+03  0.27192144215E+03  0.12508831709E+03 0.  0.
          5    1    3    3  502    0 -0.52652342952E+02  0.36814649254E+02 -0.58218628311E+02  0.86801317389E+02  0.41800000000E+01 0. -1.
         -5    1    3    3    0  502  0.86610299977E+01 -0.46237112345E+02 -0.17899470437E+03  0.18512012476E+03  0.41800000000E+01 0. -1.
        -11    1    1    2    0    0  0.20180166874E+02 -0.36617707060E+02 -0.60271383907E+02  0.73353495646E+02  0.00000000000E+00 0. -1.
         11    1    1    2    0    0  0.23811146079E+02  0.46040170151E+02 -0.19940909350E+02  0.55536544823E+02  0.00000000000E+00 0.  1.
</event>
<event>
 7    1  0.2732144E-009  0.1140270E+03  0.7561462E-02  0.1253289E+00
         -1   -1    0    0    0  501 -0.00000000000E+00  0.00000000000E+00  0.11010971153E+03  0.11010971153E+03  0.00000000000E+00 0.  1.
          1   -1    0    0  501    0  0.00000000000E+00 -0.00000000000E+00 -0.13327928845E+03  0.13327928845E+03  0.00000000000E+00 0. -1.
         25    2    1    2    0    0  0.56238661038E+02 -0.16582350808E+02 -0.99173434640E+01  0.13849370731E+03  0.12507754359E+03 0.  0.
          5    1    3    3  502    0  0.21954740698E+02  0.46890247035E+02 -0.34280729202E+02  0.62236216954E+02  0.41800000000E+01 0.  1.
         -5    1    3    3    0  502  0.34283920339E+02 -0.63472597842E+02  0.24363385738E+02  0.76257490356E+02  0.41800000000E+01 0.  1.
        -11    1    1    2    0    0 -0.25267987620E+02  0.51385017348E+02 -0.40268470710E+01  0.57403019986E+02  0.00000000000E+00 0.  1.
         11    1    1    2    0    0 -0.30970673418E+02 -0.34802666540E+02 -0.92253863853E+01  0.47492272679E+02  0.00000000000E+00 0. -1.
</event>
<event>
 7    1  0.2732144E-009  0.1555209E+03  0.7561462E-02  0.1193848E+00
         -1   -1    0    0    0  501 -0.00000000000E+00  0.00000000000E+00  0.61027735326E+02  0.61027735326E+02  0.00000000000E+00 0.  1.
          1   -1    0    0  501    0  0.00000000000E+00 -0.00000000000E+00 -0.57529998297E+03  0.57529998297E+03  0.00000000000E+00 0. -1.
         25    2    1    2    0    0  0.91498838544E+02 -0.11820481723E+03 -0.21866932648E+03  0.29293050620E+03  0.12509033075E+03 0.  0.
          5    1    3    3  502    0 -0.40572670587E+00 -0.41631909555E+02  0.19969226333E+01  0.41890817698E+02  0.41800000000E+01 0.  1.
         -5    1    3    3    0  502  0.91904565250E+02 -0.76572907674E+02 -0.22066624911E+03  0.25103968850E+03  0.41800000000E+01 0.  1.
        -11    1    1    2    0    0 -0.15631756220E+02  0.21777787945E+02 -0.15275883825E+03  0.15509315431E+03  0.00000000000E+00 0. -1.
         11    1    1    2    0    0 -0.75867082324E+02  0.96427029284E+02 -0.14284408292E+03  0.18830405779E+03  0.00000000000E+00 0.  1.
</event>
<event>
 7    1  0.2732144E-009  0.1341004E+03  0.7561462E-02  0.1221495E+00
         -2   -1    0    0    0  501 -0.00000000000E+00  0.00000000000E+00  0.38730556865E+02  0.38730556865E+02  0.00000000000E+00 0.  1.
          2   -1    0    0  501    0  0.00000000000E+00 -0.00000000000E+00 -0.63772140750E+03  0.63772140750E+03  0.00000000000E+00 0. -1.
         25    2    1    2    0    0  0.41857537553E+02 -0.10265961028E+03 -0.26602183591E+03  0.31416922891E+03  0.12507453050E+03 0.  0.
          5    1    3    3  502    0 -0.14108373887E+02 -0.48286754048E+02 -0.21499825328E+03  0.22084469236E+03  0.41800000000E+01 0.  1.
         -5    1    3    3    0  502  0.55965911441E+02 -0.54372856233E+02 -0.51023582639E+02  0.93324536557E+02  0.41800000000E+01 0.  1.
        -11    1    1    2    0    0 -0.59671595131E+02  0.34064721639E+02 -0.12600965303E+03  0.14352538863E+03  0.00000000000E+00 0.  1.
         11    1    1    2    0    0  0.17814057577E+02  0.68594888642E+02 -0.20695936169E+03  0.21875734682E+03  0.00000000000E+00 0. -1.
</event>
<event>
 7    1  0.2732144E-009  0.1073691E+03  0.7561462E-02  0.1265521E+00
          1   -1    0    0  501    0  0.00000000000E+00  0.00000000000E+00  0.98796473723E+02  0.98796473723E+02  0.00000000000E+00 0. -1.
         -1   -1    0    0    0  501 -0.00000000000E+00 -0.00000000000E+00 -0.13113410067E+03  0.13113410067E+03  0.00000000000E+00 0.  1.
         25    2    1    2    0    0  0.21504710193E+02 -0.64570284486E+00  0.96731577720E+01  0.12729733236E+03  0.12509265107E+03 0.  0.
          5    1    3    3  502    0  0.73528618790E+02 -0.47004785737E+01  0.12607266721E+02  0.74866333249E+02  0.41800000000E+01 0. -1.
         -5    1    3    3    0  502 -0.52023908597E+02  0.40547757289E+01 -0.29341089487E+01  0.52430999106E+02  0.41800000000E+01 0. -1.
        -11    1    1    2    0    0 -0.34543592315E+02 -0.35881805895E+02 -0.39851972217E+02  0.63788270504E+02  0.00000000000E+00 0. -1.
         11    1    1    2    0    0  0.13038882122E+02  0.36527508740E+02 -0.21588124972E+01  0.38844971529E+02  0.00000000000E+00 0.  1.
</event>
<event>
 7    1  0.2732144E-009  0.2388616E+03  0.7561462E-02  0.1120553E+00
          1   -1    0    0  501    0  0.00000000000E+00  0.00000000000E+00  0.14304525241E+04  0.14304525241E+04  0.00000000000E+00 0. -1.
         -1   -1    0    0    0  501 -0.00000000000E+00 -0.00000000000E+00 -0.44332240941E+02  0.44332240941E+02  0.00000000000E+00 0.  1.
         25    2    1    2    0    0 -0.12641769675E+03  0.17441934841E+03  0.76864254456E+03  0.80799977333E+03  0.12509488096E+03 0.  0.
          5    1    3    3  502    0 -0.83232219903E+02  0.46123055179E+02  0.17644066226E+03  0.20050864906E+03  0.41800000000E+01 0.  1.
         -5    1    3    3    0  502 -0.43185476852E+02  0.12829629323E+03  0.59220188230E+03  0.60749112427E+03  0.41800000000E+01 0.  1.
        -11    1    1    2    0    0  0.58397824295E+02  0.15118197678E+01  0.20622076256E+03  0.21433523834E+03  0.00000000000E+00 0. -1.
         11    1    1    2    0    0  0.68019872460E+02 -0.17593116818E+03  0.41125697601E+03  0.45244975334E+03  0.00000000000E+00 0.  1.
</event>
<event>
 7    1  0.2732144E-009  0.2697170E+03  0.7561462E-02  0.1101442E+00
         -1   -1    0    0    0  501 -0.00000000000E+00  0.00000000000E+00  0.52415767235E+02  0.52415767235E+02  0.00000000000E+00 0.  1.
          1   -1    0    0  501    0  0.00000000000E+00 -0.00000000000E+00 -0.16097634929E+04  0.16097634929E+04  0.00000000000E+00 0. -1.
         25    2    1    2    0    0 -0.25745384357E+03 -0.62400908020E+02 -0.92911187218E+03  0.97420407788E+03  0.12509340285E+03 0.  0.
          5    1    3    3  502    0 -0.18153839309E+03 -0.19728206951E+02 -0.78329471205E+03  0.80430931154E+03  0.41800000000E+01 0.  1.
         -5    1    3    3    0  502 -0.75915450483E+02 -0.42672701070E+02 -0.14581716014E+03  0.16989476634E+03  0.41800000000E+01 0.  1.
        -11    1    1    2    0    0  0.47478001680E+02 -0.79605631924E+01 -0.53076864115E+02  0.71656714369E+02  0.00000000000E+00 0.  1.
         11    1    1    2    0    0  0.20997584189E+03  0.70361471213E+02 -0.57515898936E+03  0.61631846788E+03  0.00000000000E+00 0. -1.
</event>
<event>
 7    1  0.2732144E-009  0.2236237E+03  0.7561462E-02  0.1131210E+00
         -2   -1    0    0    0  501 -0.00000000000E+00  0.00000000000E+00  0.83413674852E+03  0.83413674852E+03  0.00000000000E+00 0.  1.
          2   -1    0    0  501    0  0.00000000000E+00 -0.00000000000E+00 -0.81382373610E+02  0.81382373610E+02  0.00000000000E+00 0. -1.
         25    2    1    2    0    0  0.18567487171E+03  0.79730043760E+02  0.19246908059E+03  0.30581989407E+03  0.12509765291E+03 0.  0.
          5    1    3    3  502    0  0.15964189425E+03  0.10708407824E+03  0.12798721789E+03  0.23097777935E+03  0.41800000000E+01 0.  1.
         -5    1    3    3    0  502  0.26032977459E+02 -0.27354034481E+02  0.64481862701E+02  0.74842114716E+02  0.41800000000E+01 0.  1.
        -11    1    1    2    0    0 -0.21235218462E+02  0.16104413043E+02  0.11831057849E+02  0.29159227569E+02  0.00000000000E+00 0. -1.
         11    1    1    2    0    0 -0.16443965324E+03 -0.95834456803E+02  0.54845423647E+03  0.58054000050E+03  0.00000000000E+00 0.  1.
</event>
<event>
 7    1  0.2732144E-009  0.1321758E+03  0.7561462E-02  0.1224262E+00
          2   -1    0    0  501    0  0.00000000000E+00  0.00000000000E+00  0.14836910824E+03  0.14836910824E+03  0.00000000000E+00 0. -1.
         -2   -1    0    0    0  501 -0.00000000000E+00 -0.00000000000E+00 -0.14253175235E+03  0.14253175235E+03  0.00000000000E+00 0.  1.
         25    2    1    2    0    0  0.73969539794E+02  0.51487203713E+02  0.38022066115E+02  0.15879332564E+03  0.12508883960E+03 0.  0.
          5    1    3    3  502    0 -0.87956706034E+01  0.52922801508E+02 -0.20228820935E+02  0.57487949496E+02  0.41800000000E+01 0. -1.
         -5    1    3    3    0  502  0.82765210398E+02 -0.14355977959E+01  0.58250887049E+02  0.10130537614E+03  0.41800000000E+01 0. -1.
        -11    1    1    2    0    0 -0.57155835609E+02 -0.77735039705E+02 -0.19403206403E+02  0.98417530759E+02  0.00000000000E+00 0. -1.
         11    1    1    2    0    0 -0.16813704185E+02  0.26247835992E+02 -0.12781503825E+02  0.33690004196E+02  0.00000000000E+00 0.  1.
</event>
<event>
 7    1  0.2732144E-009  0.1119108E+03  0.7561462E-02  0.1257072E+00
          3   -1    0    0  501    0  0.00000000000E+00  0.00000000000E+00  0.52375241595E+02  0.52375241595E+02  0.00000000000E+00 0. -1.
         -3   -1    0    0    0  501 -0.00000000000E+00 -0.00000000000E+00 -0.34752508187E+03  0.34752508187E+03  0.00000000000E+00 0.  1.
         25    2    1    2    0    0  0.14201407672E+02 -0.48042702991E+02 -0.25472848915E+03  0.28817354329E+03  0.12509039361E+03 0.  0.
          5    1    3    3  502    0  0.71806010059E+01 -0.83182380092E+02 -0.22922365838E+03  0.24399144934E+03  0.41800000000E+01 0.  1.
         -5    1    3    3    0  502  0.70208066663E+01  0.35139677101E+02 -0.25504830771E+02  0.44182093949E+02  0.41800000000E+01 0.  1.
        -11    1    1    2    0    0 -0.42328122236E+02  0.60129916603E+02 -0.29255704580E+02  0.79140211354E+02  0.00000000000E+00 0.  1.
         11    1    1    2    0    0  0.28126714564E+02 -0.12087213613E+02 -0.11165646547E+02  0.32586568827E+02  0.00000000000E+00 0. -1.
</event>
<event>
 7    1  0.2732144E-009  0.9838565E+02  0.7561462E-02  0.1283728E+00
          1   -1    0    0  501    0  0.00000000000E+00  0.00000000000E+00  0.49122115663E+03  0.49122115663E+03  0.00000000000E+00 0. -1.
         -1   -1    0    0    0  501 -0.00000000000E+00 -0.00000000000E+00 -0.36279856987E+02  0.36279856987E+02  0.00000000000E+00 0.  1.
         25    2    1    2    0    0 -0.27500814271E+02  0.69422759950E+02  0.25752170400E+03  0.29586698866E+03  0.12507610707E+03 0.  0.
          5    1    3    3  502    0  0.18488877381E+01 -0.23493423283E+02  0.40440625514E+01  0.24273157300E+02  0.41800000000E+01 0. -1.
         -5    1    3    3    0  502 -0.29349702009E+02  0.92916183232E+02  0.25347764145E+03  0.27159383136E+03  0.41800000000E+01 0. -1.
        -11    1    1    2    0    0  0.96481632669E+01 -0.13429480733E+02 -0.77146323942E+01  0.18247015103E+02  0.00000000000E+00 0.  1.
         11    1    1    2    0    0  0.17852651004E+02 -0.55993279216E+02  0.20513422804E+03  0.21338700986E+03  0.00000000000E+00 0. -1.
</event>
<event>
 7    1  0.2732144E-009  0.9475096E+02  0.7561462E-02  0.1291738E+00
          2   -1    0    0  501    0  0.00000000000E+00  0.00000000000E+00  0.35675949472E+02  0.35675949472E+02  0.00000000000E+00 0. -1.
         -2   -1    0    0    0  501 -0.00000000000E+00 -0.00000000000E+00 -0.61357115870E+03  0.61357115870E+03  0.00000000000E+00 0.  1.
         25    2    1    2    0    0 -0.34487191137E+02 -0.53179859002E+02 -0.48190273837E+03  0.50189207029E+03  0.12509171521E+03 0.  0.
          5    1    3    3  502    0  0.32879869795E+02 -0.26993050879E+02 -0.59115592894E+02  0.72950917450E+02  0.41800000000E+01 0. -1.
         -5    1    3    3    0  502 -0.67367060933E+02 -0.26186808123E+02 -0.42278714548E+03  0.42894115284E+03  0.41800000000E+01 0. -1.
        -11    1    1    2    0    0  0.39683827131E+02  0.27802628368E+02 -0.54724693244E+00  0.48457112575E+02  0.00000000000E+00 0. -1.
         11    1    1    2    0    0 -0.51966359938E+01  0.25377230634E+02 -0.95445223922E+02  0.98897925306E+02  0.00000000000E+00 0.  1.
</event>
<event>
 6    1  0.3901881E-009  0.7592782E+02  0.7561462E-02  0.1341022E+00
         -1   -1    0    0    0  501 -0.00000000000E+00  0.00000000000E+00  0.16907707647E+02  0.16907707647E+02  0.00000000000E+00 0.  1.
          1   -1    0    0  501    0  0.00000000000E+00 -0.00000000000E+00 -0.83837737603E+03  0.83837737603E+03  0.00000000000E+00 0. -1.
          5    1    1    2  502    0  0.10121095181E+02  0.11835421095E+02 -0.44885945898E+03  0.44914897314E+03  0.41800000000E+01 0. -1.
         -5    1    1    2    0  502  0.11402623066E+00  0.35770304251E+02 -0.26511414692E+02  0.44719740352E+02  0.41800000000E+01 0. -1.
        -11    1    1    2    0    0 -0.23804944000E+02  0.19797820100E+02 -0.64515439593E+02  0.71560261217E+02  0.00000000000E+00 0.  1.
         11    1    1    2    0    0  0.13569822588E+02 -0.67403545446E+02 -0.28158335512E+03  0.28985610896E+03  0.00000000000E+00 0. -1.
</event>
<event>
 7    1  0.2732144E-009  0.1415781E+03  0.7561462E-02  0.1211221E+00
         -1   -1    0    0    0  501 -0.00000000000E+00  0.00000000000E+00  0.82475010137E+02  0.82475010137E+02  0.00000000000E+00 0.  1.
          1   -1    0    0  501    0  0.00000000000E+00 -0.00000000000E+00 -0.46979917082E+03  0.46979917082E+03  0.00000000000E+00 0. -1.
         25    2    1    2    0    0  0.70599077797E+02  0.70803180007E+02 -0.38520351068E+03  0.41716459130E+03  0.12508889444E+03 0.  0.
          5    1    3    3  502    0  0.36777797996E+02  0.10289129204E+03 -0.30851338170E+03  0.32731819915E+03  0.41800000000E+01 0.  1.
         -5    1    3    3    0  502  0.33821279801E+02 -0.32088112033E+02 -0.76690128978E+02  0.89846392158E+02  0.41800000000E+01 0.  1.
        -11    1    1    2    0    0  0.25753978612E+01  0.14434697788E+02 -0.16248164077E+02  0.21885977480E+02  0.00000000000E+00 0. -1.
         11    1    1    2    0    0 -0.73174475658E+02 -0.85237877795E+02  0.14127514075E+02  0.11322361217E+03  0.00000000000E+00 0.  1.
</event>
<event>
 7    1  0.2732144E-009  0.1808351E+03  0.7561462E-02  0.1166997E+00
          3   -1    0    0  501    0  0.00000000000E+00  0.00000000000E+00  0.47800203606E+03  0.47800203606E+03  0.00000000000E+00 0. -1.
         -3   -1    0    0    0  501 -0.00000000000E+00 -0.00000000000E+00 -0.85924282731E+02  0.85924282731E+02  0.00000000000E+00 0.  1.
         25    2    1    2    0    0  0.15121513562E+03 -0.67570690425E+02  0.14702854079E+03  0.25433467404E+03  0.12504766758E+03 0.  0.
          5    1    3    3  502    0  0.10990892951E+03 -0.72576795505E+02  0.37368425390E+02  0.13697166002E+03  0.41800000000E+01 0.  1.
         -5    1    3    3    0  502  0.41306206111E+02  0.50061050802E+01  0.10966011540E+03  0.11736301402E+03  0.41800000000E+01 0.  1.
        -11    1    1    2    0    0 -0.11253030319E+03  0.27187484239E+01  0.16291520341E+03  0.19801975718E+03  0.00000000000E+00 0. -1.
         11    1    1    2    0    0 -0.38684832428E+02  0.64851942001E+02  0.82134009125E+02  0.11157188757E+03  0.00000000000E+00 0.  1.
</event>
<event>
 7    1  0.2732144E-009  0.9788333E+02  0.7561462E-02  0.1284811E+00
          4   -1    0    0  501    0  0.00000000000E+00  0.00000000000E+00  0.53675503601E+02  0.53675503601E+02  0.00000000000E+00 0. -1.
         -4   -1    0    0    0  501 -0.00000000000E+00 -0.00000000000E+00 -0.38410910032E+03  0.38410910032E+03  0.00000000000E+00 0.  1.
         25    2    1    2    0    0 -0.79158142877E+02  0.34659324906E+01 -0.24892133681E+03  0.28963248821E+03  0.12508845685E+03 0.  0.
          5    1    3    3  502    0 -0.83024540716E+02 -0.15318399469E+01 -0.26180281698E+03  0.27468820191E+03  0.41800000000E+01 0. -1.
         -5    1    3    3    0  502  0.38663978386E+01  0.49977724375E+01  0.12881480169E+02  0.14944286297E+02  0.41800000000E+01 0. -1.
        -11    1    1    2    0    0 -0.71985621068E+01 -0.16227099760E+02 -0.53662795320E+02  0.56522859664E+02  0.00000000000E+00 0. -1.
         11    1    1    2    0    0  0.86356704984E+02  0.12761167270E+02 -0.27849464595E+02  0.91629256049E+02  0.00000000000E+00 0.  1.
</event>
<event>
 7    1  0.2732144E-009  0.1046813E+03  0.7561462E-02  0.1270749E+00
         -2   -1    0    0    0  501 -0.00000000000E+00  0.00000000000E+00  0.84041001164E+01  0.84041001164E+01  0.00000000000E+00 0.  1.
          2   -1    0    0  501    0  0.00000000000E+00 -0.00000000000E+00 -0.16446561960E+04  0.16446561960E+04  0.00000000000E+00 0. -1.
         25    2    1    2    0    0 -0.14286701588E+02  0.73345994376E+01 -0.12615015253E+04  0.12677892378E+04  0.12508216078E+03 0.  0.
          5    1    3    3  502    0 -0.65983318298E+02 -0.68072738139E+01 -0.50092698051E+03  0.50531717710E+03  0.41800000000E+01 0.  1.
         -5    1    3    3    0  502  0.51696616710E+02  0.14141873252E+02 -0.76057454483E+03  0.76247206073E+03  0.41800000000E+01 0.  1.
        -11    1    1    2    0    0 -0.14855821978E+02 -0.41590307371E+02 -0.20092552016E+03  0.20572193312E+03  0.00000000000E+00 0. -1.
         11    1    1    2    0    0  0.29142523566E+02  0.34255707934E+02 -0.17382505036E+03  0.17954912514E+03  0.00000000000E+00 0.  1.
</event>
<event>
 7    1  0.2732144E-009  0.1453238E+03  0.7561462E-02  0.1206340E+00
         -1   -1    0    0    0  501 -0.00000000000E+00  0.00000000000E+00  0.64121148308E+02  0.64121148308E+02  0.00000000000E+00 0.  1.
          1   -1    0    0  501    0  0.00000000000E+00 -0.00000000000E+00 -0.39360994120E+03  0.39360994120E+03  0.00000000000E+00 0. -1.
         25    2    1    2    0    0 -0.78005359710E+02 -0.66239837947E+02 -0.25448016860E+03  0.30146130967E+03  0.12508482219E+03 0.  0.
          5    1    3    3  502    0 -0.59082503831E+02 -0.10185387024E+03 -0.16046948969E+03  0.19908009108E+03  0.41800000000E+01 0.  1.
         -5    1    3    3    0  502 -0.18922855879E+02  0.35614032295E+02 -0.94010678909E+02  0.10238121859E+03  0.41800000000E+01 0.  1.
        -11    1    1    2    0    0  0.65614890403E+02  0.74187604522E+00 -0.57749515666E+02  0.87412074580E+02  0.00000000000E+00 0. -1.
         11    1    1    2    0    0  0.12390469307E+02  0.65497961902E+02 -0.17259108626E+02  0.68857705259E+02  0.00000000000E+00 0.  1.
</event>
<event>
 7    1  0.2732144E-009  0.1306129E+03  0.7561462E-02  0.1226549E+00
          3   -1    0    0  501    0  0.00000000000E+00  0.00000000000E+00  0.40593876520E+03  0.40593876520E+03  0.00000000000E+00 0. -1.
         -3   -1    0    0    0  501 -0.00000000000E+00 -0.00000000000E+00 -0.46845645099E+02  0.46845645099E+02  0.00000000000E+00 0.  1.
         25    2    1    2    0    0 -0.31596667363E+02 -0.76005109100E+02  0.20274178644E+03  0.25204568663E+03  0.12509064786E+03 0.  0.
          5    1    3    3  502    0  0.41417198404E+02 -0.58639488528E+02  0.12286179486E+03  0.14236034200E+03  0.41800000000E+01 0. -1.
         -5    1    3    3    0  502 -0.73013865767E+02 -0.17365620572E+02  0.79879991587E+02  0.10968534464E+03  0.41800000000E+01 0. -1.
        -11    1    1    2    0    0  0.24490581524E+02 -0.11002767352E+02  0.81286575725E+02  0.85605822616E+02  0.00000000000E+00 0. -1.
         11    1    1    2    0    0  0.71060858393E+01  0.87007876452E+02  0.75064757936E+02  0.11513290105E+03  0.00000000000E+00 0.  1.
</event>
<event>
 7    1  0.2732144E-009  0.1252939E+03  0.7561462E-02  0.1234611E+00
          2   -1    0    0  501    0  0.00000000000E+00  0.00000000000E+00  0.33078858145E+03  0.33078858145E+03  0.00000000000E+00 0. -1.
         -2   -1    0    0    0  501 -0.00000000000E+00 -0.00000000000E+00 -0.71267607065E+02  0.71267607065E+02  0.00000000000E+00 0.  1.
         25    2    1    2    0    0 -0.22722892304E+01 -0.93723518680E+02  0.67020498676E+02  0.17008342140E+03  0.12508941498E+03 0.  0.
          5    1    3    3  502    0  0.17738767643E+02 -0.11759037360E+03  0.32397720102E+02  0.12332576580E+03  0.41800000000E+01 0.  1.
         -5    1    3    3    0  502 -0.20011056873E+02  0.23866854922E+02  0.34622778575E+02  0.46757655601E+02  0.41800000000E+01 0.  1.
        -11    1    1    2    0    0 -0.14725682205E+02  0.22108713466E+02  0.13762076568E+03  0.14016103621E+03  0.00000000000E+00 0. -1.
         11    1    1    2    0    0  0.16997971436E+02  0.71614805214E+02  0.54879710038E+02  0.91811730909E+02  0.00000000000E+00 0.  1.
</event>
<event>
 7    1  0.2732144E-009  0.1485713E+03  0.7561462E-02  0.1202240E+00
          2   -1    0    0  501    0  0.00000000000E+00  0.00000000000E+00  0.86690464479E+03  0.86690464479E+03  0.00000000000E+00 0. -1.
         -2   -1    0    0    0  501 -0.00000000000E+00 -0.00000000000E+00 -0.28653975232E+02  0.28653975232E+02  0.00000000000E+00 0.  1.
         25    2    1    2    0    0 -0.61770877153E+02 -0.64830164783E+02  0.57450000830E+03  0.59474592119E+03  0.12511538554E+03 0.  0.
          5    1    3    3  502    0 -0.97262815505E+02 -0.66196430698E+02  0.42249051290E+03  0.43858605610E+03  0.41800000000E+01 0.  1.
         -5    1    3    3    0  502  0.35491938351E+02  0.13662659150E+01  0.15200949540E+03  0.15615986508E+03  0.41800000000E+01 0.  1.
        -11    1    1    2    0    0  0.77410799699E+02  0.46219203453E+00  0.15957346164E+03  0.17735933917E+03  0.00000000000E+00 0. -1.
         11    1    1    2    0    0 -0.15639922546E+02  0.64367972749E+02  0.10417719962E+03  0.12345335967E+03  0.00000000000E+00 0.  1.
</event>
<event>
 7    1  0.2732144E-009  0.1019039E+03  0.7561462E-02  0.1276343E+00
          1   -1    0    0  501    0  0.00000000000E+00  0.00000000000E+00  0.13256486436E+03  0.13256486436E+03  0.00000000000E+00 0. -1.
         -1   -1    0    0    0  501 -0.00000000000E+00 -0.00000000000E+00 -0.14128568020E+03  0.14128568020E+03  0.00000000000E+00 0.  1.
         25    2    1    2    0    0 -0.15319703096E+01 -0.79130065837E+02 -0.31297125502E+02  0.15129815802E+03  0.12509080023E+03 0.  0.
          5    1    3    3  502    0 -0.21018731654E+02 -0.63990085184E+02  0.38120815908E+02  0.77506045491E+02  0.41800000000E+01 0. -1.
         -5    1    3    3    0  502  0.19486761344E+02 -0.15139980653E+02 -0.69417941410E+02  0.73792112529E+02  0.41800000000E+01 0. -1.
        -11    1    1    2    0    0  0.28601633076E+02  0.79221174727E+02 -0.43933053141E+01  0.84340672699E+02  0.00000000000E+00 0.  1.
         11    1    1    2    0    0 -0.27069662766E+02 -0.91108889894E-01  0.26969614969E+02  0.38211713841E+02  0.00000000000E+00 0. -1.
</event>
<event>
 7    1  0.2732144E-009  0.8966697E+02  0.7561462E-02  0.1303660E+00
         -1   -1    0    0    0  501 -0.00000000000E+00  0.00000000000E+00  0.20026380153E+02  0.20026380153E+02  0.00000000000E+00 0.  1.
          1   -1    0    0  501    0  0.00000000000E+00 -0.00000000000E+00 -0.75199736314E+03  0.75199736314E+03  0.00000000000E+00 0. -1.
         25    2    1    2    0    0  0.40814871216E+02  0.43759230750E+02 -0.43585234038E+03  0.45737858460E+03  0.12508870071E+03 0.  0.
          5    1    3    3  502    0 -0.25463414089E+02  0.17553500719E+02 -0.31843052163E+03  0.31995621630E+03  0.41800000000E+01 0. -1.
         -5    1    3    3    0  502  0.66278285305E+02  0.26205730031E+02 -0.11742181875E+03  0.13742236830E+03  0.41800000000E+01 0. -1.
        -11    1    1    2    0    0  0.11106080468E+02 -0.80375157227E+01 -0.20051291171E+01  0.13855223749E+02  0.00000000000E+00 0.  1.
         11    1    1    2    0    0 -0.51920951684E+02 -0.35721715027E+02 -0.29411351349E+03  0.30078993495E+03  0.00000000000E+00 0. -1.
</event>
<event>
 7    1  0.2732144E-009  0.1923044E+03  0.7561462E-02  0.1156399E+00
         -4   -1    0    0    0  501 -0.00000000000E+00  0.00000000000E+00  0.13952995938E+03  0.13952995938E+03  0.00000000000E+00 0.  1.
          4   -1    0    0  501    0  0.00000000000E+00 -0.00000000000E+00 -0.35244621658E+03  0.35244621658E+03  0.00000000000E+00 0. -1.
         25    2    1    2    0    0 -0.73744960292E+02  0.16547947302E+03 -0.18590647812E+03  0.28815289577E+03  0.12509635317E+03 0.  0.
          5    1    3    3  502    0 -0.68554836563E+02  0.68678435985E+02 -0.25065482024E+02  0.10031073709E+03  0.41800000000E+01 0. -1.
         -5    1    3    3    0  502 -0.51901237289E+01  0.96801037032E+02 -0.16084099610E+03  0.18784215869E+03  0.41800000000E+01 0. -1.
        -11    1    1    2    0    0  0.13486745468E+02  0.87821198948E+00  0.16784077174E+02  0.21549218227E+02  0.00000000000E+00 0.  1.
         11    1    1    2    0    0  0.60258214824E+02 -0.16635768501E+03 -0.43793856252E+02  0.18227406195E+03  0.00000000000E+00 0. -1.
</event>
<event>
 7    1  0.2732144E-009  0.9796745E+02  0.7561462E-02  0.1284629E+00
         -1   -1    0    0    0  501 -0.00000000000E+00  0.00000000000E+00  0.26728574212E+02  0.26728574212E+02  0.00000000000E+00 0.  1.
          1   -1    0    0  501    0  0.00000000000E+00 -0.00000000000E+00 -0.54564337795E+03  0.54564337795E+03  0.00000000000E+00 0. -1.
         25    2    1    2    0    0  0.95378579920E+01 -0.46887341832E+02 -0.27927822652E+03  0.30973323153E+03  0.12509577668E+03 0.  0.
          5    1    3    3  502    0  0.23286433243E+02 -0.63639763776E+02 -0.27953323151E+03  0.28766052462E+03  0.41800000000E+01 0. -1.
         -5    1    3    3    0  502 -0.13748575251E+02  0.16752421944E+02  0.25500499063E+00  0.22072706902E+02  0.41800000000E+01 0. -1.
        -11    1    1    2    0    0  0.42233656099E+01  0.74762459690E+02 -0.14786249529E+03  0.16574251027E+03  0.00000000000E+00 0.  1.
         11    1    1    2    0    0 -0.13761223602E+02 -0.27875117858E+02 -0.91774081922E+02  0.96896210366E+02  0.00000000000E+00 0. -1.
</event>
<event>
 7    1  0.2732144E-009  0.2499620E+03  0.7561462E-02  0.1113329E+00
         -1   -1    0    0    0  501 -0.00000000000E+00  0.00000000000E+00  0.88088049363E+02  0.88088049363E+02  0.00000000000E+00 0.  1.
          1   -1    0    0  501    0  0.00000000000E+00 -0.00000000000E+00 -0.79023256126E+03  0.79023256126E+03  0.00000000000E+00 0. -1.
         25    2    1    2    0    0 -0.26818754425E+01  0.23955126285E+03 -0.37183727799E+03  0.45967670656E+03  0.12509082005E+03 0.  0.
          5    1    3    3  502    0  0.30643909462E+02  0.45115339797E+02 -0.23915792102E+02  0.59698246071E+02  0.41800000000E+01 0. -1.
         -5    1    3    3    0  502 -0.33325784904E+02  0.19443592306E+03 -0.34792148588E+03  0.39997846049E+03  0.41800000000E+01 0. -1.
        -11    1    1    2    0    0 -0.26226003648E+02 -0.17784180428E+03 -0.18396339655E+03  0.25721205627E+03  0.00000000000E+00 0.  1.
         11    1    1    2    0    0  0.28907879091E+02 -0.61709458569E+02 -0.14634383735E+03  0.16143184779E+03  0.00000000000E+00 0. -1.
</event>
<event>
 7    1  0.2732144E-009  0.1423766E+03  0.7561462E-02  0.1210166E+00
          2   -1    0    0  501    0  0.00000000000E+00  0.00000000000E+00  0.23418446712E+04  0.23418446712E+04  0.00000000000E+00 0. -1.
         -2   -1    0    0    0  501 -0.00000000000E+00 -0.00000000000E+00 -0.13708078301E+02  0.13708078301E+02  0.00000000000E+00 0.  1.
         25    2    1    2    0    0 -0.10246879724E+03  0.54698820132E+01  0.18767975502E+04  0.18837586515E+04  0.12509132070E+03 0.  0.
          5    1    3    3  502    0  0.27170187757E+02 -0.90714588279E+01  0.48169709188E+03  0.48256613142E+03  0.41800000000E+01 0. -1.
         -5    1    3    3    0  502 -0.12963898500E+03  0.14541340841E+02  0.13951004583E+04  0.14011925200E+04  0.41800000000E+01 0. -1.
        -11    1    1    2    0    0  0.94007727859E+02 -0.30526323957E+02  0.41642630554E+03  0.42799553421E+03  0.00000000000E+00 0. -1.
         11    1    1    2    0    0  0.84610693827E+01  0.25056441944E+02  0.34912737163E+02  0.43798563837E+02  0.00000000000E+00 0.  1.
</event>
<event>
 7    1  0.2732144E-009  0.1054351E+03  0.7561462E-02  0.1269265E+00
          1   -1    0    0  501    0  0.00000000000E+00  0.00000000000E+00  0.25048519912E+03  0.25048519912E+03  0.00000000000E+00 0. -1.
         -1   -1    0    0    0  501 -0.00000000000E+00 -0.00000000000E+00 -0.48078847965E+02  0.48078847965E+02  0.00000000000E+00 0.  1.
         25    2    1    2    0    0 -0.66226695563E+01 -0.10815659638E+02  0.13166764975E+03  0.18205577968E+03  0.12508836348E+03 0.  0.
          5    1    3    3  502    0  0.53329672639E+02  0.11778911444E+02  0.90503071035E+02  0.10578787740E+03  0.41800000000E+01 0. -1.
         -5    1    3    3    0  502 -0.59952342195E+02 -0.22594571082E+02  0.41164578715E+02  0.76267902277E+02  0.41800000000E+01 0. -1.
        -11    1    1    2    0    0 -0.13570081017E+02 -0.37309519865E+02  0.23624871985E+02  0.46198289445E+02  0.00000000000E+00 0.  1.
         11    1    1    2    0    0  0.20192750573E+02  0.48125179503E+02  0.47113829422E+02  0.70309977960E+02  0.00000000000E+00 0. -1.
</event>
<event>
 7    1  0.2732144E-009  0.9403712E+02  0.7561462E-02  0.1293360E+00
         -2   -1    0    0    0  501 -0.00000000000E+00  0.00000000000E+00  0.47428208042E+02  0.47428208042E+02  0.00000000000E+00 0.  1.
          2   -1    0    0  501    0  0.00000000000E+00 -0.00000000000E+00 -0.32517472352E+03  0.32517472352E+03  0.00000000000E+00 0. -1.
         25    2    1    2    0    0  0.11762693889E+02  0.58819492981E+02 -0.14207008741E+03  0.19856957067E+03  0.12509145030E+03 0.  0.
          5    1    3    3  502    0 -0.23121324817E+02  0.27733213012E+02  0.11396502047E+02  0.38093036426E+02  0.41800000000E+01 0.  1.
         -5    1    3    3    0  502  0.34884018706E+02  0.31086279969E+02 -0.15346658946E+03  0.16047653424E+03  0.41800000000E+01 0.  1.
        -11    1    1    2    0    0 -0.47188338110E+02 -0.17358568183E+02 -0.89138360128E+02  0.10234112756E+03  0.00000000000E+00 0.  1.
         11    1    1    2    0    0  0.35425644221E+02 -0.41460924798E+02 -0.46538067943E+02  0.71692233341E+02  0.00000000000E+00 0. -1.
</event>
<event>
 7    1  0.2732144E-009  0.1401214E+03  0.7561462E-02  0.1213166E+00
         -2   -1    0    0    0  501 -0.00000000000E+00  0.00000000000E+00  0.25319604011E+02  0.25319604011E+02  0.00000000000E+00 0.  1.
          2   -1    0    0  501    0  0.00000000000E+00 -0.00000000000E+00 -0.12218737686E+04  0.12218737686E+04  0.00000000000E+00 0. -1.
         25    2    1    2    0    0  0.13414068880E+03 -0.26090320444E+02 -0.56165678053E+03  0.59142035013E+03  0.12508102262E+03 0.  0.
          5    1    3    3  502    0  0.12028364736E+03 -0.15624208882E+02 -0.56053526191E+03  0.57352377804E+03  0.41800000000E+01 0.  1.
         -5    1    3    3    0  502  0.13857041440E+02 -0.10466111562E+02 -0.11215186177E+01  0.17896572093E+02  0.41800000000E+01 0.  1.
        -11    1    1    2    0    0 -0.11292986156E+03  0.34674360845E+02 -0.61237793567E+03  0.62366834217E+03  0.00000000000E+00 0. -1.
         11    1    1    2    0    0 -0.21210827240E+02 -0.85840404010E+01 -0.22519448375E+02  0.32104680296E+02  0.00000000000E+00 0.  1.
</event>
<event>
 7    1  0.2732144E-009  0.1321723E+03  0.7561462E-02  0.1224268E+00
         -4   -1    0    0    0  501 -0.00000000000E+00  0.00000000000E+00  0.14005896917E+03  0.14005896917E+03  0.00000000000E+00 0.  1.
          4   -1    0    0  501    0  0.00000000000E+00 -0.00000000000E+00 -0.17512845021E+03  0.17512845021E+03  0.00000000000E+00 0. -1.
         25    2    1    2    0    0  0.48234311721E+02  0.93303720396E+02  0.10808726668E+02  0.16369588341E+03  0.12508949040E+03 0.  0.
          5    1    3    3  502    0 -0.24630783660E+02  0.62434720618E+02  0.41152901274E+02  0.78840367361E+02  0.41800000000E+01 0.  1.
         -5    1    3    3    0  502  0.72865095381E+02  0.30868999779E+02 -0.30344174606E+02  0.84855516053E+02  0.41800000000E+01 0.  1.
        -11    1    1    2    0    0 -0.59261642645E+02 -0.67690651786E+02  0.85130804200E+01  0.90368352682E+02  0.00000000000E+00 0.  1.
         11    1    1    2    0    0  0.11027330925E+02 -0.25613068610E+02 -0.54391288123E+02  0.61123183282E+02  0.00000000000E+00 0. -1.
</event>
<event>
 7    1  0.2732144E-009  0.1548920E+03  0.7561462E-02  0.1194587E+00
         -1   -1    0    0    0  501 -0.00000000000E+00  0.00000000000E+00  0.29204766167E+02  0.29204766167E+02  0.00000000000E+00 0.  1.
          1   -1    0    0  501    0  0.00000000000E+00 -0.00000000000E+00 -0.10807910053E+04  0.10807910053E+04  0.00000000000E+00 0. -1.
         25    2    1    2    0    0  0.22568753392E+02 -0.14117361574E+03 -0.55114819988E+03  0.58296751241E+03  0.12508974333E+03 0.  0.
          5    1    3    3  502    0  0.13824003805E+01 -0.11856438849E+03 -0.21664186131E+03  0.24700322613E+03  0.41800000000E+01 0.  1.
         -5    1    3    3    0  502  0.21186353012E+02 -0.22609227247E+02 -0.33450633857E+03  0.33596428628E+03  0.41800000000E+01 0.  1.
        -11    1    1    2    0    0 -0.44682132959E+02  0.54769812322E+02 -0.28961101837E+03  0.29811200464E+03  0.00000000000E+00 0. -1.
         11    1    1    2    0    0  0.22113379567E+02  0.86403803414E+02 -0.21082702084E+03  0.22891625437E+03  0.00000000000E+00 0.  1.
</event>
<event>
 7    1  0.2732144E-009  0.1009239E+03  0.7561462E-02  0.1278365E+00
          2   -1    0    0  501    0  0.00000000000E+00  0.00000000000E+00  0.21504273846E+03  0.21504273846E+03  0.00000000000E+00 0. -1.
         -2   -1    0    0    0  501 -0.00000000000E+00 -0.00000000000E+00 -0.74908389786E+02  0.74908389786E+02  0.00000000000E+00 0.  1.
         25    2    1    2    0    0 -0.43547804140E+02 -0.25153164094E+02  0.12508403047E+03  0.18390639022E+03  0.12508578167E+03 0.  0.
          5    1    3    3  502    0  0.31743849241E+02 -0.32754386875E+02  0.88716281309E+02  0.99842740315E+02  0.41800000000E+01 0.  1.
         -5    1    3    3    0  502 -0.75291653381E+02  0.76012227810E+01  0.36367749161E+02  0.84063649907E+02  0.41800000000E+01 0.  1.
        -11    1    1    2    0    0  0.58729803757E+02  0.11519129744E+02  0.41359725723E+02  0.72749619321E+02  0.00000000000E+00 0. -1.
         11    1    1    2    0    0 -0.15181999617E+02  0.13634034350E+02 -0.26309407523E+02  0.33295118700E+02  0.00000000000E+00 0.  1.
</event>
<event>
 7    1  0.2732144E-009  0.1565830E+03  0.7561462E-02  0.1192609E+00
          2   -1    0    0  501    0  0.00000000000E+00  0.00000000000E+00  0.12237629551E+03  0.12237629551E+03  0.00000000000E+00 0. -1.
         -2   -1    0    0    0  501 -0.00000000000E+00 -0.00000000000E+00 -0.27999009986E+03  0.27999009986E+03  0.00000000000E+00 0.  1.
         25    2    1    2    0    0 -0.76175833465E+02  0.12855399402E+03 -0.63126062191E+02  0.20484332891E+03  0.12508797979E+03 0.  0.
          5    1    3    3  502    0 -0.35980814398E+02  0.31549059268E+02  0.36274479568E+02  0.60193624358E+02  0.41800000000E+01 0. -1.
         -5    1    3    3    0  502 -0.40195019066E+02  0.97004934750E+02 -0.99400541759E+02  0.14464970455E+03  0.41800000000E+01 0. -1.
        -11    1    1    2    0    0 -0.71380998912E+01 -0.30738746102E+02 -0.54465024929E+02  0.62946500478E+02  0.00000000000E+00 0.  1.
         11    1    1    2    0    0  0.83313933356E+02 -0.97815247916E+02 -0.40022717233E+02  0.13457656598E+03  0.00000000000E+00 0. -1.
</event>
<event>
 7    1  0.2732144E-009  0.1242356E+03  0.7561462E-02  0.1236269E+00
         -4   -1    0    0    0  501 -0.00000000000E+00  0.00000000000E+00  0.41957254703E+02  0.41957254703E+02  0.00000000000E+00 0.  1.
          4   -1    0    0  501    0  0.00000000000E+00 -0.00000000000E+00 -0.48917966884E+03  0.48917966884E+03  0.00000000000E+00 0. -1.
         25    2    1    2    0    0 -0.28898541532E+02  0.78275645703E+02 -0.16629570075E+03  0.22419863910E+03  0.12509423357E+03 0.  0.
          5    1    3    3  502    0 -0.33515138726E+02 -0.10853821561E+02 -0.11677760819E+03  0.12204733565E+03  0.41800000000E+01 0. -1.
         -5    1    3    3    0  502  0.46165971933E+01  0.89129467264E+02 -0.49518092565E+02  0.10215130345E+03  0.41800000000E+01 0. -1.
        -11    1    1    2    0    0  0.52795082312E+02 -0.13338510484E+02 -0.12560937720E+03  0.13690490210E+03  0.00000000000E+00 0.  1.
         11    1    1    2    0    0 -0.23896540780E+02 -0.64937135219E+02 -0.15531733619E+03  0.17003338235E+03  0.00000000000E+00 0. -1.
</event>
<event>
 7    1  0.2732144E-009  0.8399835E+02  0.7561462E-02  0.1318073E+00
         -3   -1    0    0    0  501 -0.00000000000E+00  0.00000000000E+00  0.43370743252E+03  0.43370743252E+03  0.00000000000E+00 0.  1.
          3   -1    0    0  501    0  0.00000000000E+00 -0.00000000000E+00 -0.33046720695E+02  0.33046720695E+02  0.00000000000E+00 0. -1.
         25    2    1    2    0    0  0.29898084203E+02 -0.39133338099E+02  0.26041504978E+03  0.29307912264E+03  0.12511618756E+03 0.  0.
          5    1    3    3  502    0 -0.18982618731E+02 -0.31740854002E+02  0.11048072538E+02  0.38824656257E+02  0.41800000000E+01 0.  1.
         -5    1    3    3    0  502  0.48880702934E+02 -0.73924840966E+01  0.24936697724E+03  0.25425446639E+03  0.41800000000E+01 0.  1.
        -11    1    1    2    0    0 -0.21302437480E+02  0.57264668175E+02  0.14092301045E+03  0.15359795226E+03  0.00000000000E+00 0.  1.
         11    1    1    2    0    0 -0.85956467237E+01 -0.18131330076E+02 -0.67734839642E+00  0.20077078318E+02  0.00000000000E+00 0. -1.
</event>
<event>
 7    1  0.2732144E-009  0.8514434E+02  0.7561462E-02  0.1315056E+00
         -3   -1    0    0    0  501 -0.00000000000E+00  0.00000000000E+00  0.72944680096E+02  0.72944680096E+02  0.00000000000E+00 0.  1.
          3   -1    0    0  501    0  0.00000000000E+00 -0.00000000000E+00 -0.19490550342E+03  0.19490550342E+03  0.00000000000E+00 0. -1.
         25    2    1    2    0    0 -0.22645276427E+00  0.34218198594E+02 -0.58952126010E+02  0.14245708794E+03  0.12509089634E+03 0.  0.
          5    1    3    3  502    0 -0.54271605142E+02 -0.17368239043E+01  0.31176396873E+00  0.54460933509E+02  0.41800000000E+01 0.  1.
         -5    1    3    3    0  502  0.54045152378E+02  0.35955022498E+02 -0.59263889979E+02  0.87996154426E+02  0.41800000000E+01 0.  1.
        -11    1    1    2    0    0  0.18146992104E+02 -0.24208680555E+02 -0.87998220356E+02  0.93054072036E+02  0.00000000000E+00 0. -1.
         11    1    1    2    0    0 -0.17920539339E+02 -0.10009518039E+02  0.24989523046E+02  0.32339023542E+02  0.00000000000E+00 0.  1.
</event>
<event>
 7    1  0.2732144E-009  0.1106018E+03  0.7561462E-02  0.1259459E+00
          1   -1    0    0  501    0  0.00000000000E+00  0.00000000000E+00  0.61510953570E+03  0.61510953570E+03  0.00000000000E+00 0. -1.
         -1   -1    0    0    0  501 -0.00000000000E+00 -0.00000000000E+00 -0.30996078908E+02  0.30996078908E+02  0.00000000000E+00 0.  1.
         25    2    1    2    0    0  0.57960283088E+02  0.34279066607E+02  0.19707396028E+03  0.24294004179E+03  0.12508904534E+03 0.  0.
          5    1    3    3  502    0  0.48902051994E+02 -0.20119797829E+02  0.18788653901E+02  0.56273465055E+02  0.41800000000E+01 0.  1.
         -5    1    3    3    0  502  0.90582310943E+01  0.54398864436E+02  0.17828530637E+03  0.18666657674E+03  0.41800000000E+01 0.  1.
        -11    1    1    2    0    0 -0.76898999044E+02 -0.46920428543E+02  0.30508222863E+03  0.31810399070E+03  0.00000000000E+00 0. -1.
         11    1    1    2    0    0  0.18938715956E+02  0.12641361936E+02  0.81957267883E+02  0.85061582119E+02  0.00000000000E+00 0.  1.
</event>
<event>
 7    1  0.2732144E-009  0.1288739E+03  0.7561462E-02  0.1229136E+00
          2   -1    0    0  501    0  0.00000000000E+00  0.00000000000E+00  0.69083640269E+03  0.69083640269E+03  0.00000000000E+00 0. -1.
         -2   -1    0    0    0  501 -0.00000000000E+00 -0.00000000000E+00 -0.38178003681E+02  0.38178003681E+02  0.00000000000E+00 0.  1.
         25    2    1    2    0    0  0.51928717133E+02 -0.10193225043E+03  0.26503678331E+03  0.31461088820E+03  0.12509492045E+03 0.  0.
          5    1    3    3  502    0 -0.23161803462E+02 -0.14310294985E+02  0.23261299651E+01  0.27643027381E+02  0.41800000000E+01 0. -1.
         -5    1    3    3    0  502  0.75090520595E+02 -0.87621955444E+02  0.26271065335E+03  0.28696786082E+03  0.41800000000E+01 0. -1.
        -11    1    1    2    0    0 -0.24721162114E+02  0.58109178042E+02  0.33431155948E+03  0.34022350188E+03  0.00000000000E+00 0. -1.
         11    1    1    2    0    0 -0.27207555019E+02  0.43823072387E+02  0.53310056213E+02  0.74180016291E+02  0.00000000000E+00 0.  1.
</event>
<event>
 7    1  0.2732144E-009  0.1112622E+03  0.7561462E-02  0.1258250E+00
          1   -1    0    0  501    0  0.00000000000E+00  0.00000000000E+00  0.16942635724E+03  0.16942635724E+03  0.00000000000E+00 0. -1.
         -1   -1    0    0    0  501 -0.00000000000E+00 -0.00000000000E+00 -0.20493263246E+03  0.20493263246E+03  0.00000000000E+00 0.  1.
         25    2    1    2    0    0  0.64810341816E+02 -0.32249883141E+02  0.11008907069E+03  0.18168108472E+03  0.12509187700E+03 0.  0.
          5    1    3    3  502    0  0.90785091609E+02 -0.50902696767E+02  0.54869130047E+02  0.11773322058E+03  0.41800000000E+01 0. -1.
         -5    1    3    3    0  502 -0.25974749793E+02  0.18652813626E+02  0.55219940640E+02  0.63947864134E+02  0.41800000000E+01 0. -1.
        -11    1    1    2    0    0 -0.13475807402E+02  0.32056027711E+02 -0.13610021778E+03  0.14047225910E+03  0.00000000000E+00 0.  1.
         11    1    1    2    0    0 -0.51334534414E+02  0.19385542970E+00 -0.94951281339E+01  0.52205645879E+02  0.00000000000E+00 0. -1.
</event>
<event>
 7    1  0.2732144E-009  0.1938008E+03  0.7561462E-02  0.1155077E+00
          2   -1    0    0  501    0  0.00000000000E+00  0.00000000000E+00  0.61971130458E+03  0.61971130458E+03  0.00000000000E+00 0. -1.
         -2   -1    0    0    0  501 -0.00000000000E+00 -0.00000000000E+00 -0.64300473836E+02  0.64300473836E+02  0.00000000000E+00 0.  1.
         25    2    1    2    0    0 -0.73390087192E+02  0.14915270606E+03  0.25274616776E+03  0.32735405923E+03  0.12508964848E+03 0.  0.
          5    1    3    3  502    0 -0.10293056125E+03  0.10199245900E+03  0.21739135483E+03  0.26129224192E+03  0.41800000000E+01 0. -1.
         -5    1    3    3    0  502  0.29540474054E+02  0.47160247054E+02  0.35354812933E+02  0.66061817316E+02  0.41800000000E+01 0. -1.
        -11    1    1    2    0    0 -0.22997399394E+01 -0.91897978762E+02  0.17383632182E+03  0.19664585958E+03  0.00000000000E+00 0.  1.
         11    1    1    2    0    0  0.75689827131E+02 -0.57254727293E+02  0.12882834116E+03  0.16001185961E+03  0.00000000000E+00 0. -1.
</event>
<event>
 7    1  0.2732144E-009  0.8746580E+02  0.7561462E-02  0.1309107E+00
          1   -1    0    0  501    0  0.00000000000E+00  0.00000000000E+00  0.93041324812E+03  0.93041324812E+03  0.00000000000E+00 0. -1.
         -1   -1    0    0    0  501 -0.00000000000E+00 -0.00000000000E+00 -0.16736963930E+02  0.16736963930E+02  0.00000000000E+00 0.  1.
         25    2    1    2    0    0 -0.45496027761E+02  0.10351978130E+02  0.65889561263E+03  0.67228560593E+03  0.12508979019E+03 0.  0.
          5    1    3    3  502    0 -0.36975593429E+00  0.39032891991E+02  0.64730169282E+02  0.75704495190E+02  0.41800000000E+01 0. -1.
         -5    1    3    3    0  502 -0.45126271827E+02 -0.28680913861E+02  0.59416544335E+03  0.59658111074E+03  0.41800000000E+01 0. -1.
        -11    1    1    2    0    0  0.34248385195E+02  0.26632171104E+02  0.21523381651E+03  0.21956279329E+03  0.00000000000E+00 0.  1.
         11    1    1    2    0    0  0.11247642566E+02 -0.36984149234E+02  0.39546855053E+02  0.55301812831E+02  0.00000000000E+00 0. -1.
</event>
<event>
 7    1  0.2732144E-009  0.1037557E+03  0.7561462E-02  0.1272591E+00
         -2   -1    0    0    0  501 -0.00000000000E+00  0.00000000000E+00  0.29463168554E+03  0.29463168554E+03  0.00000000000E+00 0.  1.
          2   -1    0    0  501    0  0.00000000000E+00 -0.00000000000E+00 -0.46810781329E+02  0.46810781329E+02  0.00000000000E+00 0. -1.
         25    2    1    2    0    0 -0.31364586405E+02  0.28223399712E+02  0.15254253567E+03  0.20173847051E+03  0.12509551439E+03 0.  0.
          5    1    3    3  502    0 -0.79563241949E+02  0.12852351474E+02  0.84505415489E+02  0.11685088812E+03  0.41800000000E+01 0.  1.
         -5    1    3    3    0  502  0.48198655544E+02  0.15371048238E+02  0.68037120183E+02  0.84887582384E+02  0.41800000000E+01 0.  1.
        -11    1    1    2    0    0 -0.12425706121E+02 -0.29737682683E+02 -0.27322945213E+01  0.32344912696E+02  0.00000000000E+00 0. -1.
         11    1    1    2    0    0  0.43790292526E+02  0.15142829703E+01  0.98010663059E+02  0.10735908367E+03  0.00000000000E+00 0.  1.
</event>
<event>
 7    1  0.2732144E-009  0.1055171E+03  0.7561462E-02  0.1269104E+00
          2   -1    0    0  501    0  0.00000000000E+00  0.00000000000E+00  0.11546152737E+04  0.11546152737E+04  0.00000000000E+00 0. -1.
         -2   -1    0    0    0  501 -0.00000000000E+00 -0.00000000000E+00 -0.16903153392E+02  0.16903153392E+02  0.00000000000E+00 0.  1.
         25    2    1    2    0    0 -0.67629873435E+02  0.48208077815E+01  0.83285017559E+03  0.84491680053E+03  0.12509174583E+03 0.  0.
          5    1    3    3  502    0  0.16736471978E+02 -0.21244781116E+02  0.49220770450E+02  0.56317021074E+02  0.41800000000E+01 0. -1.
         -5    1    3    3    0  502 -0.84366345414E+02  0.26065588897E+02  0.78362940514E+03  0.78859977946E+03  0.41800000000E+01 0. -1.
        -11    1    1    2    0    0  0.63919177958E+02 -0.29438119674E+02  0.28814605693E+03  0.29661492600E+03  0.00000000000E+00 0. -1.
         11    1    1    2    0    0  0.37106954770E+01  0.24617311893E+02  0.16715887779E+02  0.29986700552E+02  0.00000000000E+00 0.  1.
</event>
<event>
 7    1  0.2732144E-009  0.9801819E+02  0.7561462E-02  0.1284519E+00
          2   -1    0    0  501    0  0.00000000000E+00  0.00000000000E+00  0.71060036646E+03  0.71060036646E+03  0.00000000000E+00 0. -1.
         -2   -1    0    0    0  501 -0.00000000000E+00 -0.00000000000E+00 -0.26594746308E+02  0.26594746308E+02  0.00000000000E+00 0.  1.
         25    2    1    2    0    0  0.26955359856E+02 -0.49116698243E+02  0.55228880798E+03  0.56904280276E+03  0.12509093685E+03 0.  0.
          5    1    3    3  502    0 -0.35741875725E+02 -0.26976292198E+02  0.77514263871E+02  0.89616602952E+02  0.41800000000E+01 0.  1.
         -5    1    3    3    0  502  0.62697235581E+02 -0.22140406046E+02  0.47477454411E+03  0.47942619981E+03  0.41800000000E+01 0.  1.
        -11    1    1    2    0    0 -0.53531388956E+01  0.60008360677E+02  0.37693844902E+02  0.71066767133E+02  0.00000000000E+00 0.  1.
         11    1    1    2    0    0 -0.21602220960E+02 -0.10891662434E+02  0.94022967268E+02  0.97085542873E+02  0.00000000000E+00 0. -1.
</event>
<event>
 7    1  0.2732144E-009  0.7782752E+02  0.7561462E-02  0.1335332E+00
         -3   -1    0    0    0  501 -0.00000000000E+00  0.00000000000E+00  0.53281629771E+03  0.53281629771E+03  0.00000000000E+00 0.  1.
          3   -1    0    0  501    0  0.00000000000E+00 -0.00000000000E+00 -0.27522339774E+02  0.27522339774E+02  0.00000000000E+00 0. -1.
         25    2    1    2    0    0  0.41267365136E+01  0.32586061106E+02  0.37655733118E+03  0.39814801897E+03  0.12509012753E+03 0.  0.
          5    1    3    3  502    0  0.90728869929E+01 -0.10131049363E+02  0.34337826634E+03  0.34367289918E+03  0.41800000000E+01 0.  1.
         -5    1    3    3    0  502 -0.49461504794E+01  0.42717110469E+02  0.33179064845E+02  0.54475119783E+02  0.41800000000E+01 0.  1.
        -11    1    1    2    0    0 -0.35136826796E+02 -0.51168199853E+02  0.73889556885E+02  0.96501025332E+02  0.00000000000E+00 0. -1.
         11    1    1    2    0    0  0.31010090283E+02  0.18582138747E+02  0.54847069864E+02  0.65689593182E+02  0.00000000000E+00 0.  1.
</event>
<event>
 7    1  0.5156610E-009  0.5985072E+02  0.7561462E-02  0.1398459E+00
          4   -1    0    0  501    0  0.00000000000E+00  0.00000000000E+00  0.13656519498E+03  0.13656519498E+03  0.00000000000E+00 0. -1.
         -4   -1    0    0    0  501 -0.00000000000E+00 -0.00000000000E+00 -0.10274052000E+03  0.10274052000E+03  0.00000000000E+00 0.  1.
         25    2    1    2    0    0  0.12286965951E+02 -0.71696457823E+01 -0.26258236638E+02  0.12860650725E+03  0.12509102831E+03 0.  0.
          5    1    3    3  502    0  0.13204736318E+02  0.34286205278E+02  0.37351606022E+02  0.52559716571E+02  0.41800000000E+01 0.  1.
         -5    1    3    3    0  502 -0.91777036720E+00 -0.41455851060E+02 -0.63609842660E+02  0.76046790680E+02  0.41800000000E+01 0.  1.
        -11    1    1    2    0    0  0.87465046260E+01  0.16000519377E+02 -0.20214681094E+02  0.27224094021E+02  0.00000000000E+00 0.  1.
         11    1    1    2    0    0 -0.21033470577E+02 -0.88308735942E+01  0.80297592713E+02  0.83475113708E+02  0.00000000000E+00 0. -1.
</event>
<event>
 7    1  0.2732144E-009  0.1825659E+03  0.7561462E-02  0.1165343E+00
         -1   -1    0    0    0  501 -0.00000000000E+00  0.00000000000E+00  0.11118653904E+03  0.11118653904E+03  0.00000000000E+00 0.  1.
          1   -1    0    0  501    0  0.00000000000E+00 -0.00000000000E+00 -0.43418124293E+03  0.43418124293E+03  0.00000000000E+00 0. -1.
         25    2    1    2    0    0 -0.25293365502E+02  0.14742690960E+03 -0.21101662885E+02  0.19612441145E+03  0.12508020058E+03 0.  0.
          5    1    3    3  502    0  0.22022096485E+02 -0.14122779508E+02 -0.67495282092E+00  0.26501954569E+02  0.41800000000E+01 0. -1.
         -5    1    3    3    0  502 -0.47315461987E+02  0.16154968911E+03 -0.20426710064E+02  0.16962245688E+03  0.41800000000E+01 0. -1.
        -11    1    1    2    0    0  0.45767690922E+02 -0.39675056314E+02 -0.15103993953E+03  0.16273246436E+03  0.00000000000E+00 0. -1.
         11    1    1    2    0    0 -0.20474325420E+02 -0.10775185329E+03 -0.15085310148E+03  0.18651090615E+03  0.00000000000E+00 0.  1.
</event>
<event>
 7    1  0.2732144E-009  0.1001555E+03  0.7561462E-02  0.1279969E+00
          1   -1    0    0  501    0  0.00000000000E+00  0.00000000000E+00  0.16750152147E+04  0.16750152147E+04  0.00000000000E+00 0. -1.
         -1   -1    0    0    0  501 -0.00000000000E+00 -0.00000000000E+00 -0.97199777016E+01  0.97199777016E+01  0.00000000000E+00 0.  1.
         25    2    1    2    0    0  0.15476382431E+02 -0.17712208598E+02  0.13484200093E+04  0.13544140281E+04  0.12509035673E+03 0.  0.
          5    1    3    3  502    0 -0.48397219449E+02 -0.59823248729E+01  0.29911020862E+03  0.30308821877E+03  0.41800000000E+01 0.  1.
         -5    1    3    3    0  502  0.63873601880E+02 -0.11729883725E+02  0.10493098007E+04  0.10513258093E+04  0.41800000000E+01 0.  1.
        -11    1    1    2    0    0 -0.49586381421E+02  0.16129620202E+02  0.12514191020E+03  0.13557090971E+03  0.00000000000E+00 0.  1.
         11    1    1    2    0    0  0.34109998990E+02  0.15825883966E+01  0.19173331749E+03  0.19475025457E+03  0.00000000000E+00 0. -1.
</event>
<event>
 7    1  0.2732144E-009  0.1216159E+03  0.7561462E-02  0.1240455E+00
         -2   -1    0    0    0  501 -0.00000000000E+00  0.00000000000E+00  0.36787952573E+02  0.36787952573E+02  0.00000000000E+00 0.  1.
          2   -1    0    0  501    0  0.00000000000E+00 -0.00000000000E+00 -0.78150156997E+03  0.78150156997E+03  0.00000000000E+00 0. -1.
         25    2    1    2    0    0 -0.51512627908E+02 -0.30179211359E+02 -0.67227282474E+03  0.68641307062E+03  0.12509123470E+03 0.  0.
          5    1    3    3  502    0 -0.84572088869E+02  0.47154562426E+01 -0.51399425464E+03  0.52094360534E+03  0.41800000000E+01 0. -1.
         -5    1    3    3    0  502  0.33059460961E+02 -0.34894667601E+02 -0.15827857010E+03  0.16546946528E+03  0.41800000000E+01 0. -1.
        -11    1    1    2    0    0 -0.34399226036E+01  0.51217842135E+02 -0.32404611038E+02  0.60705512410E+02  0.00000000000E+00 0.  1.
         11    1    1    2    0    0  0.54952550512E+02 -0.21038630776E+02 -0.40036181615E+02  0.71170939512E+02  0.00000000000E+00 0. -1.
</event>
<event>
 7    1  0.2732144E-009  0.1246690E+03  0.7561462E-02  0.1235588E+00
         -2   -1    0    0    0  501 -0.00000000000E+00  0.00000000000E+00  0.18717228495E+02  0.18717228495E+02  0.00000000000E+00 0.  1.
          2   -1    0    0  501    0  0.00000000000E+00 -0.00000000000E+00 -0.88521270084E+03  0.88521270084E+03  0.00000000000E+00 0. -1.
         25    2    1    2    0    0 -0.48396293941E+02  0.39489793648E+02 -0.37435865937E+03  0.39961686162E+03  0.12509030808E+03 0.  0.
          5    1    3    3  502    0 -0.89307468915E+02  0.41054822637E+02 -0.25202634242E+03  0.27054772617E+03  0.41800000000E+01 0. -1.
         -5    1    3    3    0  502  0.40911174975E+02 -0.15650289887E+01 -0.12233231695E+03  0.12906913544E+03  0.41800000000E+01 0. -1.
        -11    1    1    2    0    0  0.19123113645E+02  0.29331588222E+02 -0.13885034084E+03  0.14319725100E+03  0.00000000000E+00 0.  1.
         11    1    1    2    0    0  0.29273180296E+02 -0.68821381870E+02 -0.35328647214E+03  0.36111581672E+03  0.00000000000E+00 0. -1.
</event>
<event>
 7    1  0.2732144E-009  0.1497479E+03  0.7561462E-02  0.1200783E+00
         -2   -1    0    0    0  501 -0.00000000000E+00  0.00000000000E+00  0.23251638834E+03  0.23251638834E+03  0.00000000000E+00 0.  1.
          2   -1    0    0  501    0  0.00000000000E+00 -0.00000000000E+00 -0.18924901157E+03  0.18924901157E+03  0.00000000000E+00 0. -1.
         25    2    1    2    0    0  0.71679906172E+02 -0.89342135875E+02  0.16164837458E+03  0.23430308298E+03  0.12509081300E+03 0.  0.
          5    1    3    3  502    0  0.82433773793E+02 -0.31918347999E+01  0.74959005775E+02  0.11154299538E+03  0.41800000000E+01 0.  1.
         -5    1    3    3    0  502 -0.10753867620E+02 -0.86150301075E+02  0.86689368803E+02  0.12276008760E+03  0.41800000000E+01 0.  1.
        -11    1    1    2    0    0 -0.86625775346E+01  0.59715825742E+02 -0.13930153933E+02  0.61927936202E+02  0.00000000000E+00 0.  1.
         11    1    1    2    0    0 -0.63017328637E+02  0.29626310132E+02 -0.10445084387E+03  0.12553438073E+03  0.00000000000E+00 0. -1.
</event>
<event>
 7    1  0.2732144E-009  0.1053453E+03  0.7561462E-02  0.1269441E+00
          4   -1    0    0  501    0  0.00000000000E+00  0.00000000000E+00  0.84896518916E+03  0.84896518916E+03  0.00000000000E+00 0. -1.
         -4   -1    0    0    0  501 -0.00000000000E+00 -0.00000000000E+00 -0.27508658202E+02  0.27508658202E+02  0.00000000000E+00 0.  1.
         25    2    1    2    0    0 -0.66255054775E+02 -0.27998592344E+02  0.67449334352E+03  0.68975724134E+03  0.12510047193E+03 0.  0.
          5    1    3    3  502    0 -0.22343722729E+02  0.25553309213E+02  0.45352923837E+02  0.56802937052E+02  0.41800000000E+01 0. -1.
         -5    1    3    3    0  502 -0.43911332046E+02 -0.53551901557E+02  0.62914041968E+03  0.63295430429E+03  0.41800000000E+01 0. -1.
        -11    1    1    2    0    0  0.62883520488E+02 -0.14454823069E+02  0.12018540683E+03  0.13641045075E+03  0.00000000000E+00 0. -1.
         11    1    1    2    0    0  0.33715342866E+01  0.42453415413E+02  0.26777780612E+02  0.50306155271E+02  0.00000000000E+00 0.  1.
</event>
<event>
 7    1  0.2732144E-009  0.7120988E+02  0.7561462E-02  0.1356026E+00
         -2   -1    0    0    0  501 -0.00000000000E+00  0.00000000000E+00  0.39291665131E+02  0.39291665131E+02  0.00000000000E+00 0.  1.
          2   -1    0    0  501    0  0.00000000000E+00 -0.00000000000E+00 -0.67921580096E+03  0.67921580096E+03  0.00000000000E+00 0. -1.
         25    2    1    2    0    0  0.54590928158E+02 -0.31028664411E+02 -0.57142652501E+03  0.58831862650E+03  0.12509030879E+03 0.  0.
          5    1    3    3  502    0  0.49605140378E+01 -0.18488663941E+02 -0.58971822759E+01  0.20461831605E+02  0.41800000000E+01 0. -1.
         -5    1    3    3    0  502  0.49630414120E+02 -0.12540000470E+02 -0.56552934274E+03  0.56785679490E+03  0.41800000000E+01 0. -1.
        -11    1    1    2    0    0 -0.33039689979E+02  0.36497871785E+02  0.85756204501E+01  0.49972562720E+02  0.00000000000E+00 0.  1.
         11    1    1    2    0    0 -0.21551238179E+02 -0.54692073733E+01 -0.77073231271E+02  0.80216276870E+02  0.00000000000E+00 0. -1.
</event>
<event>
 7    1  0.2732144E-009  0.1265274E+03  0.7561462E-02  0.1232701E+00
         -1   -1    0    0    0  501 -0.00000000000E+00  0.00000000000E+00  0.18385099328E+02  0.18385099328E+02  0.00000000000E+00 0.  1.
          1   -1    0    0  501    0  0.00000000000E+00 -0.00000000000E+00 -0.13086084479E+04  0.13086084479E+04  0.00000000000E+00 0. -1.
         25    2    1    2    0    0 -0.55503607126E+02  0.92425612938E+02 -0.79973008778E+03  0.81660225820E+03  0.12509152838E+03 0.  0.
          5    1    3    3  502    0 -0.17663177083E+02  0.57727078316E+02 -0.71419692758E+03  0.71675597462E+03  0.41800000000E+01 0. -1.
         -5    1    3    3    0  502 -0.37840430043E+02  0.34698534622E+02 -0.85533160200E+02  0.99846283580E+02  0.41800000000E+01 0. -1.
        -11    1    1    2    0    0  0.51995645970E+02 -0.11076331808E+03 -0.41906941326E+03  0.43656755830E+03  0.00000000000E+00 0.  1.
         11    1    1    2    0    0  0.35079611563E+01  0.18337705142E+02 -0.71423847503E+02  0.73823730693E+02  0.00000000000E+00 0. -1.
</event>
<event>
 7    1  0.2732144E-009  0.7988689E+02  0.7561462E-02  0.1329373E+00
         -2   -1    0    0    0  501 -0.00000000000E+00  0.00000000000E+00  0.26844870118E+02  0.26844870118E+02  0.00000000000E+00 0.  1.
          2   -1    0    0  501    0  0.00000000000E+00 -0.00000000000E+00 -0.80626577545E+03  0.80626577545E+03  0.00000000000E+00 0. -1.
         25    2    1    2    0    0  0.23905320561E+02 -0.65784483356E+01 -0.69367307166E+03  0.70529710158E+03  0.12508769250E+03 0.  0.
          5    1    3    3  502    0  0.45918819933E+02  0.34896293985E+02 -0.57030909893E+03  0.57323313763E+03  0.41800000000E+01 0. -1.
         -5    1    3    3    0  502 -0.22013499372E+02 -0.41474742321E+02 -0.12336397273E+03  0.13206396395E+03  0.41800000000E+01 0. -1.
        -11    1    1    2    0    0  0.10831615876E+01  0.24204439297E+02  0.10808824074E+02  0.26530337324E+02  0.00000000000E+00 0.  1.
         11    1    1    2    0    0 -0.24988482148E+02 -0.17625990961E+02 -0.96556657745E+02  0.10128320666E+03  0.00000000000E+00 0. -1.
</event>
<event>
 7    1  0.2732144E-009  0.1210972E+03  0.7561462E-02  0.1241298E+00
          2   -1    0    0  501    0  0.00000000000E+00  0.00000000000E+00  0.24490722258E+03  0.24490722258E+03  0.00000000000E+00 0.  1.
         -2   -1    0    0    0  501 -0.00000000000E+00 -0.00000000000E+00 -0.64144807310E+02  0.64144807310E+02  0.00000000000E+00 0. -1.
         25    2    1    2    0    0 -0.47040160937E+02 -0.26617307916E+02  0.76472215052E+02  0.15625954791E+03  0.12509112205E+03 0.  0.
          5    1    3    3  502    0  0.19175619242E+02 -0.59182888984E+02  0.34188907873E+02  0.71110284372E+02  0.41800000000E+01 0.  1.
         -5    1    3    3    0  502 -0.66215780179E+02  0.32565581068E+02  0.42283307179E+02  0.85149263538E+02  0.41800000000E+01 0.  1.
        -11    1    1    2    0    0  0.72377393690E+02  0.48668737482E+01  0.92116306773E+02  0.11725010683E+03  0.00000000000E+00 0. -1.
         11    1    1    2    0    0 -0.25337232753E+02  0.21750434168E+02  0.12173893446E+02  0.35542375156E+02  0.00000000000E+00 0.  1.
</event>
<event>
 7    1  0.2756402E-009  0.9431952E+02  0.7561462E-02  0.1292716E+00
          2   -1    0    0  501    0  0.00000000000E+00  0.00000000000E+00  0.48241485671E+03  0.48241485671E+03  0.00000000000E+00 0. -1.
         -2   -1    0    0    0  501 -0.00000000000E+00 -0.00000000000E+00 -0.39087712441E+02  0.39087712441E+02  0.00000000000E+00 0.  1.
         25    2    1    2    0    0 -0.36459647612E+02  0.37607628209E+02  0.36887616333E+03  0.39301409972E+03  0.12508724597E+03 0.  0.
          5    1    3    3  502    0 -0.69990324345E+02  0.51008413738E+02  0.16991158286E+03  0.19075618513E+03  0.41800000000E+01 0.  1.
         -5    1    3    3    0  502  0.33530676733E+02 -0.13400785529E+02  0.19896458047E+03  0.20225791460E+03  0.41800000000E+01 0.  1.
        -11    1    1    2    0    0  0.38139381261E+01 -0.32280199948E+02 -0.12986930497E+02  0.35003111239E+02  0.00000000000E+00 0.  1.
         11    1    1    2    0    0  0.32645709486E+02 -0.53274282613E+01  0.87437911436E+02  0.93485358190E+02  0.00000000000E+00 0. -1.
</event>
<event>
 7    1  0.2732144E-009  0.1519175E+03  0.7561462E-02  0.1198136E+00
          1   -1    0    0  501    0  0.00000000000E+00  0.00000000000E+00  0.10063710707E+04  0.10063710707E+04  0.00000000000E+00 0. -1.
         -1   -1    0    0    0  501 -0.00000000000E+00 -0.00000000000E+00 -0.29738890416E+02  0.29738890416E+02  0.00000000000E+00 0.  1.
         25    2    1    2    0    0  0.10899043334E+03 -0.29553787818E+02  0.73433141475E+03  0.75342188520E+03  0.12509823932E+03 0.  0.
          5    1    3    3  502    0  0.38268445445E+02  0.42975627414E+02  0.15722526569E+03  0.16747726723E+03  0.41800000000E+01 0. -1.
         -5    1    3    3    0  502  0.70721987894E+02 -0.72529415232E+02  0.57710614906E+03  0.58594461797E+03  0.41800000000E+01 0. -1.
        -11    1    1    2    0    0 -0.10242235581E+03 -0.11598857832E+02  0.15801481998E+03  0.18866254479E+03  0.00000000000E+00 0.  1.
         11    1    1    2    0    0 -0.65680775332E+01  0.41152645650E+02  0.84285945599E+02  0.94025531171E+02  0.00000000000E+00 0. -1.
</event>
<event>
 7    1  0.2732144E-009  0.9657937E+02  0.7561462E-02  0.1287658E+00
         -1   -1    0    0    0  501 -0.00000000000E+00  0.00000000000E+00  0.21335444597E+02  0.21335444597E+02  0.00000000000E+00 0.  1.
          1   -1    0    0  501    0  0.00000000000E+00 -0.00000000000E+00 -0.18734896266E+04  0.18734896266E+04  0.00000000000E+00 0. -1.
         25    2    1    2    0    0 -0.23529789122E+02  0.43829201846E+02 -0.17297196058E+04  0.17349503221E+04  0.12509218784E+03 0.  0.
          5    1    3    3  502    0  0.36876112980E+02  0.38906261445E+01 -0.19625123650E+03  0.19976737699E+03  0.41800000000E+01 0.  1.
         -5    1    3    3    0  502 -0.60405902102E+02  0.39938575702E+02 -0.15334683693E+04  0.15351829451E+04  0.41800000000E+01 0.  1.
        -11    1    1    2    0    0  0.38826267978E+02 -0.21227491907E+01 -0.11769541805E+02  0.40626435526E+02  0.00000000000E+00 0.  1.
         11    1    1    2    0    0 -0.15296478856E+02 -0.41706452655E+02 -0.11066503442E+03  0.11924831362E+03  0.00000000000E+00 0. -1.
</event>
<event>
 7    1  0.2732144E-009  0.1024300E+03  0.7561462E-02  0.1275267E+00
         -2   -1    0    0    0  501 -0.00000000000E+00  0.00000000000E+00  0.15038486953E+03  0.15038486953E+03  0.00000000000E+00 0.  1.
          2   -1    0    0  501    0  0.00000000000E+00 -0.00000000000E+00 -0.11154723008E+03  0.11154723008E+03  0.00000000000E+00 0. -1.
         25    2    1    2    0    0 -0.25698391446E+02 -0.62790764700E+02 -0.27723503719E+00  0.14230888085E+03  0.12509457724E+03 0.  0.
          5    1    3    3  502    0  0.29409959233E+02 -0.35507625596E+02  0.45978977233E+02  0.65247803986E+02  0.41800000000E+01 0. -1.
         -5    1    3    3    0  502 -0.55108350679E+02 -0.27283139104E+02 -0.46256212270E+02  0.77061076864E+02  0.41800000000E+01 0. -1.
        -11    1    1    2    0    0 -0.23228230143E+02  0.30382169831E+02 -0.13746025744E+02  0.40639637584E+02  0.00000000000E+00 0. -1.
         11    1    1    2    0    0  0.48926621589E+02  0.32408594869E+02  0.52860900231E+02  0.78983581172E+02  0.00000000000E+00 0.  1.
</event>
<event>
 7    1  0.2732144E-009  0.5410539E+02  0.7561462E-02  0.1424378E+00
         -3   -1    0    0    0  501 -0.00000000000E+00  0.00000000000E+00  0.86713964043E+02  0.86713964043E+02  0.00000000000E+00 0.  1.
          3   -1    0    0  501    0  0.00000000000E+00 -0.00000000000E+00 -0.13671840085E+03  0.13671840085E+03  0.00000000000E+00 0. -1.
         25    2    1    2    0    0 -0.19784122812E+02  0.44134690333E+01 -0.24320720011E+02  0.12903314870E+03  0.12508863185E+03 0.  0.
          5    1    3    3  502    0 -0.79302153036E+01 -0.94058480198E+01 -0.74429719542E+02  0.75555369384E+02  0.41800000000E+01 0. -1.
         -5    1    3    3    0  502 -0.11853907508E+02  0.13819317053E+02  0.50108999531E+02  0.53477779320E+02  0.41800000000E+01 0. -1.
        -11    1    1    2    0    0 -0.60019497034E+01  0.31643779541E+02  0.13796196903E+02  0.35038368011E+02  0.00000000000E+00 0.  1.
         11    1    1    2    0    0  0.25786072515E+02 -0.36057248575E+02 -0.39479913697E+02  0.59360848175E+02  0.00000000000E+00 0. -1.
</event>
<event>
 7    1  0.2732144E-009  0.3616193E+03  0.7561462E-02  0.1057945E+00
          2   -1    0    0  501    0  0.00000000000E+00  0.00000000000E+00  0.23488625396E+03  0.23488625396E+03  0.00000000000E+00 0. -1.
         -2   -1    0    0    0  501 -0.00000000000E+00 -0.00000000000E+00 -0.74914792469E+03  0.74914792469E+03  0.00000000000E+00 0.  1.
         25    2    1    2    0    0 -0.25830405490E+03  0.24368767884E+03 -0.48773494892E+03  0.61614718259E+03  0.12508917070E+03 0.  0.
          5    1    3    3  502    0 -0.16784568676E+03  0.92197342541E+02 -0.18850615883E+03  0.26874629086E+03  0.41800000000E+01 0. -1.
         -5    1    3    3    0  502 -0.90458368141E+02  0.15149033630E+03 -0.29922879009E+03  0.34740089173E+03  0.41800000000E+01 0. -1.
        -11    1    1    2    0    0  0.41526637905E+02 -0.35264329688E+02  0.29557796039E+02  0.61981431983E+02  0.00000000000E+00 0. -1.
         11    1    1    2    0    0  0.21677741699E+03 -0.20842334915E+03 -0.56084517850E+02  0.30590556407E+03  0.00000000000E+00 0.  1.
</event>
<event>
 7    1  0.2732144E-009  0.1012780E+03  0.7561462E-02  0.1277631E+00
          2   -1    0    0  501    0  0.00000000000E+00  0.00000000000E+00  0.29527171925E+04  0.29527171925E+04  0.00000000000E+00 0. -1.
         -2   -1    0    0    0  501 -0.00000000000E+00 -0.00000000000E+00 -0.14427630908E+02  0.14427630908E+02  0.00000000000E+00 0.  1.
         25    2    1    2    0    0  0.91246050984E+02  0.29838427258E+02  0.25913047183E+04  0.25960978299E+04  0.12509046884E+03 0.  0.
          5    1    3    3  502    0  0.50701819761E+01  0.18359036723E+02  0.55968982299E+02  0.59268544391E+02  0.41800000000E+01 0. -1.
         -5    1    3    3    0  502  0.86175869008E+02  0.11479390534E+02  0.25353357360E+04  0.25368292855E+04  0.41800000000E+01 0. -1.
        -11    1    1    2    0    0 -0.29261497724E+02 -0.10486030086E+02  0.18429817194E+02  0.36136549888E+02  0.00000000000E+00 0.  1.
         11    1    1    2    0    0 -0.61984553260E+02 -0.19352397172E+02  0.32855502606E+03  0.33491044366E+03  0.00000000000E+00 0. -1.
</event>
<event>
 7    1  0.2732144E-009  0.1403727E+03  0.7561462E-02  0.1212828E+00
         -2   -1    0    0    0  501 -0.00000000000E+00  0.00000000000E+00  0.12139274776E+03  0.12139274776E+03  0.00000000000E+00 0.  1.
          2   -1    0    0  501    0  0.00000000000E+00 -0.00000000000E+00 -0.20933046808E+03  0.20933046808E+03  0.00000000000E+00 0. -1.
         25    2    1    2    0    0 -0.64187775263E+02 -0.80783194849E+02 -0.10213830864E+03  0.19164030209E+03  0.12509107174E+03 0.  0.
          5    1    3    3  502    0 -0.50976253593E+02  0.22943439412E+02 -0.48091463741E+02  0.73859604164E+02  0.41800000000E+01 0. -1.
         -5    1    3    3    0  502 -0.13211521670E+02 -0.10372663426E+03 -0.54046844903E+02  0.11778069793E+03  0.41800000000E+01 0. -1.
        -11    1    1    2    0    0 -0.11061949949E+02  0.21735344460E+02 -0.25711765860E+02  0.35438493748E+02  0.00000000000E+00 0. -1.
         11    1    1    2    0    0  0.75249725211E+02  0.59047850388E+02  0.39912354187E+02  0.10364442000E+03  0.00000000000E+00 0.  1.
</event>
<event>
 7    1  0.2732144E-009  0.1169009E+03  0.7561462E-02  0.1248299E+00
         -2   -1    0    0    0  501 -0.00000000000E+00  0.00000000000E+00  0.18519885200E+03  0.18519885200E+03  0.00000000000E+00 0. -1.
          2   -1    0    0  501    0  0.00000000000E+00 -0.00000000000E+00 -0.81575486255E+02  0.81575486255E+02  0.00000000000E+00 0.  1.
         25    2    1    2    0    0 -0.50326829236E+02 -0.17378955093E+02  0.43395865994E+02  0.14270690357E+03  0.12508893365E+03 0.  0.
          5    1    3    3  502    0  0.35088037209E+02  0.19355128117E+02  0.66916404311E+00  0.40295303946E+02  0.41800000000E+01 0. -1.
         -5    1    3    3    0  502 -0.85414866445E+02 -0.36734083209E+02  0.42726701951E+02  0.10241159963E+03  0.41800000000E+01 0. -1.
        -11    1    1    2    0    0  0.41334629579E+02  0.50993789891E+02  0.60499091731E+02  0.89269582222E+02  0.00000000000E+00 0.  1.
         11    1    1    2    0    0  0.89921996567E+01 -0.33614834798E+02 -0.27159198443E+00  0.34797852454E+02  0.00000000000E+00 0. -1.
</event>
<event>
 7    1  0.2732144E-009  0.1280292E+03  0.7561462E-02  0.1230410E+00
          1   -1    0    0  501    0  0.00000000000E+00  0.00000000000E+00  0.89616699753E+02  0.89616699753E+02  0.00000000000E+00 0. -1.
         -1   -1    0    0    0  501 -0.00000000000E+00 -0.00000000000E+00 -0.26638448105E+03  0.26638448105E+03  0.00000000000E+00 0.  1.
         25    2    1    2    0    0  0.58607896663E+02 -0.92114931541E+02 -0.97959712077E+02  0.19277943152E+03  0.12509099833E+03 0.  0.
          5    1    3    3  502    0  0.58208777234E+02 -0.98218923887E+02 -0.21861205926E+02  0.11632112225E+03  0.41800000000E+01 0.  1.
         -5    1    3    3    0  502  0.39911942850E+00  0.61039923457E+01 -0.76098506150E+02  0.76458309275E+02  0.41800000000E+01 0.  1.
        -11    1    1    2    0    0  0.19571068470E+02  0.21172851112E+02  0.39228142132E+01  0.29098192669E+02  0.00000000000E+00 0. -1.
         11    1    1    2    0    0 -0.78178965132E+02  0.70942080429E+02 -0.82730883438E+02  0.13412355662E+03  0.00000000000E+00 0.  1.
</event>
<event>
 7    1  0.2732144E-009  0.9163469E+02  0.7561462E-02  0.1298941E+00
          1   -1    0    0  501    0  0.00000000000E+00  0.00000000000E+00  0.33214276659E+02  0.33214276659E+02  0.00000000000E+00 0. -1.
         -1   -1    0    0    0  501 -0.00000000000E+00 -0.00000000000E+00 -0.66216514377E+03  0.66216514377E+03  0.00000000000E+00 0.  1.
         25    2    1    2    0    0 -0.13324148206E+02  0.61041360295E+02 -0.52372790636E+03  0.54207139546E+03  0.12508755846E+03 0.  0.
          5    1    3    3  502    0 -0.54857653549E+02  0.46750067257E+02 -0.15826383797E+03  0.17395357355E+03  0.41800000000E+01 0.  1.
         -5    1    3    3    0  502  0.41533505343E+02  0.14291293038E+02 -0.36546406839E+03  0.36811782191E+03  0.41800000000E+01 0.  1.
        -11    1    1    2    0    0 -0.69303780970E+01 -0.11474873424E+02  0.15947937261E+02  0.20833616190E+02  0.00000000000E+00 0. -1.
         11    1    1    2    0    0  0.20254526303E+02 -0.49566486871E+02 -0.12117089801E+03  0.13247440878E+03  0.00000000000E+00 0.  1.
</event>
<event>
 7    1  0.2732144E-009  0.1062623E+03  0.7561462E-02  0.1267652E+00
          1   -1    0    0  501    0  0.00000000000E+00  0.00000000000E+00  0.73582583051E+02  0.73582583051E+02  0.00000000000E+00 0. -1.
         -1   -1    0    0    0  501 -0.00000000000E+00 -0.00000000000E+00 -0.20401984131E+03  0.20401984131E+03  0.00000000000E+00 0.  1.
         25    2    1    2    0    0  0.30238724395E+02 -0.41890320328E+02 -0.10234499317E+03  0.16967665429E+03  0.12508593044E+03 0.  0.
          5    1    3    3  502    0 -0.43505032165E+02 -0.27436261680E+02 -0.71871421749E+02  0.88478302102E+02  0.41800000000E+01 0.  1.
         -5    1    3    3    0  502  0.73743756560E+02 -0.14454058649E+02 -0.30473571422E+02  0.81198352189E+02  0.41800000000E+01 0.  1.
        -11    1    1    2    0    0 -0.96291020157E+01 -0.19040076498E+02  0.18710671965E+02  0.28378396080E+02  0.00000000000E+00 0. -1.
         11    1    1    2    0    0 -0.20609622380E+02  0.60930396827E+02 -0.46802937058E+02  0.79547373994E+02  0.00000000000E+00 0.  1.
</event>
<event>
 7    1  0.2732144E-009  0.6208426E+02  0.7561462E-02  0.1389287E+00
         -1   -1    0    0    0  501 -0.00000000000E+00  0.00000000000E+00  0.23639895606E+03  0.23639895606E+03  0.00000000000E+00 0.  1.
          1   -1    0    0  501    0  0.00000000000E+00 -0.00000000000E+00 -0.74455515449E+02  0.74455515449E+02  0.00000000000E+00 0. -1.
         25    2    1    2    0    0  0.15575753007E+02  0.62743735167E+01  0.17815453142E+03  0.21833077658E+03  0.12508924451E+03 0.  0.
          5    1    3    3  502    0 -0.26383345231E+01 -0.23701599924E+02 -0.10505323432E+02  0.26392439607E+02  0.41800000000E+01 0. -1.
         -5    1    3    3    0  502  0.18214087530E+02  0.29975973441E+02  0.18865985485E+03  0.19193833698E+03  0.41800000000E+01 0. -1.
        -11    1    1    2    0    0  0.54543050627E+01 -0.31398607772E+02  0.24548901996E+02  0.40227734251E+02  0.00000000000E+00 0.  1.
         11    1    1    2    0    0 -0.21030058069E+02  0.25124234256E+02 -0.40759992806E+02  0.52295960674E+02  0.00000000000E+00 0. -1.
</event>
<event>
 7    1  0.2732144E-009  0.1737023E+03  0.7561462E-02  0.1174041E+00
         -2   -1    0    0    0  501 -0.00000000000E+00  0.00000000000E+00  0.30922507178E+02  0.30922507178E+02  0.00000000000E+00 0.  1.
          2   -1    0    0  501    0  0.00000000000E+00 -0.00000000000E+00 -0.11490201588E+04  0.11490201588E+04  0.00000000000E+00 0. -1.
         25    2    1    2    0    0  0.84019199082E+02  0.12782432260E+03 -0.57111265794E+03  0.60433403350E+03  0.12510664539E+03 0.  0.
          5    1    3    3  502    0 -0.15351708580E+01  0.61140076343E+02 -0.37681211753E+03  0.38176604092E+03  0.41800000000E+01 0.  1.
         -5    1    3    3    0  502  0.85554369940E+02  0.66684246261E+02 -0.19430054041E+03  0.22256799258E+03  0.41800000000E+01 0.  1.
        -11    1    1    2    0    0 -0.46912637091E+02 -0.26461273929E+01 -0.11214547741E+03  0.12159114118E+03  0.00000000000E+00 0.  1.
         11    1    1    2    0    0 -0.37106561991E+02 -0.12517819521E+03 -0.43483951628E+03  0.45401749131E+03  0.00000000000E+00 0. -1.
</event>
<event>
 7    1  0.2732144E-009  0.1254950E+03  0.7561462E-02  0.1234298E+00
         -2   -1    0    0    0  501 -0.00000000000E+00  0.00000000000E+00  0.36562044873E+02  0.36562044873E+02  0.00000000000E+00 0.  1.
          2   -1    0    0  501    0  0.00000000000E+00 -0.00000000000E+00 -0.89768629440E+03  0.89768629440E+03  0.00000000000E+00 0. -1.
         25    2    1    2    0    0 -0.55056649226E+02 -0.42547803015E+02 -0.78306164728E+03  0.79603697250E+03  0.12509103875E+03 0.  0.
          5    1    3    3  502    0 -0.11429987424E+02  0.43655219143E+02 -0.29838902296E+03  0.30181104054E+03  0.41800000000E+01 0.  1.
         -5    1    3    3    0  502 -0.43626661801E+02 -0.86203022159E+02 -0.48467262433E+03  0.49422593196E+03  0.41800000000E+01 0.  1.
        -11    1    1    2    0    0  0.40925307024E+02 -0.19496868901E+02 -0.12899213852E+02  0.47131712997E+02  0.00000000000E+00 0. -1.
         11    1    1    2    0    0  0.14131342201E+02  0.62044671916E+02 -0.65163388394E+02  0.91079653779E+02  0.00000000000E+00 0.  1.
</event>
<event>
 7    1  0.2732144E-009  0.1909387E+03  0.7561462E-02  0.1157617E+00
         -2   -1    0    0    0  501 -0.00000000000E+00  0.00000000000E+00  0.22163456614E+03  0.22163456614E+03  0.00000000000E+00 0.  1.
          2   -1    0    0  501    0  0.00000000000E+00 -0.00000000000E+00 -0.27646702566E+03  0.27646702566E+03  0.00000000000E+00 0. -1.
         25    2    1    2    0    0 -0.14902263962E+03  0.47635961011E+02  0.12830634874E+03  0.23788321785E+03  0.12509586047E+03 0.  0.
          5    1    3    3  502    0 -0.16998075886E+03  0.32224047060E+02  0.10322684794E+03  0.20150707712E+03  0.41800000000E+01 0. -1.
         -5    1    3    3    0  502  0.20958119246E+02  0.15411913951E+02  0.25079500802E+02  0.36376140730E+02  0.41800000000E+01 0. -1.
        -11    1    1    2    0    0 -0.12128735790E+02  0.47385721976E+01 -0.39711352811E+01  0.13613603996E+02  0.00000000000E+00 0.  1.
         11    1    1    2    0    0  0.16115137541E+03 -0.52374533209E+02 -0.17916767298E+03  0.24660476995E+03  0.00000000000E+00 0. -1.
</event>
<event>
 7    1  0.2732144E-009  0.1015682E+03  0.7561462E-02  0.1277032E+00
         -2   -1    0    0    0  501 -0.00000000000E+00  0.00000000000E+00  0.23839973244E+02  0.23839973244E+02  0.00000000000E+00 0.  1.
          2   -1    0    0  501    0  0.00000000000E+00 -0.00000000000E+00 -0.58890012727E+03  0.58890012727E+03  0.00000000000E+00 0. -1.
         25    2    1    2    0    0 -0.38370236162E+02 -0.17678876431E+02 -0.33400603614E+03  0.35915555879E+03  0.12509142871E+03 0.  0.
          5    1    3    3  502    0 -0.83164011002E+02  0.10912413833E+01 -0.21277785421E+03  0.22849361299E+03  0.41800000000E+01 0.  1.
         -5    1    3    3    0  502  0.44793774840E+02 -0.18770117815E+02 -0.12122818193E+03  0.13066194580E+03  0.41800000000E+01 0.  1.
        -11    1    1    2    0    0  0.49359222140E+02  0.27388791212E+02 -0.23211648743E+03  0.23888185873E+03  0.00000000000E+00 0. -1.
         11    1    1    2    0    0 -0.10988985978E+02 -0.97099147803E+01  0.10623695511E+01  0.14702682984E+02  0.00000000000E+00 0.  1.
</event>
<event>
 7    1  0.2732144E-009  0.1118407E+03  0.7561462E-02  0.1257199E+00
         -2   -1    0    0    0  501 -0.00000000000E+00  0.00000000000E+00  0.45408064261E+02  0.45408064261E+02  0.00000000000E+00 0.  1.
          2   -1    0    0  501    0  0.00000000000E+00 -0.00000000000E+00 -0.60082561408E+03  0.60082561408E+03  0.00000000000E+00 0. -1.
         25    2    1    2    0    0  0.72418019235E+02  0.64966232309E+02 -0.14565349178E+03  0.21523906679E+03  0.12509170778E+03 0.  0.
          5    1    3    3  502    0  0.60912865687E+01  0.38105051519E+02  0.13170664165E+02  0.40988260733E+02  0.41800000000E+01 0. -1.
         -5    1    3    3    0  502  0.66326732666E+02  0.26861180790E+02 -0.15882415594E+03  0.17425080606E+03  0.41800000000E+01 0. -1.
        -11    1    1    2    0    0 -0.39765287734E+02  0.78461257925E+00 -0.50371855991E+02  0.64181131195E+02  0.00000000000E+00 0.  1.
         11    1    1    2    0    0 -0.32652731501E+02 -0.65750844888E+02 -0.35939220205E+03  0.36681348035E+03  0.00000000000E+00 0. -1.
</event>
<event>
 7    1  0.3465299E-009  0.5712934E+02  0.7561462E-02  0.1410289E+00
         -1   -1    0    0    0  501 -0.00000000000E+00  0.00000000000E+00  0.29910432731E+02  0.29910432731E+02  0.00000000000E+00 0.  1.
          1   -1    0    0  501    0  0.00000000000E+00 -0.00000000000E+00 -0.46282591129E+03  0.46282591129E+03  0.00000000000E+00 0. -1.
         25    2    1    2    0    0  0.63448055804E+01 -0.10845328389E+02 -0.33804836216E+03  0.36066756897E+03  0.12508606013E+03 0.  0.
          5    1    3    3  502    0 -0.15741611841E+02  0.21087180461E+01 -0.33400723998E+03  0.33441075610E+03  0.41800000000E+01 0. -1.
         -5    1    3    3    0  502  0.22086417422E+02 -0.12954046436E+02 -0.40411221823E+01  0.26256812870E+02  0.41800000000E+01 0. -1.
        -11    1    1    2    0    0  0.32161287466E+02  0.87415564838E+01 -0.86374189744E+02  0.92581120512E+02  0.00000000000E+00 0. -1.
         11    1    1    2    0    0 -0.38506093046E+02  0.21037719057E+01 -0.84929266512E+01  0.39487654539E+02  0.00000000000E+00 0.  1.
</event>
<event>
 7    1  0.2732144E-009  0.1100774E+03  0.7561462E-02  0.1260427E+00
         -1   -1    0    0    0  501 -0.00000000000E+00  0.00000000000E+00  0.65778298774E+02  0.65778298774E+02  0.00000000000E+00 0.  1.
          1   -1    0    0  501    0  0.00000000000E+00 -0.00000000000E+00 -0.29293884506E+03  0.29293884506E+03  0.00000000000E+00 0. -1.
         25    2    1    2    0    0  0.68298630007E+02 -0.50288272432E+02 -0.15074732606E+03  0.21346500400E+03  0.12509571700E+03 0.  0.
          5    1    3    3  502    0  0.20654048002E+02 -0.46958744251E+02 -0.15690173804E+03  0.16512825670E+03  0.41800000000E+01 0.  1.
         -5    1    3    3    0  502  0.47644582004E+02 -0.33295281806E+01  0.61544119779E+01  0.48336747295E+02  0.41800000000E+01 0.  1.
        -11    1    1    2    0    0 -0.75913999398E+02  0.67712978601E+02 -0.51816880165E+02  0.11416204205E+03  0.00000000000E+00 0.  1.
         11    1    1    2    0    0  0.76153693917E+01 -0.17424706169E+02 -0.24596340055E+02  0.31090097783E+02  0.00000000000E+00 0. -1.
</event>
<event>
 7    1  0.2732144E-009  0.6356535E+02  0.7561462E-02  0.1383451E+00
          2   -1    0    0  501    0  0.00000000000E+00  0.00000000000E+00  0.13590257786E+04  0.13590257786E+04  0.00000000000E+00 0. -1.
         -2   -1    0    0    0  501 -0.00000000000E+00 -0.00000000000E+00 -0.16504236287E+02  0.16504236287E+02  0.00000000000E+00 0.  1.
         25    2    1    2    0    0 -0.28939061995E+02 -0.20668113652E+02  0.11813870541E+04  0.11885245312E+04  0.12510215552E+03 0.  0.
          5    1    3    3  502    0 -0.25807481749E+02  0.39400195317E+01  0.11384779178E+04  0.11387848750E+04  0.41800000000E+01 0.  1.
         -5    1    3    3    0  502 -0.31315802460E+01 -0.24608133183E+02  0.42909136325E+02  0.49739656149E+02  0.41800000000E+01 0.  1.
        -11    1    1    2    0    0 -0.16965844671E+02 -0.10589020333E+02  0.40666638183E+01  0.20408453926E+02  0.00000000000E+00 0.  1.
         11    1    1    2    0    0  0.45904906666E+02  0.31257133985E+02  0.15706782433E+03  0.16659702974E+03  0.00000000000E+00 0. -1.
</event>
<event>
 7    1  0.2732144E-009  0.1250108E+03  0.7561462E-02  0.1235052E+00
          1   -1    0    0  501    0  0.00000000000E+00  0.00000000000E+00  0.60089081356E+03  0.60089081356E+03  0.00000000000E+00 0. -1.
         -1   -1    0    0    0  501 -0.00000000000E+00 -0.00000000000E+00 -0.62156816322E+02  0.62156816322E+02  0.00000000000E+00 0.  1.
         25    2    1    2    0    0  0.94585299625E+02 -0.54517594903E+02  0.48517316246E+03  0.51279466820E+03  0.12508727795E+03 0.  0.
          5    1    3    3  502    0  0.85530260374E+02 -0.62345090477E+02  0.48836564514E+03  0.49972073351E+03  0.41800000000E+01 0. -1.
         -5    1    3    3    0  502  0.90550392512E+01  0.78274955738E+01 -0.31924826762E+01  0.13073934696E+02  0.41800000000E+01 0. -1.
        -11    1    1    2    0    0 -0.88159746865E+02  0.12650697666E+02  0.10213146333E+02  0.89646469405E+02  0.00000000000E+00 0.  1.
         11    1    1    2    0    0 -0.64255527601E+01  0.41866897237E+02  0.43347688450E+02  0.60606492280E+02  0.00000000000E+00 0. -1.
</event>
<event>
 6    1  0.2732144E-009  0.1819987E+03  0.7561462E-02  0.1165883E+00
         -1   -1    0    0    0  501 -0.00000000000E+00  0.00000000000E+00  0.45951292182E+03  0.45951292182E+03  0.00000000000E+00 0.  1.
          1   -1    0    0  501    0  0.00000000000E+00 -0.00000000000E+00 -0.85139430555E+02  0.85139430555E+02  0.00000000000E+00 0. -1.
          5    1    1    2  502    0  0.28098934188E+02 -0.29755763526E+02  0.47869768166E+02  0.63118481206E+02  0.41800000000E+01 0.  1.
         -5    1    1    2    0  502 -0.13389522199E+03 -0.87260863813E+02  0.21461770368E+03  0.26762029064E+03  0.41800000000E+01 0.  1.
        -11    1    1    2    0    0  0.20319441295E+02  0.30848289283E+01 -0.13138924208E+02  0.24393179239E+02  0.00000000000E+00 0. -1.
         11    1    1    2    0    0  0.85476846509E+02  0.11393179841E+03  0.12502494363E+03  0.18952040129E+03  0.00000000000E+00 0.  1.
</event>
<event>
 6    1  0.2732144E-009  0.1292529E+03  0.7561462E-02  0.1228568E+00
         -2   -1    0    0    0  501 -0.00000000000E+00  0.00000000000E+00  0.17148442713E+03  0.17148442713E+03  0.00000000000E+00 0.  1.
          2   -1    0    0  501    0  0.00000000000E+00 -0.00000000000E+00 -0.12121325491E+03  0.12121325491E+03  0.00000000000E+00 0. -1.
          5    1    1    2  502    0 -0.18508290265E+02  0.11749997156E+03 -0.15521118111E+02  0.12002990308E+03  0.41800000000E+01 0. -1.
         -5    1    1    2    0  502  0.19365610421E+02 -0.22145604930E+02  0.22618961144E+02  0.37343600361E+02  0.41800000000E+01 0. -1.
        -11    1    1    2    0    0 -0.26306128078E+02 -0.31555577085E+02 -0.16562181688E+02  0.44295289612E+02  0.00000000000E+00 0. -1.
         11    1    1    2    0    0  0.25448807922E+02 -0.63798789545E+02  0.59735510876E+02  0.91028888995E+02  0.00000000000E+00 0.  1.
</event>
<event>
 7    1  0.2732144E-009  0.1816360E+03  0.7561462E-02  0.1166229E+00
          1   -1    0    0  501    0  0.00000000000E+00  0.00000000000E+00  0.49214296089E+02  0.49214296089E+02  0.00000000000E+00 0. -1.
         -1   -1    0    0    0  501 -0.00000000000E+00 -0.00000000000E+00 -0.73007989332E+03  0.73007989332E+03  0.00000000000E+00 0.  1.
         25    2    1    2    0    0  0.51860509466E+01 -0.14963788971E+03 -0.32622370688E+03  0.38011699771E+03  0.12509449171E+03 0.  0.
          5    1    3    3  502    0  0.48941910887E+02 -0.13631035398E+03 -0.20988192856E+03  0.25503670242E+03  0.41800000000E+01 0.  1.
         -5    1    3    3    0  502 -0.43755859940E+02 -0.13327535728E+02 -0.11634177832E+03  0.12508029529E+03  0.41800000000E+01 0.  1.
        -11    1    1    2    0    0  0.20842518042E+02  0.14440433905E+03 -0.33719970730E+03  0.36741075964E+03  0.00000000000E+00 0.  1.
         11    1    1    2    0    0 -0.26028568989E+02  0.52335506582E+01 -0.17442183047E+02  0.31766432055E+02  0.00000000000E+00 0. -1.
</event>
<event>
 7    1  0.2732144E-009  0.9987164E+02  0.7561462E-02  0.1280566E+00
          1   -1    0    0  501    0  0.00000000000E+00  0.00000000000E+00  0.49420163678E+02  0.49420163678E+02  0.00000000000E+00 0. -1.
         -1   -1    0    0    0  501 -0.00000000000E+00 -0.00000000000E+00 -0.35699089875E+03  0.35699089875E+03  0.00000000000E+00 0.  1.
         25    2    1    2    0    0 -0.45627851739E+02 -0.49124959485E+02 -0.11196851301E+03  0.18077151856E+03  0.12508489725E+03 0.  0.
          5    1    3    3  502    0  0.23478365870E+02 -0.40473930803E+02  0.21366123530E+01  0.47025633977E+02  0.41800000000E+01 0. -1.
         -5    1    3    3    0  502 -0.69106217609E+02 -0.86510286822E+01 -0.11410512536E+03  0.13374588459E+03  0.41800000000E+01 0. -1.
        -11    1    1    2    0    0  0.54684912041E+02  0.31319444852E+02 -0.19576922647E+03  0.20566219211E+03  0.00000000000E+00 0.  1.
         11    1    1    2    0    0 -0.90570603015E+01  0.17805514634E+02  0.16700440823E+00  0.19977351755E+02  0.00000000000E+00 0. -1.
</event>
<event>
 7    1  0.2732144E-009  0.2894704E+03  0.7561462E-02  0.1090626E+00
          1   -1    0    0  501    0  0.00000000000E+00  0.00000000000E+00  0.19682468384E+04  0.19682468384E+04  0.00000000000E+00 0. -1.
         -1   -1    0    0    0  501 -0.00000000000E+00 -0.00000000000E+00 -0.46594848816E+02  0.46594848816E+02  0.00000000000E+00 0.  1.
         25    2    1    2    0    0  0.22433523737E+03  0.15932821303E+03  0.76758734206E+03  0.82495425556E+03  0.12508963942E+03 0.  0.
          5    1    3    3  502    0  0.60363804943E+02  0.10422328413E+03  0.22222432218E+03  0.25279913701E+03  0.41800000000E+01 0.  1.
         -5    1    3    3    0  502  0.16397143243E+03  0.55104928897E+02  0.54536301988E+03  0.57215511855E+03  0.41800000000E+01 0.  1.
        -11    1    1    2    0    0 -0.16134148284E+02 -0.45133654864E+02  0.28324572696E+03  0.28727251762E+03  0.00000000000E+00 0. -1.
         11    1    1    2    0    0 -0.20820108909E+03 -0.11419455816E+03  0.87081892059E+03  0.90261491405E+03  0.00000000000E+00 0.  1.
</event>
<event>
 7    1  0.2732144E-009  0.2818841E+03  0.7561462E-02  0.1094664E+00
          2   -1    0    0  501    0  0.00000000000E+00  0.00000000000E+00  0.11252297205E+04  0.11252297205E+04  0.00000000000E+00 0.  1.
         -2   -1    0    0    0  501 -0.00000000000E+00 -0.00000000000E+00 -0.14808350616E+03  0.14808350616E+03  0.00000000000E+00 0. -1.
         25    2    1    2    0    0 -0.70986623353E+02 -0.26655052207E+03  0.93103901353E+03  0.97906654782E+03  0.12509747733E+03 0.  0.
          5    1    3    3  502    0 -0.46626978567E+02 -0.47611584987E+02  0.10737703909E+03  0.12644460874E+03  0.41800000000E+01 0. -1.
         -5    1    3    3    0  502 -0.24359644786E+02 -0.21893893708E+03  0.82366197443E+03  0.85262193908E+03  0.41800000000E+01 0. -1.
        -11    1    1    2    0    0  0.37360804595E+02  0.99884280357E+02 -0.25675595252E+02  0.10969017902E+03  0.00000000000E+00 0. -1.
         11    1    1    2    0    0  0.33625818758E+02  0.16666624171E+03  0.71782796066E+02  0.18455649982E+03  0.00000000000E+00 0.  1.
</event>
<event>
 7    1  0.2732144E-009  0.2046608E+03  0.7561462E-02  0.1145865E+00
          2   -1    0    0  501    0  0.00000000000E+00  0.00000000000E+00  0.15541092604E+03  0.15541092604E+03  0.00000000000E+00 0. -1.
         -2   -1    0    0    0  501 -0.00000000000E+00 -0.00000000000E+00 -0.31335129317E+03  0.31335129317E+03  0.00000000000E+00 0.  1.
         25    2    1    2    0    0 -0.10205279275E+03  0.16309648588E+03 -0.99631955540E+02  0.25017715840E+03  0.12508736070E+03 0.  0.
          5    1    3    3  502    0 -0.91260151276E+02  0.16467043823E+03 -0.44071927369E+02  0.19340262568E+03  0.41800000000E+01 0. -1.
         -5    1    3    3    0  502 -0.10792641473E+02 -0.15739523430E+01 -0.55560028172E+02  0.56774532727E+02  0.41800000000E+01 0. -1.
        -11    1    1    2    0    0  0.76134489525E+02 -0.45040965034E+02 -0.12547836804E+02  0.89345381721E+02  0.00000000000E+00 0.  1.
         11    1    1    2    0    0  0.25918303224E+02 -0.11805552085E+03 -0.45760574787E+02  0.12923967909E+03  0.00000000000E+00 0. -1.
</event>
<event>
 7    1  0.2732144E-009  0.1521577E+03  0.7561462E-02  0.1197846E+00
         -2   -1    0    0    0  501 -0.00000000000E+00  0.00000000000E+00  0.14966671629E+02  0.14966671629E+02  0.00000000000E+00 0.  1.
          2   -1    0    0  501    0  0.00000000000E+00 -0.00000000000E+00 -0.21736969257E+04  0.21736969257E+04  0.00000000000E+00 0. -1.
         25    2    1    2    0    0 -0.30392050980E+02 -0.11643342320E+03 -0.16249032993E+04  0.16341475620E+04  0.12508838225E+03 0.  0.
          5    1    3    3  502    0 -0.23192286027E+02 -0.14276835242E+03 -0.12841714482E+04  0.12922981333E+04  0.41800000000E+01 0.  1.
         -5    1    3    3    0  502 -0.71997649521E+01  0.26334929222E+02 -0.34073185113E+03  0.34184942868E+03  0.41800000000E+01 0.  1.
        -11    1    1    2    0    0  0.13114894468E+02 -0.11356590038E+01 -0.79461227611E+01  0.15376314423E+02  0.00000000000E+00 0.  1.
         11    1    1    2    0    0  0.17277156511E+02  0.11756908220E+03 -0.52588083193E+03  0.53913972086E+03  0.00000000000E+00 0. -1.
</event>
<event>
 7    1  0.2732144E-009  0.3039976E+03  0.7561462E-02  0.1083259E+00
          1   -1    0    0  501    0  0.00000000000E+00  0.00000000000E+00  0.87262190123E+03  0.87262190123E+03  0.00000000000E+00 0. -1.
         -1   -1    0    0    0  501 -0.00000000000E+00 -0.00000000000E+00 -0.10918030457E+03  0.10918030457E+03  0.00000000000E+00 0.  1.
         25    2    1    2    0    0  0.60782287504E+02 -0.28149116083E+03  0.41171030514E+03  0.51776899839E+03  0.12509036826E+03 0.  0.
          5    1    3    3  502    0 -0.29962107576E+02 -0.10490261929E+03  0.99274916538E+02  0.14756445669E+03  0.41800000000E+01 0. -1.
         -5    1    3    3    0  502  0.90744395081E+02 -0.17658854154E+03  0.31243538860E+03  0.37020454170E+03  0.41800000000E+01 0. -1.
        -11    1    1    2    0    0 -0.73166087951E+01  0.21402851255E+03  0.27632557882E+03  0.34959628496E+03  0.00000000000E+00 0.  1.
         11    1    1    2    0    0 -0.53465678709E+02  0.67462648274E+02  0.75405712706E+02  0.11443692245E+03  0.00000000000E+00 0. -1.
</event>
<event>
 7    1  0.2732144E-009  0.1107725E+03  0.7561462E-02  0.1259146E+00
          2   -1    0    0  501    0  0.00000000000E+00  0.00000000000E+00  0.76178615280E+03  0.76178615280E+03  0.00000000000E+00 0. -1.
         -2   -1    0    0    0  501 -0.00000000000E+00 -0.00000000000E+00 -0.19796953709E+02  0.19796953709E+02  0.00000000000E+00 0.  1.
         25    2    1    2    0    0  0.45350639566E+02 -0.23387279934E+02  0.51006840267E+03  0.52765461912E+03  0.12508387710E+03 0.  0.
          5    1    3    3  502    0 -0.14513341120E+02 -0.61558561166E+02  0.26499303135E+03  0.27246811297E+03  0.41800000000E+01 0. -1.
         -5    1    3    3    0  502  0.59863980686E+02  0.38171281233E+02  0.24507537132E+03  0.25518650615E+03  0.41800000000E+01 0. -1.
        -11    1    1    2    0    0 -0.57126938963E+02  0.37744853455E+02  0.22310022793E+03  0.23337067687E+03  0.00000000000E+00 0. -1.
         11    1    1    2    0    0  0.11776299397E+02 -0.14357573521E+02  0.88205684939E+01  0.20557810522E+02  0.00000000000E+00 0.  1.
</event>
<event>
 7    1  0.2732144E-009  0.8410529E+02  0.7561462E-02  0.1317789E+00
         -2   -1    0    0    0  501 -0.00000000000E+00  0.00000000000E+00  0.74619310025E+02  0.74619310025E+02  0.00000000000E+00 0.  1.
          2   -1    0    0  501    0  0.00000000000E+00 -0.00000000000E+00 -0.23154611455E+03  0.23154611455E+03  0.00000000000E+00 0. -1.
         25    2    1    2    0    0  0.39457667504E+02 -0.44087499969E+02 -0.14441016662E+03  0.20001684768E+03  0.12510726579E+03 0.  0.
          5    1    3    3  502    0 -0.59307505528E+01  0.10067056385E+02 -0.12636042950E+03  0.12696830301E+03  0.41800000000E+01 0. -1.
         -5    1    3    3    0  502  0.45388418056E+02 -0.54154556354E+02 -0.18049737120E+02  0.73048544665E+02  0.41800000000E+01 0. -1.
        -11    1    1    2    0    0  0.14914256941E+02  0.21441189906E+02 -0.34507737224E+02  0.43277518564E+02  0.00000000000E+00 0. -1.
         11    1    1    2    0    0 -0.54371924445E+02  0.22646310063E+02  0.21991099316E+02  0.62871058337E+02  0.00000000000E+00 0.  1.
</event>
<event>
 7    1  0.2732144E-009  0.1088131E+03  0.7561462E-02  0.1262784E+00
          2   -1    0    0  501    0  0.00000000000E+00  0.00000000000E+00  0.19547102272E+03  0.19547102272E+03  0.00000000000E+00 0. -1.
         -2   -1    0    0    0  501 -0.00000000000E+00 -0.00000000000E+00 -0.10057896198E+03  0.10057896198E+03  0.00000000000E+00 0.  1.
         25    2    1    2    0    0  0.72725973027E+02 -0.42814495055E+02  0.18434714876E+02  0.15202009777E+03  0.12509245891E+03 0.  0.
          5    1    3    3  502    0 -0.28058968908E+01  0.18082495994E+02  0.47151307126E+02  0.50750053029E+02  0.41800000000E+01 0. -1.
         -5    1    3    3    0  502  0.75531869917E+02 -0.60896991049E+02 -0.28716592250E+02  0.10127004474E+03  0.41800000000E+01 0. -1.
        -11    1    1    2    0    0 -0.36337791702E+02  0.52720432169E+02  0.83948698319E+02  0.10558059965E+03  0.00000000000E+00 0. -1.
         11    1    1    2    0    0 -0.36388181325E+02 -0.99059371135E+01 -0.74913524548E+01  0.38449287273E+02  0.00000000000E+00 0.  1.
</event>
<event>
 7    1  0.2732144E-009  0.2374220E+03  0.7561462E-02  0.1121522E+00
          2   -1    0    0  501    0  0.00000000000E+00  0.00000000000E+00  0.33325446924E+03  0.33325446924E+03  0.00000000000E+00 0. -1.
         -2   -1    0    0    0  501 -0.00000000000E+00 -0.00000000000E+00 -0.29629101872E+03  0.29629101872E+03  0.00000000000E+00 0.  1.
         25    2    1    2    0    0 -0.22549398175E+03 -0.45741216127E+02 -0.16670310763E+03  0.31044570084E+03  0.12508721923E+03 0.  0.
          5    1    3    3  502    0 -0.13019443589E+03 -0.11540194918E+02 -0.16308980586E+03  0.20904431207E+03  0.41800000000E+01 0.  1.
         -5    1    3    3    0  502 -0.95299545865E+02 -0.34201021208E+02 -0.36133017757E+01  0.10140138877E+03  0.41800000000E+01 0.  1.
        -11    1    1    2    0    0  0.19680807821E+03  0.10214294139E+02  0.18315617772E+03  0.26904263025E+03  0.00000000000E+00 0.  1.
         11    1    1    2    0    0  0.28685903541E+02  0.35526921988E+02  0.20510380440E+02  0.50057156868E+02  0.00000000000E+00 0. -1.
</event>
<event>
 7    1  0.2732144E-009  0.2286250E+03  0.7561462E-02  0.1127611E+00
         -1   -1    0    0    0  501 -0.00000000000E+00  0.00000000000E+00  0.70075608695E+02  0.70075608695E+02  0.00000000000E+00 0.  1.
          1   -1    0    0  501    0  0.00000000000E+00 -0.00000000000E+00 -0.90136294042E+03  0.90136294042E+03  0.00000000000E+00 0. -1.
         25    2    1    2    0    0  0.21803479231E+03 -0.43281126700E+02 -0.50353915701E+03  0.56445616202E+03  0.12508656851E+03 0.  0.
          5    1    3    3  502    0  0.33761306984E+01 -0.14536458311E+02 -0.14308366352E+03  0.14392051294E+03  0.41800000000E+01 0. -1.
         -5    1    3    3    0  502  0.21465866161E+03 -0.28744668389E+02 -0.36045549349E+03  0.42053564909E+03  0.41800000000E+01 0. -1.
        -11    1    1    2    0    0 -0.14004314500E+02  0.12551107279E+02  0.10178064759E+01  0.18833136982E+02  0.00000000000E+00 0.  1.
         11    1    1    2    0    0 -0.20403047781E+03  0.30730019421E+02 -0.32876598119E+03  0.38814925011E+03  0.00000000000E+00 0. -1.
</event>
<event>
 7    1  0.2732144E-009  0.1041234E+03  0.7561462E-02  0.1271856E+00
         -4   -1    0    0    0  501 -0.00000000000E+00  0.00000000000E+00  0.28931582278E+03  0.28931582278E+03  0.00000000000E+00 0.  1.
          4   -1    0    0  501    0  0.00000000000E+00 -0.00000000000E+00 -0.65068488938E+02  0.65068488938E+02  0.00000000000E+00 0. -1.
         25    2    1    2    0    0  0.82995400189E+02 -0.16700673768E+02  0.12075050282E+03  0.19337581855E+03  0.12508546803E+03 0.  0.
          5    1    3    3  502    0  0.59836491284E+02 -0.72625415309E+01  0.14574474722E+03  0.15777247523E+03  0.41800000000E+01 0. -1.
         -5    1    3    3    0  502  0.23158908905E+02 -0.94381322376E+01 -0.24994244405E+02  0.35603343315E+02  0.41800000000E+01 0. -1.
        -11    1    1    2    0    0 -0.92889969493E+02  0.36921969894E+02  0.76601193792E+02  0.12593459089E+03  0.00000000000E+00 0.  1.
         11    1    1    2    0    0  0.98945693039E+01 -0.20221296125E+02  0.26895637233E+02  0.35073902276E+02  0.00000000000E+00 0. -1.
</event>
<event>
 7    1  0.2732144E-009  0.8957377E+02  0.7561462E-02  0.1303887E+00
          2   -1    0    0  501    0  0.00000000000E+00  0.00000000000E+00  0.73346487512E+02  0.73346487512E+02  0.00000000000E+00 0.  1.
         -2   -1    0    0    0  501 -0.00000000000E+00 -0.00000000000E+00 -0.17591449815E+03  0.17591449815E+03  0.00000000000E+00 0. -1.
         25    2    1    2    0    0 -0.48585480688E-01  0.63443374353E+01 -0.92584879341E+02  0.15575414508E+03  0.12508853205E+03 0.  0.
          5    1    3    3  502    0 -0.13860043024E+02  0.50670662675E+02 -0.95470303708E+02  0.10904892544E+03  0.41800000000E+01 0. -1.
         -5    1    3    3    0  502  0.13811457543E+02 -0.44326325239E+02  0.28854243667E+01  0.46705219649E+02  0.41800000000E+01 0. -1.
        -11    1    1    2    0    0 -0.38273567349E+02  0.76600505853E+01  0.19047393925E+02  0.43432079710E+02  0.00000000000E+00 0.  1.
         11    1    1    2    0    0  0.38322152830E+02 -0.14004388021E+02 -0.29030525218E+02  0.50074760866E+02  0.00000000000E+00 0. -1.
</event>
<event>
 7    1  0.2732144E-009  0.8709087E+02  0.7561462E-02  0.1310054E+00
         -4   -1    0    0    0  501 -0.00000000000E+00  0.00000000000E+00  0.24565515541E+03  0.24565515541E+03  0.00000000000E+00 0. -1.
          4   -1    0    0  501    0  0.00000000000E+00 -0.00000000000E+00 -0.49283226553E+02  0.49283226553E+02  0.00000000000E+00 0.  1.
         25    2    1    2    0    0  0.60314562864E+01  0.91214698413E+01  0.13804238418E+03  0.18660805331E+03  0.12508911245E+03 0.  0.
          5    1    3    3  502    0 -0.15584147278E+02  0.45152751257E+02  0.13614331193E+03  0.14434025903E+03  0.41800000000E+01 0. -1.
         -5    1    3    3    0  502  0.21615603564E+02 -0.36031281416E+02  0.18990722464E+01  0.42267794280E+02  0.41800000000E+01 0. -1.
        -11    1    1    2    0    0  0.50764672323E+01  0.36602940083E+02  0.47258905406E+02  0.59991248383E+02  0.00000000000E+00 0. -1.
         11    1    1    2    0    0 -0.11107923519E+02 -0.45724409925E+02  0.11070639274E+02  0.48339080275E+02  0.00000000000E+00 0.  1.
</event>
<event>
 7    1  0.2732144E-009  0.1544413E+03  0.7561462E-02  0.1195119E+00
          2   -1    0    0  501    0  0.00000000000E+00  0.00000000000E+00  0.37473951239E+02  0.37473951239E+02  0.00000000000E+00 0. -1.
         -2   -1    0    0    0  501 -0.00000000000E+00 -0.00000000000E+00 -0.73372934127E+03  0.73372934127E+03  0.00000000000E+00 0.  1.
         25    2    1    2    0    0 -0.11893635668E+03 -0.13215792122E+01 -0.28367702167E+03  0.33206582834E+03  0.12508980060E+03 0.  0.
          5    1    3    3  502    0 -0.66430474332E+02 -0.53159307993E+02 -0.21467415909E+03  0.23095754356E+03  0.41800000000E+01 0. -1.
         -5    1    3    3    0  502 -0.52505882352E+02  0.51837728781E+02 -0.69002862575E+02  0.10110828478E+03  0.41800000000E+01 0. -1.
        -11    1    1    2    0    0  0.50221425707E+02 -0.44585716072E+02 -0.20472449171E+03  0.21545810541E+03  0.00000000000E+00 0.  1.
         11    1    1    2    0    0  0.68714930976E+02  0.45907295284E+02 -0.20785387665E+03  0.22367935876E+03  0.00000000000E+00 0. -1.
</event>
<event>
 7    1  0.2732144E-009  0.2444953E+03  0.7561462E-02  0.1116834E+00
         -2   -1    0    0    0  501 -0.00000000000E+00  0.00000000000E+00  0.55525947286E+02  0.55525947286E+02  0.00000000000E+00 0.  1.
          2   -1    0    0  501    0  0.00000000000E+00 -0.00000000000E+00 -0.12917458173E+04  0.12917458173E+04  0.00000000000E+00 0. -1.
         25    2    1    2    0    0  0.19063086087E+03  0.14743198489E+03 -0.58406329780E+03  0.64409208092E+03  0.12509339542E+03 0.  0.
          5    1    3    3  502    0  0.53140194592E+02  0.60953540216E+02 -0.77406350255E+02  0.11201977417E+03  0.41800000000E+01 0.  1.
         -5    1    3    3    0  502  0.13749066628E+03  0.86478444675E+02 -0.50665694754E+03  0.53207230674E+03  0.41800000000E+01 0.  1.
        -11    1    1    2    0    0 -0.14569178768E+03 -0.13568325747E+03 -0.40029382187E+03  0.44706955520E+03  0.00000000000E+00 0.  1.
         11    1    1    2    0    0 -0.44939073189E+02 -0.11748727418E+02 -0.25186275037E+03  0.25611012849E+03  0.00000000000E+00 0. -1.
</event>
<event>
 7    1  0.2732144E-009  0.1421271E+03  0.7561462E-02  0.1210495E+00
         -2   -1    0    0    0  501 -0.00000000000E+00  0.00000000000E+00  0.17062850819E+03  0.17062850819E+03  0.00000000000E+00 0.  1.
          2   -1    0    0  501    0  0.00000000000E+00 -0.00000000000E+00 -0.17511033280E+03  0.17511033280E+03  0.00000000000E+00 0. -1.
         25    2    1    2    0    0  0.11937174813E+03  0.16128596583E+02 -0.61188367148E+02  0.18412337945E+03  0.12509059400E+03 0.  0.
          5    1    3    3  502    0  0.47320209265E+02  0.38622095823E+02  0.27901887336E+02  0.67281915903E+02  0.41800000000E+01 0. -1.
         -5    1    3    3    0  502  0.72051538862E+02 -0.22493499241E+02 -0.89090254484E+02  0.11684146355E+03  0.41800000000E+01 0. -1.
        -11    1    1    2    0    0 -0.34969289884E+02 -0.46104885789E+02  0.47304521997E+01  0.58059356754E+02  0.00000000000E+00 0. -1.
         11    1    1    2    0    0 -0.84402458243E+02  0.29976289207E+02  0.51976090339E+02  0.10355610479E+03  0.00000000000E+00 0.  1.
</event>
<event>
 7    1  0.2732144E-009  0.9907093E+02  0.7561462E-02  0.1282262E+00
         -1   -1    0    0    0  501 -0.00000000000E+00  0.00000000000E+00  0.27793215895E+02  0.27793215895E+02  0.00000000000E+00 0.  1.
          1   -1    0    0  501    0  0.00000000000E+00 -0.00000000000E+00 -0.49739116788E+03  0.49739116788E+03  0.00000000000E+00 0. -1.
         25    2    1    2    0    0 -0.35665962314E+02 -0.27647218957E+02 -0.28632661666E+03  0.31570031703E+03  0.12508928484E+03 0.  0.
          5    1    3    3  502    0 -0.29997739426E+02 -0.59616971051E+02 -0.27176594860E+03  0.27987184715E+03  0.41800000000E+01 0. -1.
         -5    1    3    3    0  502 -0.56682228880E+01  0.31969752094E+02 -0.14560668059E+02  0.35828469881E+02  0.41800000000E+01 0. -1.
        -11    1    1    2    0    0 -0.28900163139E+02  0.16961676375E+01 -0.78889683847E+02  0.84033794581E+02  0.00000000000E+00 0. -1.
         11    1    1    2    0    0  0.64566125453E+02  0.25951051320E+02 -0.10438165148E+03  0.12545027217E+03  0.00000000000E+00 0.  1.
</event>
<event>
 7    1  0.3202371E-009  0.5234833E+02  0.7561462E-02  0.1433072E+00
         -1   -1    0    0    0  501 -0.00000000000E+00  0.00000000000E+00  0.39365012260E+02  0.39365012260E+02  0.00000000000E+00 0.  1.
          1   -1    0    0  501    0  0.00000000000E+00 -0.00000000000E+00 -0.35761178204E+03  0.35761178204E+03  0.00000000000E+00 0. -1.
         25    2    1    2    0    0  0.20535000141E+02 -0.20068867814E+02 -0.24680112704E+03  0.27817703371E+03  0.12508884879E+03 0.  0.
          5    1    3    3  502    0  0.28229630416E+01  0.11893532585E+02  0.11484616130E+02  0.17285660107E+02  0.41800000000E+01 0. -1.
         -5    1    3    3    0  502  0.17712037100E+02 -0.31962400399E+02 -0.25828574317E+03  0.26089137361E+03  0.41800000000E+01 0. -1.
        -11    1    1    2    0    0 -0.39906061925E+01  0.33469690519E+02  0.95653564750E+01  0.35037710623E+02  0.00000000000E+00 0.  1.
         11    1    1    2    0    0 -0.16544393949E+02 -0.13400822704E+02 -0.81010999214E+02  0.83762049962E+02  0.00000000000E+00 0. -1.
</event>
<event>
 7    1  0.2732144E-009  0.1870078E+03  0.7561462E-02  0.1161188E+00
          2   -1    0    0  501    0  0.00000000000E+00  0.00000000000E+00  0.88089379534E+03  0.88089379534E+03  0.00000000000E+00 0.  1.
         -2   -1    0    0    0  501 -0.00000000000E+00 -0.00000000000E+00 -0.46982998858E+02  0.46982998858E+02  0.00000000000E+00 0. -1.
         25    2    1    2    0    0 -0.66595456128E+01 -0.16477829183E+03  0.32628118321E+03  0.38639835159E+03  0.12509212842E+03 0.  0.
          5    1    3    3  502    0  0.32961244231E+02 -0.22576292616E+02  0.16902752858E+02  0.43581051659E+02  0.41800000000E+01 0.  1.
         -5    1    3    3    0  502 -0.39620789844E+02 -0.14220199921E+03  0.30937843035E+03  0.34281729993E+03  0.41800000000E+01 0.  1.
        -11    1    1    2    0    0  0.42031637017E+02  0.46347420363E+02  0.13291661816E+03  0.14690666856E+03  0.00000000000E+00 0. -1.
         11    1    1    2    0    0 -0.35372091404E+02  0.11843087146E+03  0.37471299512E+03  0.39457177405E+03  0.00000000000E+00 0.  1.
</event>
<event>
 7    1  0.2732144E-009  0.1218363E+03  0.7561462E-02  0.1240098E+00
         -1   -1    0    0    0  501 -0.00000000000E+00  0.00000000000E+00  0.46966419042E+02  0.46966419042E+02  0.00000000000E+00 0.  1.
          1   -1    0    0  501    0  0.00000000000E+00 -0.00000000000E+00 -0.44123947824E+03  0.44123947824E+03  0.00000000000E+00 0. -1.
         25    2    1    2    0    0 -0.35268332855E+02 -0.76883937426E+02 -0.28678233595E+03  0.32410779456E+03  0.12508700630E+03 0.  0.
          5    1    3    3  502    0 -0.59699373843E+02 -0.24182222098E+01 -0.19159150000E+03  0.20073524431E+03  0.41800000000E+01 0.  1.
         -5    1    3    3    0  502  0.24431040988E+02 -0.74465715216E+02 -0.95190835951E+02  0.12337255025E+03  0.41800000000E+01 0.  1.
        -11    1    1    2    0    0  0.85572317467E+01 -0.10716325627E+02  0.86341031407E+01  0.16205356743E+02  0.00000000000E+00 0.  1.
         11    1    1    2    0    0  0.26711101108E+02  0.87600263053E+02 -0.11612482638E+03  0.14789274597E+03  0.00000000000E+00 0. -1.
</event>
<event>
 7    1  0.2732144E-009  0.9762290E+02  0.7561462E-02  0.1285376E+00
         -2   -1    0    0    0  501 -0.00000000000E+00  0.00000000000E+00  0.74014998994E+02  0.74014998994E+02  0.00000000000E+00 0.  1.
          2   -1    0    0  501    0  0.00000000000E+00 -0.00000000000E+00 -0.23356555625E+03  0.23356555625E+03  0.00000000000E+00 0. -1.
         25    2    1    2    0    0  0.79187948996E+01 -0.61390653589E+02 -0.13463602354E+03  0.19392197905E+03  0.12508938990E+03 0.  0.
          5    1    3    3  502    0 -0.40413193135E+01  0.18715353401E+02  0.14351547339E+02  0.24290657169E+02  0.41800000000E+01 0.  1.
         -5    1    3    3    0  502  0.11960114213E+02 -0.80106006989E+02 -0.14898757088E+03  0.16963132189E+03  0.41800000000E+01 0.  1.
        -11    1    1    2    0    0 -0.75142949661E+01  0.77784973435E+02  0.62976390653E+01  0.78400427160E+02  0.00000000000E+00 0.  1.
         11    1    1    2    0    0 -0.40449993356E+00 -0.16394319846E+02 -0.31212172781E+02  0.35258149031E+02  0.00000000000E+00 0. -1.
</event>
<event>
 7    1  0.2732144E-009  0.1263763E+03  0.7561462E-02  0.1232934E+00
          1   -1    0    0  501    0  0.00000000000E+00  0.00000000000E+00  0.48232552679E+02  0.48232552679E+02  0.00000000000E+00 0. -1.
         -1   -1    0    0    0  501 -0.00000000000E+00 -0.00000000000E+00 -0.53469475900E+03  0.53469475900E+03  0.00000000000E+00 0.  1.
         25    2    1    2    0    0  0.84588684339E+02 -0.69287618466E+01 -0.12173222461E+03  0.19408290702E+03  0.12508471941E+03 0.  0.
          5    1    3    3  502    0  0.47714851134E+02  0.40647773415E+02 -0.11793815002E+03  0.13362570162E+03  0.41800000000E+01 0.  1.
         -5    1    3    3    0  502  0.36873833205E+02 -0.47576535261E+02 -0.37940745842E+01  0.60457205399E+02  0.41800000000E+01 0.  1.
        -11    1    1    2    0    0 -0.28404039413E+02  0.50872866170E+02 -0.21865045995E+03  0.22628049321E+03  0.00000000000E+00 0.  1.
         11    1    1    2    0    0 -0.56184644926E+02 -0.43944104323E+02 -0.14607952176E+03  0.16256391145E+03  0.00000000000E+00 0. -1.
</event>
<event>
 7    1  0.2732144E-009  0.7812183E+02  0.7561462E-02  0.1334467E+00
         -2   -1    0    0    0  501 -0.00000000000E+00  0.00000000000E+00  0.77057588868E+02  0.77057588868E+02  0.00000000000E+00 0.  1.
          2   -1    0    0  501    0  0.00000000000E+00 -0.00000000000E+00 -0.29957242719E+03  0.29957242719E+03  0.00000000000E+00 0. -1.
         25    2    1    2    0    0 -0.23682261598E+02  0.46469183174E+02 -0.24454596296E+03  0.27959281140E+03  0.12509667337E+03 0.  0.
          5    1    3    3  502    0 -0.26342937518E+02  0.15035535839E+02 -0.24584518769E+03  0.24774451842E+03  0.41800000000E+01 0. -1.
         -5    1    3    3    0  502  0.26606759207E+01  0.31433647334E+02  0.12992247324E+01  0.31848292984E+02  0.41800000000E+01 0. -1.
        -11    1    1    2    0    0  0.52357861730E+02 -0.34664493667E+02  0.20242890951E+02  0.65975354794E+02  0.00000000000E+00 0.  1.
         11    1    1    2    0    0 -0.28675600132E+02 -0.11804689507E+02  0.17882336849E+01  0.31061849864E+02  0.00000000000E+00 0. -1.
</event>
<event>
 7    1  0.2732144E-009  0.1584949E+03  0.7561462E-02  0.1190407E+00
          1   -1    0    0  501    0  0.00000000000E+00  0.00000000000E+00  0.16185408672E+03  0.16185408672E+03  0.00000000000E+00 0. -1.
         -1   -1    0    0    0  501 -0.00000000000E+00 -0.00000000000E+00 -0.20680422566E+03  0.20680422566E+03  0.00000000000E+00 0.  1.
         25    2    1    2    0    0  0.13943166295E+03  0.22287090768E+01  0.22497215426E+02  0.18867259293E+03  0.12508024163E+03 0.  0.
          5    1    3    3  502    0  0.63854142434E+02 -0.32185161681E+02 -0.42362799538E+02  0.83218479457E+02  0.41800000000E+01 0.  1.
         -5    1    3    3    0  502  0.75577520512E+02  0.34413870757E+02  0.64860014965E+02  0.10545411347E+03  0.41800000000E+01 0.  1.
        -11    1    1    2    0    0 -0.10760746773E+03  0.35073213435E+02 -0.26832183761E+02  0.11631622199E+03  0.00000000000E+00 0. -1.
         11    1    1    2    0    0 -0.31824195216E+02 -0.37301922512E+02 -0.40615170605E+02  0.63669497466E+02  0.00000000000E+00 0.  1.
</event>
<event>
 7    1  0.2732144E-009  0.1201371E+03  0.7561462E-02  0.1242871E+00
         -1   -1    0    0    0  501 -0.00000000000E+00  0.00000000000E+00  0.28416185308E+02  0.28416185308E+02  0.00000000000E+00 0.  1.
          1   -1    0    0  501    0  0.00000000000E+00 -0.00000000000E+00 -0.84480249546E+03  0.84480249546E+03  0.00000000000E+00 0. -1.
         25    2    1    2    0    0  0.50378591314E+02 -0.71307251934E+02 -0.62640044332E+03  0.64470662990E+03  0.12508555718E+03 0.  0.
          5    1    3    3  502    0 -0.24864403995E+02  0.14259968960E+02 -0.56287173067E+02  0.63303266525E+02  0.41800000000E+01 0. -1.
         -5    1    3    3    0  502  0.75242995309E+02 -0.85567220894E+02 -0.57011327025E+03  0.58140336338E+03  0.41800000000E+01 0. -1.
        -11    1    1    2    0    0 -0.33296964558E+02  0.72887059648E+02 -0.19484772926E+03  0.21068186659E+03  0.00000000000E+00 0. -1.
         11    1    1    2    0    0 -0.17081626756E+02 -0.15798077144E+01  0.48618624222E+01  0.17830184275E+02  0.00000000000E+00 0.  1.
</event>
<event>
 7    1  0.2732144E-009  0.1695519E+03  0.7561462E-02  0.1178316E+00
         -1   -1    0    0    0  501 -0.00000000000E+00  0.00000000000E+00  0.71236277686E+02  0.71236277686E+02  0.00000000000E+00 0. -1.
          1   -1    0    0  501    0  0.00000000000E+00 -0.00000000000E+00 -0.47965616551E+03  0.47965616551E+03  0.00000000000E+00 0.  1.
         25    2    1    2    0    0 -0.51888259328E+02  0.13483243363E+03 -0.15811501306E+03  0.24803200933E+03  0.12508934280E+03 0.  0.
          5    1    3    3  502    0 -0.63662175969E+02  0.10393182611E+02 -0.68436040928E+02  0.94137426095E+02  0.41800000000E+01 0. -1.
         -5    1    3    3    0  502  0.11773916641E+02  0.12443925102E+03 -0.89678972135E+02  0.15389458324E+03  0.41800000000E+01 0. -1.
        -11    1    1    2    0    0  0.26265221071E+02 -0.23787991184E+02 -0.98708300389E+01  0.36785372747E+02  0.00000000000E+00 0. -1.
         11    1    1    2    0    0  0.25623038257E+02 -0.11104444244E+03 -0.24043404472E+03  0.26607506111E+03  0.00000000000E+00 0.  1.
</event>
<event>
 7    1  0.2732144E-009  0.9403877E+02  0.7561462E-02  0.1293356E+00
          1   -1    0    0  501    0  0.00000000000E+00  0.00000000000E+00  0.19400308139E+03  0.19400308139E+03  0.00000000000E+00 0. -1.
         -1   -1    0    0    0  501 -0.00000000000E+00 -0.00000000000E+00 -0.70330007673E+02  0.70330007673E+02  0.00000000000E+00 0.  1.
         25    2    1    2    0    0 -0.23583104415E+02  0.63943951176E+01  0.32523339213E+02  0.13153596872E+03  0.12508753883E+03 0.  0.
          5    1    3    3  502    0 -0.71719900676E+02  0.63003596154E+00  0.40117688362E+02  0.82286344054E+02  0.41800000000E+01 0. -1.
         -5    1    3    3    0  502  0.48136796261E+02  0.57643591560E+01 -0.75943491494E+01  0.49249624666E+02  0.41800000000E+01 0. -1.
        -11    1    1    2    0    0 -0.27410879896E+01  0.25823085591E+02 -0.64005351246E+01  0.26745320389E+02  0.00000000000E+00 0.  1.
         11    1    1    2    0    0  0.26324192405E+02 -0.32217480709E+02  0.97550269626E+02  0.10605179995E+03  0.00000000000E+00 0. -1.
</event>
<event>
 7    1  0.2732144E-009  0.3390551E+03  0.7561462E-02  0.1067199E+00
         -3   -1    0    0    0  501 -0.00000000000E+00  0.00000000000E+00  0.80268233496E+02  0.80268233496E+02  0.00000000000E+00 0.  1.
          3   -1    0    0  501    0  0.00000000000E+00 -0.00000000000E+00 -0.16476278328E+04  0.16476278328E+04  0.00000000000E+00 0. -1.
         25    2    1    2    0    0  0.21263171390E+03  0.24744857589E+03 -0.51112810581E+03  0.61914639923E+03  0.12508908690E+03 0.  0.
          5    1    3    3  502    0  0.36507100345E+02  0.11458226755E+03 -0.11922895892E+03  0.16939563588E+03  0.41800000000E+01 0.  1.
         -5    1    3    3    0  502  0.17612461355E+03  0.13286630834E+03 -0.39189914689E+03  0.44975076334E+03  0.41800000000E+01 0.  1.
        -11    1    1    2    0    0 -0.20971093343E+03 -0.20067980174E+03 -0.90113354338E+03  0.94672737440E+03  0.00000000000E+00 0.  1.
         11    1    1    2    0    0 -0.29207804624E+01 -0.46768774149E+02 -0.15509795009E+03  0.16202229265E+03  0.00000000000E+00 0. -1.
</event>
<event>
 7    1  0.2732144E-009  0.9271440E+02  0.7561462E-02  0.1296408E+00
          1   -1    0    0  501    0  0.00000000000E+00  0.00000000000E+00  0.75987822858E+02  0.75987822858E+02  0.00000000000E+00 0. -1.
         -1   -1    0    0    0  501 -0.00000000000E+00 -0.00000000000E+00 -0.20880280135E+03  0.20880280135E+03  0.00000000000E+00 0.  1.
         25    2    1    2    0    0 -0.22580131331E+01 -0.42638417131E+02 -0.12532925256E+03  0.18214531672E+03  0.12508541729E+03 0.  0.
          5    1    3    3  502    0  0.47315541958E+02 -0.45864263790E+02 -0.11285935987E+03  0.13075549210E+03  0.41800000000E+01 0. -1.
         -5    1    3    3    0  502 -0.49573555091E+02  0.32258466582E+01 -0.12469892690E+02  0.51389824623E+02  0.41800000000E+01 0. -1.
        -11    1    1    2    0    0 -0.26342018749E+02  0.20331701504E+02 -0.41313692426E+02  0.53048102885E+02  0.00000000000E+00 0.  1.
         11    1    1    2    0    0  0.28600031882E+02  0.22306715627E+02  0.33827966502E+02  0.49597204593E+02  0.00000000000E+00 0. -1.
</event>
<event>
 7    1  0.2732144E-009  0.1574431E+03  0.7561462E-02  0.1191614E+00
         -1   -1    0    0    0  501 -0.00000000000E+00  0.00000000000E+00  0.30406090571E+02  0.30406090571E+02  0.00000000000E+00 0.  1.
          1   -1    0    0  501    0  0.00000000000E+00 -0.00000000000E+00 -0.83041289931E+03  0.83041289931E+03  0.00000000000E+00 0. -1.
         25    2    1    2    0    0  0.31296662685E+02 -0.10956377379E+03 -0.46599625913E+03  0.49576588764E+03  0.12509036815E+03 0.  0.
          5    1    3    3  502    0  0.31904617190E+02 -0.13733914075E+03 -0.38379469387E+03  0.40889581023E+03  0.41800000000E+01 0.  1.
         -5    1    3    3    0  502 -0.60795450520E+00  0.27775366959E+02 -0.82201565259E+02  0.86870077411E+02  0.41800000000E+01 0.  1.
        -11    1    1    2    0    0  0.28019950142E+02  0.98319810291E+01 -0.48576637153E+02  0.56933954140E+02  0.00000000000E+00 0.  1.
         11    1    1    2    0    0 -0.59316612827E+02  0.99731792765E+02 -0.28543391246E+03  0.30811914811E+03  0.00000000000E+00 0. -1.
</event>
<event>
 7    1  0.2732144E-009  0.1376353E+03  0.7561462E-02  0.1216547E+00
          1   -1    0    0  501    0  0.00000000000E+00  0.00000000000E+00  0.27415426089E+03  0.27415426089E+03  0.00000000000E+00 0. -1.
         -1   -1    0    0    0  501 -0.00000000000E+00 -0.00000000000E+00 -0.13570656276E+03  0.13570656276E+03  0.00000000000E+00 0.  1.
         25    2    1    2    0    0  0.12340951096E+03  0.59443544724E+02  0.15648029601E+03  0.24268521300E+03  0.12508631885E+03 0.  0.
          5    1    3    3  502    0  0.10555886658E+03  0.49975457677E+02  0.17795862537E+03  0.21290130443E+03  0.41800000000E+01 0. -1.
         -5    1    3    3    0  502  0.17850644380E+02  0.94680870468E+01 -0.21478329363E+02  0.29783908564E+02  0.41800000000E+01 0. -1.
        -11    1    1    2    0    0 -0.11396099670E+03 -0.50116957567E+02 -0.48760197075E+02  0.13370256176E+03  0.00000000000E+00 0.  1.
         11    1    1    2    0    0 -0.94485142659E+01 -0.93265871567E+01  0.30727599190E+02  0.33473048887E+02  0.00000000000E+00 0. -1.
</event>
<event>
 7    1  0.2732144E-009  0.1053994E+03  0.7561462E-02  0.1269335E+00
          3   -1    0    0  501    0  0.00000000000E+00  0.00000000000E+00  0.34587484111E+03  0.34587484111E+03  0.00000000000E+00 0. -1.
         -3   -1    0    0    0  501 -0.00000000000E+00 -0.00000000000E+00 -0.77233047016E+02  0.77233047016E+02  0.00000000000E+00 0.  1.
         25    2    1    2    0    0 -0.59675984584E+02  0.76987691463E+02  0.51366144039E+02  0.16665760949E+03  0.12509176741E+03 0.  0.
          5    1    3    3  502    0 -0.27136883666E+02  0.38794801145E+01  0.77548370524E+02  0.82357045795E+02  0.41800000000E+01 0. -1.
         -5    1    3    3    0  502 -0.32539100918E+02  0.73108211348E+02 -0.26182226485E+02  0.84300563692E+02  0.41800000000E+01 0. -1.
        -11    1    1    2    0    0  0.13074156963E+02 -0.43843141132E+02  0.18543823424E+03  0.19099867362E+03  0.00000000000E+00 0. -1.
         11    1    1    2    0    0  0.46601827621E+02 -0.33144550331E+02  0.31837415811E+02  0.65451605021E+02  0.00000000000E+00 0.  1.
</event>
<event>
 7    1  0.2732144E-009  0.1000858E+03  0.7561462E-02  0.1280116E+00
          2   -1    0    0  501    0  0.00000000000E+00  0.00000000000E+00  0.78498442221E+02  0.78498442221E+02  0.00000000000E+00 0. -1.
         -2   -1    0    0    0  501 -0.00000000000E+00 -0.00000000000E+00 -0.21632211215E+03  0.21632211215E+03  0.00000000000E+00 0.  1.
         25    2    1    2    0    0  0.14846363408E+01 -0.54829378954E+02 -0.13029279336E+03  0.18876475653E+03  0.12508979320E+03 0.  0.
          5    1    3    3  502    0  0.26355797700E+02 -0.77648428757E+02 -0.38132261253E+02  0.90528715384E+02  0.41800000000E+01 0.  1.
         -5    1    3    3    0  502 -0.24871161359E+02  0.22819049803E+02 -0.92160532105E+02  0.98236041142E+02  0.41800000000E+01 0.  1.
        -11    1    1    2    0    0  0.29945301723E+02  0.15529812019E+02  0.28503368777E+02  0.44162633393E+02  0.00000000000E+00 0. -1.
         11    1    1    2    0    0 -0.31429938064E+02  0.39299566935E+02 -0.36034245343E+02  0.61893164448E+02  0.00000000000E+00 0.  1.
</event>
<event>
 7    1  0.2732144E-009  0.1312224E+03  0.7561462E-02  0.1225653E+00
          2   -1    0    0  501    0  0.00000000000E+00  0.00000000000E+00  0.12253659707E+04  0.12253659707E+04  0.00000000000E+00 0. -1.
         -2   -1    0    0    0  501 -0.00000000000E+00 -0.00000000000E+00 -0.15602975890E+02  0.15602975890E+02  0.00000000000E+00 0.  1.
         25    2    1    2    0    0 -0.29645448115E+02  0.70713499891E+02  0.83181853239E+03  0.84466264716E+03  0.12511460756E+03 0.  0.
          5    1    3    3  502    0  0.18118439016E+02 -0.29727637013E+02  0.22630946910E+03  0.22900973437E+03  0.41800000000E+01 0. -1.
         -5    1    3    3    0  502 -0.47763887130E+02  0.10044113690E+03  0.60550906329E+03  0.61565291279E+03  0.41800000000E+01 0. -1.
        -11    1    1    2    0    0  0.74732565099E+01 -0.87783261077E+02  0.32081638091E+03  0.33269340352E+03  0.00000000000E+00 0.  1.
         11    1    1    2    0    0  0.22172191605E+02  0.17069761186E+02  0.57128081467E+02  0.63612895859E+02  0.00000000000E+00 0. -1.
</event>
<event>
 7    1  0.2732144E-009  0.1150632E+03  0.7561462E-02  0.1251471E+00
          2   -1    0    0  501    0  0.00000000000E+00  0.00000000000E+00  0.26923813263E+03  0.26923813263E+03  0.00000000000E+00 0. -1.
         -2   -1    0    0    0  501 -0.00000000000E+00 -0.00000000000E+00 -0.66576358335E+02  0.66576358335E+02  0.00000000000E+00 0.  1.
         25    2    1    2    0    0 -0.44414697250E+02  0.94582698081E+01  0.31879959745E+02  0.13684611198E+03  0.12509357430E+03 0.  0.
          5    1    3    3  502    0 -0.22023700600E+02  0.64651622326E+02  0.35383479018E+02  0.77034658726E+02  0.41800000000E+01 0. -1.
         -5    1    3    3    0  502 -0.22390996650E+02 -0.55193352518E+02 -0.35035192739E+01  0.59811453255E+02  0.41800000000E+01 0. -1.
        -11    1    1    2    0    0 -0.28508858767E+02 -0.48733757529E+01  0.44568050879E+02  0.53130179546E+02  0.00000000000E+00 0. -1.
         11    1    1    2    0    0  0.72923556016E+02 -0.45848940552E+01  0.12621376367E+03  0.14583819944E+03  0.00000000000E+00 0.  1.
</event>
<event>
 7    1  0.2732144E-009  0.9851735E+02  0.7561462E-02  0.1283445E+00
          1   -1    0    0  501    0  0.00000000000E+00  0.00000000000E+00  0.60491131605E+03  0.60491131605E+03  0.00000000000E+00 0. -1.
         -1   -1    0    0    0  501 -0.00000000000E+00 -0.00000000000E+00 -0.31084655836E+02  0.31084655836E+02  0.00000000000E+00 0.  1.
         25    2    1    2    0    0  0.15695098027E+02  0.12821666714E+02  0.48096692528E+03  0.49738165385E+03  0.12509434492E+03 0.  0.
          5    1    3    3  502    0  0.27558233253E+02  0.58621299796E+02  0.15605135671E+03  0.16901305080E+03  0.41800000000E+01 0. -1.
         -5    1    3    3    0  502 -0.11863135226E+02 -0.45799633082E+02  0.32491556857E+03  0.32836860305E+03  0.41800000000E+01 0. -1.
        -11    1    1    2    0    0 -0.22758039434E+02 -0.45671813196E+02  0.91761749465E+02  0.10499553107E+03  0.00000000000E+00 0. -1.
         11    1    1    2    0    0  0.70629414071E+01  0.32850146482E+02  0.10979854690E+01  0.33618786970E+02  0.00000000000E+00 0.  1.
</event>
<event>
 7    1  0.2732144E-009  0.1595347E+03  0.7561462E-02  0.1189223E+00
          2   -1    0    0  501    0  0.00000000000E+00  0.00000000000E+00  0.27525690329E+03  0.27525690329E+03  0.00000000000E+00 0. -1.
         -2   -1    0    0    0  501 -0.00000000000E+00 -0.00000000000E+00 -0.11271491298E+03  0.11271491298E+03  0.00000000000E+00 0.  1.
         25    2    1    2    0    0 -0.26789057755E+02 -0.12375472132E+03  0.23211772637E+02  0.17949684923E+03  0.12508975909E+03 0.  0.
          5    1    3    3  502    0 -0.68258288004E+01  0.19364019657E+02 -0.19635967145E+02  0.28715863243E+02  0.41800000000E+01 0. -1.
         -5    1    3    3    0  502 -0.19963228954E+02 -0.14311874098E+03  0.42847739781E+02  0.15078098599E+03  0.41800000000E+01 0. -1.
        -11    1    1    2    0    0 -0.31951367180E+02  0.38718921929E+02  0.32321117555E+02  0.59705103802E+02  0.00000000000E+00 0.  1.
         11    1    1    2    0    0  0.58740424935E+02  0.85035799396E+02  0.10700910012E+03  0.14876986324E+03  0.00000000000E+00 0. -1.
</event>
<event>
 7    1  0.2732144E-009  0.9310511E+02  0.7561462E-02  0.1295502E+00
          1   -1    0    0  501    0  0.00000000000E+00  0.00000000000E+00  0.93851183705E+02  0.93851183705E+02  0.00000000000E+00 0. -1.
         -1   -1    0    0    0  501 -0.00000000000E+00 -0.00000000000E+00 -0.16544183528E+03  0.16544183528E+03  0.00000000000E+00 0.  1.
         25    2    1    2    0    0  0.80676538956E+01  0.15119021636E+02 -0.99490837600E+02  0.16075635183E+03  0.12510198253E+03 0.  0.
          5    1    3    3  502    0  0.66291383587E+02  0.72859920687E+01 -0.60346667084E+02  0.90037913383E+02  0.41800000000E+01 0. -1.
         -5    1    3    3    0  502 -0.58223729691E+02  0.78330295669E+01 -0.39144170516E+02  0.70718438450E+02  0.41800000000E+01 0. -1.
        -11    1    1    2    0    0  0.25237142585E+02 -0.55570253152E+01 -0.24569948342E+02  0.35657765742E+02  0.00000000000E+00 0.  1.
         11    1    1    2    0    0 -0.33304796480E+02 -0.95619963203E+01  0.52470134367E+02  0.62878901411E+02  0.00000000000E+00 0. -1.
</event>
<event>
 7    1  0.2732144E-009  0.9908036E+02  0.7561462E-02  0.1282242E+00
         -2   -1    0    0    0  501 -0.00000000000E+00  0.00000000000E+00  0.59178007021E+02  0.59178007021E+02  0.00000000000E+00 0.  1.
          2   -1    0    0  501    0  0.00000000000E+00 -0.00000000000E+00 -0.66596849340E+03  0.66596849340E+03  0.00000000000E+00 0. -1.
         25    2    1    2    0    0  0.48680191630E+02 -0.47269361076E+02 -0.59700230858E+03  0.61372858993E+03  0.12508745778E+03 0.  0.
          5    1    3    3  502    0  0.44258769525E+02 -0.22715293222E+01 -0.53515098914E+03  0.53699911742E+03  0.41800000000E+01 0.  1.
         -5    1    3    3    0  502  0.44214221044E+01 -0.44997831754E+02 -0.61851319434E+02  0.76729472510E+02  0.41800000000E+01 0.  1.
        -11    1    1    2    0    0 -0.60539945007E+02  0.10774171924E+01 -0.17682825863E+02  0.63078745230E+02  0.00000000000E+00 0. -1.
         11    1    1    2    0    0  0.11859753377E+02  0.46191943884E+02  0.78946480668E+01  0.48339165260E+02  0.00000000000E+00 0.  1.
</event>
<event>
 7    1  0.2732144E-009  0.6801763E+02  0.7561462E-02  0.1366967E+00
          1   -1    0    0  501    0  0.00000000000E+00  0.00000000000E+00  0.95776233032E+02  0.95776233032E+02  0.00000000000E+00 0. -1.
         -1   -1    0    0    0  501 -0.00000000000E+00 -0.00000000000E+00 -0.13716416174E+03  0.13716416174E+03  0.00000000000E+00 0.  1.
         25    2    1    2    0    0 -0.24379785125E+02  0.85082757972E+01 -0.57733314803E+01  0.12785699266E+03  0.12508922630E+03 0.  0.
          5    1    3    3  502    0 -0.96203737293E+01  0.54146184367E+02  0.34527752322E+02  0.65069185892E+02  0.41800000000E+01 0.  1.
         -5    1    3    3    0  502 -0.14759411395E+02 -0.45637908570E+02 -0.40301083803E+02  0.62787806770E+02  0.41800000000E+01 0.  1.
        -11    1    1    2    0    0  0.18032375484E+02  0.42135140734E+01  0.31467104657E+02  0.36511627490E+02  0.00000000000E+00 0. -1.
         11    1    1    2    0    0  0.63474096402E+01 -0.12721789871E+02 -0.67081701883E+02  0.68571774617E+02  0.00000000000E+00 0.  1.
</event>
<event>
 7    1  0.2732144E-009  0.1222587E+03  0.7561462E-02  0.1239417E+00
         -2   -1    0    0    0  501 -0.00000000000E+00  0.00000000000E+00  0.16396670682E+02  0.16396670682E+02  0.00000000000E+00 0.  1.
          2   -1    0    0  501    0  0.00000000000E+00 -0.00000000000E+00 -0.12019911653E+04  0.12019911653E+04  0.00000000000E+00 0. -1.
         25    2    1    2    0    0 -0.58889801164E+02  0.66579531615E+02 -0.62113750808E+03  0.63981372680E+03  0.12509579667E+03 0.  0.
          5    1    3    3  502    0 -0.57889512266E+02  0.39605976857E+01 -0.50007569242E+03  0.50344816269E+03  0.41800000000E+01 0.  1.
         -5    1    3    3    0  502 -0.10002888982E+01  0.62618933929E+02 -0.12106181566E+03  0.13636556411E+03  0.41800000000E+01 0.  1.
        -11    1    1    2    0    0  0.34884297476E+01 -0.68065391707E+02 -0.37640202621E+03  0.38252261636E+03  0.00000000000E+00 0. -1.
         11    1    1    2    0    0  0.55401371417E+02  0.14858600918E+01 -0.18805496034E+03  0.19605149283E+03  0.00000000000E+00 0.  1.
</event>
<event>
 7    1  0.2732144E-009  0.4804162E+02  0.7561462E-02  0.1456200E+00
          1   -1    0    0  501    0  0.00000000000E+00  0.00000000000E+00  0.10994436946E+03  0.10994436946E+03  0.00000000000E+00 0. -1.
         -1   -1    0    0    0  501 -0.00000000000E+00 -0.00000000000E+00 -0.11552562058E+03  0.11552562058E+03  0.00000000000E+00 0.  1.
         25    2    1    2    0    0  0.75596687281E+01 -0.27448810698E+01 -0.33435439434E+02  0.12973232082E+03  0.12509142053E+03 0.  0.
          5    1    3    3  502    0  0.60159855376E+01 -0.17755189395E+01 -0.81301176761E+02  0.81649851759E+02  0.41800000000E+01 0.  1.
         -5    1    3    3    0  502  0.15436831905E+01 -0.96936213023E+00  0.47865737327E+02  0.48082469057E+02  0.41800000000E+01 0.  1.
        -11    1    1    2    0    0 -0.45052467704E+02  0.90875811698E+01 -0.39990959285E+01  0.46133520849E+02  0.00000000000E+00 0.  1.
         11    1    1    2    0    0  0.37492798976E+02 -0.63427001001E+01  0.31853284236E+02  0.49604148377E+02  0.00000000000E+00 0. -1.
</event>
<event>
 7    1  0.2732144E-009  0.1580325E+03  0.7561462E-02  0.1190936E+00
         -1   -1    0    0    0  501 -0.00000000000E+00  0.00000000000E+00  0.16894256043E+03  0.16894256043E+03  0.00000000000E+00 0. -1.
          1   -1    0    0  501    0  0.00000000000E+00 -0.00000000000E+00 -0.17609120472E+03  0.17609120472E+03  0.00000000000E+00 0.  1.
         25    2    1    2    0    0  0.11322673151E+03  0.69521138981E+02 -0.60527640330E+00  0.18248579724E+03  0.12508884179E+03 0.  0.
          5    1    3    3  502    0  0.58506541185E+02  0.10247165232E+03 -0.61684802684E+01  0.11823272575E+03  0.41800000000E+01 0. -1.
         -5    1    3    3    0  502  0.54720190326E+02 -0.32950513335E+02  0.55632038651E+01  0.64253071487E+02  0.41800000000E+01 0. -1.
        -11    1    1    2    0    0 -0.83978611061E+02 -0.60044548872E+02  0.36633321655E+02  0.10954339424E+03  0.00000000000E+00 0. -1.
         11    1    1    2    0    0 -0.29248120450E+02 -0.94765901095E+01 -0.43176689540E+02  0.53004573667E+02  0.00000000000E+00 0.  1.
</event>
<event>
 7    1  0.2732144E-009  0.9056939E+02  0.7561462E-02  0.1301479E+00
          2   -1    0    0  501    0  0.00000000000E+00  0.00000000000E+00  0.11687807025E+04  0.11687807025E+04  0.00000000000E+00 0. -1.
         -2   -1    0    0    0  501 -0.00000000000E+00 -0.00000000000E+00 -0.21555216787E+02  0.21555216787E+02  0.00000000000E+00 0.  1.
         25    2    1    2    0    0  0.53176377440E+02 -0.31211856284E+02  0.10111506962E+04  0.10207225014E+04  0.12508711830E+03 0.  0.
          5    1    3    3  502    0  0.20618598715E+02 -0.57503554758E+02  0.89672000935E+03  0.89880811801E+03  0.41800000000E+01 0.  1.
         -5    1    3    3    0  502  0.32557778725E+02  0.26291698473E+02  0.11443068689E+03  0.12191438334E+03  0.41800000000E+01 0.  1.
        -11    1    1    2    0    0  0.58640866383E+01  0.15769758673E+02  0.93986881473E+02  0.95480923172E+02  0.00000000000E+00 0. -1.
         11    1    1    2    0    0 -0.59040464078E+02  0.15442097612E+02  0.42087907948E+02  0.74132494715E+02  0.00000000000E+00 0.  1.
</event>
<event>
 7    1  0.2732144E-009  0.8825572E+02  0.7561462E-02  0.1307132E+00
          2   -1    0    0  501    0  0.00000000000E+00  0.00000000000E+00  0.20546907272E+03  0.20546907272E+03  0.00000000000E+00 0. -1.
         -2   -1    0    0    0  501 -0.00000000000E+00 -0.00000000000E+00 -0.64466385582E+02  0.64466385582E+02  0.00000000000E+00 0.  1.
         25    2    1    2    0    0 -0.72391240135E+01 -0.10877583992E+02  0.37833527889E+02  0.13133748423E+03  0.12508969654E+03 0.  0.
          5    1    3    3  502    0  0.51052131209E+01  0.45891172203E+02  0.53723811504E+02  0.70963252531E+02  0.41800000000E+01 0. -1.
         -5    1    3    3    0  502 -0.12344337134E+02 -0.56768756196E+02 -0.15890283615E+02  0.60374231694E+02  0.41800000000E+01 0. -1.
        -11    1    1    2    0    0  0.77175797175E+01 -0.30023179741E+02  0.90676945088E+02  0.95829331256E+02  0.00000000000E+00 0. -1.
         11    1    1    2    0    0 -0.47845570398E+00  0.40900763734E+02  0.12492214157E+02  0.42768642817E+02  0.00000000000E+00 0.  1.
</event>
<event>
 7    1  0.2732144E-009  0.1063485E+03  0.7561462E-02  0.1267485E+00
          1   -1    0    0  501    0  0.00000000000E+00  0.00000000000E+00  0.36633228939E+03  0.36633228939E+03  0.00000000000E+00 0. -1.
         -1   -1    0    0    0  501 -0.00000000000E+00 -0.00000000000E+00 -0.36004445285E+02  0.36004445285E+02  0.00000000000E+00 0.  1.
         25    2    1    2    0    0 -0.15975093839E+02 -0.12704530844E+02  0.16413417813E+03  0.20737406259E+03  0.12508942672E+03 0.  0.
          5    1    3    3  502    0 -0.29648116182E+02 -0.64912421939E+02  0.10687959634E+03  0.12858208984E+03  0.41800000000E+01 0.  1.
         -5    1    3    3    0  502  0.13673022343E+02  0.52207891095E+02  0.57254581794E+02  0.78791972745E+02  0.41800000000E+01 0.  1.
        -11    1    1    2    0    0 -0.26269719198E+02  0.31353172159E+02  0.28824642169E+02  0.50039779649E+02  0.00000000000E+00 0.  1.
         11    1    1    2    0    0  0.42244813038E+02 -0.18648641315E+02  0.13736902380E+03  0.14492289244E+03  0.00000000000E+00 0. -1.
</event>
<event>
 7    1  0.2732144E-009  0.3346999E+03  0.7561462E-02  0.1069076E+00
         -2   -1    0    0    0  501 -0.00000000000E+00  0.00000000000E+00  0.10787681215E+03  0.10787681215E+03  0.00000000000E+00 0. -1.
          2   -1    0    0  501    0  0.00000000000E+00 -0.00000000000E+00 -0.10516058766E+04  0.10516058766E+04  0.00000000000E+00 0.  1.
         25    2    1    2    0    0 -0.28794026056E+03  0.13674505142E+03 -0.46498832051E+03  0.57747159927E+03  0.12510198647E+03 0.  0.
          5    1    3    3  502    0 -0.10800738245E+03  0.11914274746E+03 -0.20021836310E+03  0.25683740822E+03  0.41800000000E+01 0. -1.
         -5    1    3    3    0  502 -0.17993287811E+03  0.17602303962E+02 -0.26476995741E+03  0.32063419105E+03  0.41800000000E+01 0. -1.
        -11    1    1    2    0    0  0.14300030891E+03 -0.26135349761E+02 -0.25352936862E+03  0.29224867084E+03  0.00000000000E+00 0. -1.
         11    1    1    2    0    0  0.14493995164E+03 -0.11060970166E+03 -0.22521137537E+03  0.28976241868E+03  0.00000000000E+00 0.  1.
</event>
<event>
 7    1  0.2732144E-009  0.1543278E+03  0.7561462E-02  0.1195254E+00
         -2   -1    0    0    0  501 -0.00000000000E+00  0.00000000000E+00  0.35847118050E+03  0.35847118050E+03  0.00000000000E+00 0.  1.
          2   -1    0    0  501    0  0.00000000000E+00 -0.00000000000E+00 -0.83739282936E+02  0.83739282936E+02  0.00000000000E+00 0. -1.
         25    2    1    2    0    0  0.56669338022E+02 -0.10424301635E+03  0.22594819223E+03  0.28421546728E+03  0.12509127043E+03 0.  0.
          5    1    3    3  502    0 -0.35615964495E+02 -0.11402002929E+02  0.78145527635E+02  0.86733491150E+02  0.41800000000E+01 0.  1.
         -5    1    3    3    0  502  0.92285302517E+02 -0.92841013421E+02  0.14780266459E+03  0.19748197613E+03  0.41800000000E+01 0.  1.
        -11    1    1    2    0    0  0.18325574804E+02  0.24383942547E+02 -0.11919712302E+02  0.32748784518E+02  0.00000000000E+00 0.  1.
         11    1    1    2    0    0 -0.74994912826E+02  0.79859073803E+02  0.60703417643E+02  0.12524621165E+03  0.00000000000E+00 0. -1.
</event>
<event>
 7    1  0.3031407E-009  0.2480359E+03  0.7561462E-02  0.1114552E+00
          2   -1    0    0  501    0  0.00000000000E+00  0.00000000000E+00  0.47942502990E+03  0.47942502990E+03  0.00000000000E+00 0.  1.
         -2   -1    0    0    0  501 -0.00000000000E+00 -0.00000000000E+00 -0.13816979842E+03  0.13816979842E+03  0.00000000000E+00 0. -1.
         25    2    1    2    0    0  0.20671146668E+03  0.95525524249E+02  0.23447453511E+03  0.34997061113E+03  0.12508543000E+03 0.  0.
          5    1    3    3  502    0 -0.53451777309E+01 -0.17247298352E+02  0.25851857298E+02  0.31809293472E+02  0.41800000000E+01 0.  1.
         -5    1    3    3    0  502  0.21205664441E+03  0.11277282260E+03  0.20862267781E+03  0.31816131766E+03  0.41800000000E+01 0.  1.
        -11    1    1    2    0    0 -0.10622307404E+03 -0.85456828128E+02  0.94517495778E+02  0.16589083139E+03  0.00000000000E+00 0.  1.
         11    1    1    2    0    0 -0.10048839264E+03 -0.10068696121E+02  0.12263200587E+02  0.10173338579E+03  0.00000000000E+00 0. -1.
</event>
<event>
 7    1  0.2732144E-009  0.1009072E+03  0.7561462E-02  0.1278400E+00
         -2   -1    0    0    0  501 -0.00000000000E+00  0.00000000000E+00  0.49720610582E+02  0.49720610582E+02  0.00000000000E+00 0.  1.
          2   -1    0    0  501    0  0.00000000000E+00 -0.00000000000E+00 -0.28068242199E+03  0.28068242199E+03  0.00000000000E+00 0. -1.
         25    2    1    2    0    0 -0.19331829714E+01  0.48125241707E+02 -0.13795295548E+03  0.19234982451E+03  0.12509061106E+03 0.  0.
          5    1    3    3  502    0 -0.13728812556E+02 -0.23711413207E+02  0.82955199665E+01  0.28930942985E+02  0.41800000000E+01 0.  1.
         -5    1    3    3    0  502  0.11795629585E+02  0.71836654914E+02 -0.14624847545E+03  0.16341888152E+03  0.41800000000E+01 0.  1.
        -11    1    1    2    0    0  0.80484190419E+01  0.25787569717E+02 -0.33027519399E+02  0.42668405626E+02  0.00000000000E+00 0.  1.
         11    1    1    2    0    0 -0.61152360705E+01 -0.73912811425E+02 -0.59981336524E+02  0.95384802438E+02  0.00000000000E+00 0. -1.
</event>
<event>
 7    1  0.2732144E-009  0.4125458E+03  0.7561462E-02  0.1039520E+00
          1   -1    0    0  501    0  0.00000000000E+00  0.00000000000E+00  0.15720479340E+03  0.15720479340E+03  0.00000000000E+00 0. -1.
         -1   -1    0    0    0  501 -0.00000000000E+00 -0.00000000000E+00 -0.13777696377E+04  0.13777696377E+04  0.00000000000E+00 0.  1.
         25    2    1    2    0    0  0.36383475387E+03 -0.19220335766E+03 -0.30529466539E+03  0.52741900600E+03  0.12509243124E+03 0.  0.
          5    1    3    3  502    0  0.33149173189E+03 -0.18497550497E+03 -0.22706390466E+03  0.44235528136E+03  0.41800000000E+01 0. -1.
         -5    1    3    3    0  502  0.32343021982E+02 -0.72278526921E+01 -0.78230760724E+02  0.85063724636E+02  0.41800000000E+01 0. -1.
        -11    1    1    2    0    0 -0.38998446069E+02  0.28497167948E+02 -0.19176253364E+03  0.19775195747E+03  0.00000000000E+00 0.  1.
         11    1    1    2    0    0 -0.32483630780E+03  0.16370618971E+03 -0.72350764528E+03  0.80980346764E+03  0.00000000000E+00 0. -1.
</event>
<event>
 7    1  0.2732144E-009  0.1057268E+03  0.7561462E-02  0.1268694E+00
          2   -1    0    0  501    0  0.00000000000E+00  0.00000000000E+00  0.40008249438E+03  0.40008249438E+03  0.00000000000E+00 0. -1.
         -2   -1    0    0    0  501 -0.00000000000E+00 -0.00000000000E+00 -0.42001250631E+02  0.42001250631E+02  0.00000000000E+00 0.  1.
         25    2    1    2    0    0 -0.11062183457E+02  0.69323398989E+02  0.23857785208E+03  0.27838498981E+03  0.12510277973E+03 0.  0.
          5    1    3    3  502    0  0.39789286548E+02  0.77811253122E+02  0.18066585874E+03  0.20073714990E+03  0.41800000000E+01 0. -1.
         -5    1    3    3    0  502 -0.50851470006E+02 -0.84878541326E+01  0.57911993340E+02  0.77647839906E+02  0.41800000000E+01 0. -1.
        -11    1    1    2    0    0 -0.45269994091E+01 -0.11859904301E+02 -0.13161148692E+02  0.18285701752E+02  0.00000000000E+00 0.  1.
         11    1    1    2    0    0  0.15589182866E+02 -0.57463494688E+02  0.13266454036E+03  0.14541305345E+03  0.00000000000E+00 0. -1.
</event>
<event>
 7    1  0.2732144E-009  0.8206679E+02  0.7561462E-02  0.1323286E+00
          1   -1    0    0  501    0  0.00000000000E+00  0.00000000000E+00  0.72843667327E+02  0.72843667327E+02  0.00000000000E+00 0. -1.
         -1   -1    0    0    0  501 -0.00000000000E+00 -0.00000000000E+00 -0.28315283764E+03  0.28315283764E+03  0.00000000000E+00 0.  1.
         25    2    1    2    0    0  0.19798383118E+02  0.37024290228E+02 -0.21589813667E+03  0.25302426715E+03  0.12508597167E+03 0.  0.
          5    1    3    3  502    0  0.32330354877E+02  0.72517986195E+02 -0.19307834058E+03  0.20880811328E+03  0.41800000000E+01 0.  1.
         -5    1    3    3    0  502 -0.12531971760E+02 -0.35493695967E+02 -0.22819796082E+02  0.44216153867E+02  0.41800000000E+01 0.  1.
        -11    1    1    2    0    0 -0.19757469977E+02 -0.15198634823E+02  0.48667718260E+02  0.54680004764E+02  0.00000000000E+00 0. -1.
         11    1    1    2    0    0 -0.40913140811E-01 -0.21825655405E+02 -0.43078751902E+02  0.48292233053E+02  0.00000000000E+00 0.  1.
</event>
<event>
 7    1  0.2732144E-009  0.1079483E+03  0.7561462E-02  0.1264417E+00
          2   -1    0    0  501    0  0.00000000000E+00  0.00000000000E+00  0.49280798534E+03  0.49280798534E+03  0.00000000000E+00 0. -1.
         -2   -1    0    0    0  501 -0.00000000000E+00 -0.00000000000E+00 -0.26991728404E+02  0.26991728404E+02  0.00000000000E+00 0.  1.
         25    2    1    2    0    0 -0.41048779502E+02  0.94342528835E+01  0.23709985802E+03  0.27134523918E+03  0.12505154428E+03 0.  0.
          5    1    3    3  502    0  0.15066863568E+02 -0.47933586476E+02  0.10949465466E+03  0.12054538933E+03  0.41800000000E+01 0. -1.
         -5    1    3    3    0  502 -0.56115643069E+02  0.57367839359E+02  0.12760520336E+03  0.15079984985E+03  0.41800000000E+01 0. -1.
        -11    1    1    2    0    0 -0.20210951413E+02 -0.12531416818E+02  0.13056648469E+03  0.13271445245E+03  0.00000000000E+00 0. -1.
         11    1    1    2    0    0  0.61259730915E+02  0.30971639343E+01  0.98149914225E+02  0.11574002211E+03  0.00000000000E+00 0.  1.
</event>
<event>
 7    1  0.2732144E-009  0.1716934E+03  0.7561462E-02  0.1176093E+00
         -1   -1    0    0    0  501 -0.00000000000E+00  0.00000000000E+00  0.99685462900E+02  0.99685462900E+02  0.00000000000E+00 0.  1.
          1   -1    0    0  501    0  0.00000000000E+00 -0.00000000000E+00 -0.40412416265E+03  0.40412416265E+03  0.00000000000E+00 0. -1.
         25    2    1    2    0    0 -0.12335224802E+03 -0.56563383876E+02 -0.33624853390E+02  0.18759894264E+03  0.12509012362E+03 0.  0.
          5    1    3    3  502    0 -0.22234239140E+02  0.39179687248E+02 -0.78635128672E+01  0.45920763470E+02  0.41800000000E+01 0.  1.
         -5    1    3    3    0  502 -0.10111800888E+03 -0.95743071125E+02 -0.25761340523E+02  0.14167817917E+03  0.41800000000E+01 0.  1.
        -11    1    1    2    0    0  0.11187613425E+03  0.11660917877E+02 -0.22217959857E+03  0.24903015970E+03  0.00000000000E+00 0.  1.
         11    1    1    2    0    0  0.11476113774E+02  0.44902465999E+02 -0.48634247786E+02  0.67180523204E+02  0.00000000000E+00 0. -1.
</event>
<event>
 7    1  0.2732144E-009  0.1120682E+03  0.7561462E-02  0.1256787E+00
          1   -1    0    0  501    0  0.00000000000E+00  0.00000000000E+00  0.19705491286E+03  0.19705491286E+03  0.00000000000E+00 0. -1.
         -1   -1    0    0    0  501 -0.00000000000E+00 -0.00000000000E+00 -0.10854019456E+03  0.10854019456E+03  0.00000000000E+00 0.  1.
         25    2    1    2    0    0 -0.57763183729E+02 -0.17100110875E+02  0.12669736437E+03  0.18796104028E+03  0.12509249113E+03 0.  0.
          5    1    3    3  502    0 -0.56789801486E+02 -0.67171712467E+02  0.88401856664E+02  0.12477772706E+03  0.41800000000E+01 0.  1.
         -5    1    3    3    0  502 -0.97338224278E+00  0.50071601592E+02  0.38295507705E+02  0.63183313219E+02  0.41800000000E+01 0.  1.
        -11    1    1    2    0    0 -0.26011357045E+01  0.24828077187E+02 -0.49773572414E+02  0.55683101877E+02  0.00000000000E+00 0.  1.
         11    1    1    2    0    0  0.60364319433E+02 -0.77279663120E+01  0.11590926350E+02  0.61950965268E+02  0.00000000000E+00 0. -1.
</event>
<event>
 7    1  0.2732144E-009  0.1256569E+03  0.7561462E-02  0.1234046E+00
          2   -1    0    0  501    0  0.00000000000E+00  0.00000000000E+00  0.23377839974E+03  0.23377839974E+03  0.00000000000E+00 0.  1.
         -2   -1    0    0    0  501 -0.00000000000E+00 -0.00000000000E+00 -0.91067148584E+02  0.91067148584E+02  0.00000000000E+00 0. -1.
         25    2    1    2    0    0  0.71222900692E+02  0.25741004939E+02  0.14553523186E+03  0.20630516511E+03  0.12508403782E+03 0.  0.
          5    1    3    3  502    0  0.20442215386E+02  0.71363581968E+02  0.53312097499E+02  0.91489328016E+02  0.41800000000E+01 0.  1.
         -5    1    3    3    0  502  0.50780685306E+02 -0.45622577029E+02  0.92223134362E+02  0.11481583709E+03  0.41800000000E+01 0.  1.
        -11    1    1    2    0    0 -0.36040739819E+02 -0.52979096295E+02  0.21805567873E+02  0.67684579937E+02  0.00000000000E+00 0.  1.
         11    1    1    2    0    0 -0.35182160874E+02  0.27238091357E+02 -0.24629548577E+02  0.50855803283E+02  0.00000000000E+00 0. -1.
</event>
<event>
 7    1  0.2732144E-009  0.1456842E+03  0.7561462E-02  0.1205879E+00
          1   -1    0    0  501    0  0.00000000000E+00  0.00000000000E+00  0.25916827703E+04  0.25916827703E+04  0.00000000000E+00 0. -1.
         -1   -1    0    0    0  501 -0.00000000000E+00 -0.00000000000E+00 -0.12243596327E+02  0.12243596327E+02  0.00000000000E+00 0.  1.
         25    2    1    2    0    0  0.33220074540E+02  0.10465530867E+03  0.19911019434E+04  0.19980467055E+04  0.12508949354E+03 0.  0.
          5    1    3    3  502    0  0.32163146199E+02  0.12881283004E+03  0.13609453436E+04  0.13674124885E+04  0.41800000000E+01 0. -1.
         -5    1    3    3    0  502  0.10569283406E+01 -0.24157521367E+02  0.63015659977E+03  0.63063421694E+03  0.41800000000E+01 0. -1.
        -11    1    1    2    0    0 -0.57327350401E+02 -0.58398343788E+02  0.46210007241E+03  0.46929017525E+03  0.00000000000E+00 0.  1.
         11    1    1    2    0    0  0.24107275861E+02 -0.46256964886E+02  0.12623715816E+03  0.13658948587E+03  0.00000000000E+00 0. -1.
</event>
<event>
 7    1  0.2732144E-009  0.1270509E+03  0.7561462E-02  0.1231898E+00
         -1   -1    0    0    0  501 -0.00000000000E+00  0.00000000000E+00  0.16222475324E+03  0.16222475324E+03  0.00000000000E+00 0.  1.
          1   -1    0    0  501    0  0.00000000000E+00 -0.00000000000E+00 -0.11024251328E+03  0.11024251328E+03  0.00000000000E+00 0. -1.
         25    2    1    2    0    0 -0.67310286601E+02 -0.39800989130E+02  0.26273607836E+02  0.14983927479E+03  0.12508681938E+03 0.  0.
          5    1    3    3  502    0 -0.40848511844E+02  0.43615551148E+02  0.10309320607E+02  0.60783811276E+02  0.41800000000E+01 0. -1.
         -5    1    3    3    0  502 -0.26461774757E+02 -0.83416540278E+02  0.15964287228E+02  0.89055463516E+02  0.41800000000E+01 0. -1.
        -11    1    1    2    0    0  0.83073072555E+02  0.32335446019E+02 -0.28214683320E+01  0.89188996723E+02  0.00000000000E+00 0. -1.
         11    1    1    2    0    0 -0.15762785954E+02  0.74655431116E+01  0.28530100459E+02  0.33438995009E+02  0.00000000000E+00 0.  1.
</event>
<event>
 7    1  0.2732144E-009  0.8094563E+02  0.7561462E-02  0.1326389E+00
         -1   -1    0    0    0  501 -0.00000000000E+00  0.00000000000E+00  0.52777366009E+02  0.52777366009E+02  0.00000000000E+00 0.  1.
          1   -1    0    0  501    0  0.00000000000E+00 -0.00000000000E+00 -0.27154051345E+03  0.27154051345E+03  0.00000000000E+00 0. -1.
         25    2    1    2    0    0  0.45901100352E+01 -0.14678933380E+02 -0.56577150328E+02  0.13814918266E+03  0.12509069723E+03 0.  0.
          5    1    3    3  502    0 -0.16296363727E+02  0.40183266882E+02  0.14460078697E+02  0.45900247101E+02  0.41800000000E+01 0. -1.
         -5    1    3    3    0  502  0.20886473762E+02 -0.54862200262E+02 -0.71037229025E+02  0.92248935557E+02  0.41800000000E+01 0. -1.
        -11    1    1    2    0    0 -0.17839201201E+02 -0.17306823108E+02 -0.51774366083E+01  0.25388364961E+02  0.00000000000E+00 0.  1.
         11    1    1    2    0    0  0.13249091166E+02  0.31985756487E+02 -0.15700856050E+03  0.16078033184E+03  0.00000000000E+00 0. -1.
</event>
<event>
 7    1  0.2732144E-009  0.1198197E+03  0.7561462E-02  0.1243395E+00
          1   -1    0    0  501    0  0.00000000000E+00  0.00000000000E+00  0.92254773239E+03  0.92254773239E+03  0.00000000000E+00 0. -1.
         -1   -1    0    0    0  501 -0.00000000000E+00 -0.00000000000E+00 -0.19278981002E+02  0.19278981002E+02  0.00000000000E+00 0.  1.
         25    2    1    2    0    0  0.88223953676E-01 -0.64732149384E+02  0.36107302488E+03  0.38757129527E+03  0.12509005027E+03 0.  0.
          5    1    3    3  502    0  0.52429709491E+02 -0.43780146861E+02  0.10499870808E+03  0.12533066981E+03  0.41800000000E+01 0. -1.
         -5    1    3    3    0  502 -0.52341485537E+02 -0.20952002523E+02  0.25607431681E+03  0.26224062547E+03  0.41800000000E+01 0. -1.
        -11    1    1    2    0    0 -0.39233360954E+02  0.64537477625E+02  0.33709498975E+03  0.34545242038E+03  0.00000000000E+00 0.  1.
         11    1    1    2    0    0  0.39145137001E+02  0.19467175862E+00  0.20510073675E+03  0.20880299773E+03  0.00000000000E+00 0. -1.
</event>
<event>
 7    1  0.2732144E-009  0.1172986E+03  0.7561462E-02  0.1247621E+00
          2   -1    0    0  501    0  0.00000000000E+00  0.00000000000E+00  0.11937691597E+03  0.11937691597E+03  0.00000000000E+00 0. -1.
         -2   -1    0    0    0  501 -0.00000000000E+00 -0.00000000000E+00 -0.15212917343E+03  0.15212917343E+03  0.00000000000E+00 0.  1.
         25    2    1    2    0    0 -0.78694582364E+02 -0.67883010775E+01 -0.38821409446E+02  0.15295853918E+03  0.12510113729E+03 0.  0.
          5    1    3    3  502    0 -0.19052703094E+02 -0.49305785859E+02 -0.56510266645E+02  0.77491603743E+02  0.41800000000E+01 0.  1.
         -5    1    3    3    0  502 -0.59641879270E+02  0.42517484781E+02  0.17688857199E+02  0.75466935435E+02  0.41800000000E+01 0.  1.
        -11    1    1    2    0    0  0.76723812832E+02  0.31848184085E+02 -0.16582203280E+02  0.84710210427E+02  0.00000000000E+00 0.  1.
         11    1    1    2    0    0  0.19707695313E+01 -0.25059883007E+02  0.22651355268E+02  0.33837339794E+02  0.00000000000E+00 0. -1.
</event>
<event>
 7    1  0.2732144E-009  0.1470734E+03  0.7561462E-02  0.1204116E+00
          1   -1    0    0  501    0  0.00000000000E+00  0.00000000000E+00  0.70459503176E+03  0.70459503176E+03  0.00000000000E+00 0. -1.
         -1   -1    0    0    0  501 -0.00000000000E+00 -0.00000000000E+00 -0.37912952985E+02  0.37912952985E+02  0.00000000000E+00 0.  1.
         25    2    1    2    0    0 -0.10849288463E+03  0.54987809900E+02  0.34926408398E+03  0.39041873367E+03  0.12508805694E+03 0.  0.
          5    1    3    3  502    0  0.24603711327E+02 -0.63671251377E+01  0.33332237708E+02  0.42123548808E+02  0.41800000000E+01 0.  1.
         -5    1    3    3    0  502 -0.13309659595E+03  0.61354935038E+02  0.31593184627E+03  0.34829518486E+03  0.41800000000E+01 0.  1.
        -11    1    1    2    0    0  0.37358637138E+02 -0.22088785548E+02  0.23256406709E+03  0.23657900904E+03  0.00000000000E+00 0. -1.
         11    1    1    2    0    0  0.71134247487E+02 -0.32899024352E+02  0.84853927704E+02  0.11551024204E+03  0.00000000000E+00 0.  1.
</event>
<event>
 7    1  0.2732144E-009  0.1567209E+03  0.7561462E-02  0.1192449E+00
         -1   -1    0    0    0  501 -0.00000000000E+00  0.00000000000E+00  0.11278117912E+04  0.11278117912E+04  0.00000000000E+00 0.  1.
          1   -1    0    0  501    0  0.00000000000E+00 -0.00000000000E+00 -0.23490136228E+02  0.23490136228E+02  0.00000000000E+00 0. -1.
         25    2    1    2    0    0 -0.10454245795E+03  0.60271422416E+02  0.52378724161E+03  0.55187150876E+03  0.12508923949E+03 0.  0.
          5    1    3    3  502    0 -0.79017808818E+02  0.93207279426E+02  0.29584499096E+03  0.32011426417E+03  0.41800000000E+01 0.  1.
         -5    1    3    3    0  502 -0.25524649129E+02 -0.32935857009E+02  0.22794225065E+03  0.23175724459E+03  0.41800000000E+01 0.  1.
        -11    1    1    2    0    0  0.21911362197E+01  0.19443659034E+02  0.79636443909E+02  0.82005000781E+02  0.00000000000E+00 0.  1.
         11    1    1    2    0    0  0.10235132173E+03 -0.79715081450E+02  0.50089796942E+03  0.51742541786E+03  0.00000000000E+00 0. -1.
</event>
<event>
 7    1  0.2732144E-009  0.1522078E+03  0.7561462E-02  0.1197786E+00
         -2   -1    0    0    0  501 -0.00000000000E+00  0.00000000000E+00  0.52837147738E+03  0.52837147738E+03  0.00000000000E+00 0.  1.
          2   -1    0    0  501    0  0.00000000000E+00 -0.00000000000E+00 -0.54592372874E+02  0.54592372874E+02  0.00000000000E+00 0. -1.
         25    2    1    2    0    0  0.12258265268E+03  0.33435734429E+02  0.20570409764E+03  0.27222898975E+03  0.12509992806E+03 0.  0.
          5    1    3    3  502    0 -0.79670489524E+01  0.19869340960E+02 -0.64289719595E+01  0.22739143776E+02  0.41800000000E+01 0.  1.
         -5    1    3    3    0  502  0.13054970163E+03  0.13566393469E+02  0.21213306960E+03  0.24948984598E+03  0.41800000000E+01 0.  1.
        -11    1    1    2    0    0 -0.10462448115E+03  0.91933515164E+01  0.22125812101E+03  0.24492030516E+03  0.00000000000E+00 0.  1.
         11    1    1    2    0    0 -0.17958171529E+02 -0.42629085945E+02  0.46816885855E+02  0.65814555338E+02  0.00000000000E+00 0. -1.
</event>
<event>
 7    1  0.2732144E-009  0.1455279E+03  0.7561462E-02  0.1206079E+00
          2   -1    0    0  501    0  0.00000000000E+00  0.00000000000E+00  0.44722491715E+03  0.44722491715E+03  0.00000000000E+00 0. -1.
         -2   -1    0    0    0  501 -0.00000000000E+00 -0.00000000000E+00 -0.56029076461E+02  0.56029076461E+02  0.00000000000E+00 0.  1.
         25    2    1    2    0    0 -0.50222963098E+01 -0.10036697457E+03  0.11898330776E+03  0.19975933341E+03  0.12509200899E+03 0.  0.
          5    1    3    3  502    0  0.32752184950E+02  0.16107807615E+02  0.17612656988E+02  0.40741197470E+02  0.41800000000E+01 0. -1.
         -5    1    3    3    0  502 -0.37774481260E+02 -0.11647478219E+03  0.10137065077E+03  0.15901813594E+03  0.41800000000E+01 0. -1.
        -11    1    1    2    0    0  0.17469575508E+02  0.11283663736E+03  0.21245348699E+03  0.24119240646E+03  0.00000000000E+00 0.  1.
         11    1    1    2    0    0 -0.12447279198E+02 -0.12469662787E+02  0.59759045937E+02  0.62302253737E+02  0.00000000000E+00 0. -1.
</event>
<event>
 7    1  0.2732144E-009  0.1495387E+03  0.7561462E-02  0.1201041E+00
         -2   -1    0    0    0  501 -0.00000000000E+00  0.00000000000E+00  0.10176835064E+03  0.10176835064E+03  0.00000000000E+00 0.  1.
          2   -1    0    0  501    0  0.00000000000E+00 -0.00000000000E+00 -0.31545348883E+03  0.31545348883E+03  0.00000000000E+00 0. -1.
         25    2    1    2    0    0 -0.10462076118E+03  0.87123812710E+02 -0.16292233365E+03  0.24642995425E+03  0.12509185881E+03 0.  0.
          5    1    3    3  502    0 -0.90658564411E+02  0.72539974730E+02 -0.41658482533E+02  0.12342578662E+03  0.41800000000E+01 0.  1.
         -5    1    3    3    0  502 -0.13962196770E+02  0.14583837980E+02 -0.12126385112E+03  0.12300416764E+03  0.41800000000E+01 0.  1.
        -11    1    1    2    0    0  0.18762741934E+02  0.18370849543E+02 -0.14619782114E+02  0.30054394469E+02  0.00000000000E+00 0.  1.
         11    1    1    2    0    0  0.85858019247E+02 -0.10549466225E+03 -0.36143022430E+02  0.14073749075E+03  0.00000000000E+00 0. -1.
</event>
<event>
 7    1  0.2732144E-009  0.1023158E+03  0.7561462E-02  0.1275500E+00
         -2   -1    0    0    0  501 -0.00000000000E+00  0.00000000000E+00  0.13134773493E+03  0.13134773493E+03  0.00000000000E+00 0.  1.
          2   -1    0    0  501    0  0.00000000000E+00 -0.00000000000E+00 -0.10015345781E+03  0.10015345781E+03  0.00000000000E+00 0. -1.
         25    2    1    2    0    0 -0.12666074082E+02 -0.28014383642E+02 -0.33224171722E+01  0.12885530901E+03  0.12508963618E+03 0.  0.
          5    1    3    3  502    0 -0.54697482475E+02 -0.51608443275E+02 -0.19569842507E+02  0.77818359929E+02  0.41800000000E+01 0.  1.
         -5    1    3    3    0  502  0.42031408393E+02  0.23594059632E+02  0.16247425335E+02  0.51036949081E+02  0.41800000000E+01 0.  1.
        -11    1    1    2    0    0  0.10638526677E+02  0.53914032206E+02  0.48365693282E+02  0.73206156880E+02  0.00000000000E+00 0.  1.
         11    1    1    2    0    0  0.20275474046E+01 -0.25899648563E+02 -0.13848998984E+02  0.29439726851E+02  0.00000000000E+00 0. -1.
</event>
<event>
 7    1  0.2732144E-009  0.1255036E+03  0.7561462E-02  0.1234284E+00
         -2   -1    0    0    0  501 -0.00000000000E+00  0.00000000000E+00  0.13891434641E+02  0.13891434641E+02  0.00000000000E+00 0.  1.
          2   -1    0    0  501    0  0.00000000000E+00 -0.00000000000E+00 -0.17560519381E+04  0.17560519381E+04  0.00000000000E+00 0. -1.
         25    2    1    2    0    0  0.50383077047E+02 -0.70376976253E+02 -0.13615549503E+04  0.13700258700E+04  0.12509048113E+03 0.  0.
          5    1    3    3  502    0 -0.24099288836E+02  0.66777187152E+01 -0.78427094557E+02  0.82423596199E+02  0.41800000000E+01 0.  1.
         -5    1    3    3    0  502  0.74482365883E+02 -0.77054694969E+02 -0.12831278558E+04  0.12876022738E+04  0.41800000000E+01 0.  1.
        -11    1    1    2    0    0 -0.52107710395E+02  0.42796103303E+01 -0.22216138166E+03  0.22823060279E+03  0.00000000000E+00 0. -1.
         11    1    1    2    0    0  0.17246333484E+01  0.66097365923E+02 -0.15844417145E+03  0.17168689993E+03  0.00000000000E+00 0.  1.
</event>
<event>
 7    1  0.2732144E-009  0.1137492E+03  0.7561462E-02  0.1253780E+00
          1   -1    0    0  501    0  0.00000000000E+00  0.00000000000E+00  0.48636864427E+02  0.48636864427E+02  0.00000000000E+00 0. -1.
         -1   -1    0    0    0  501 -0.00000000000E+00 -0.00000000000E+00 -0.58168124554E+03  0.58168124554E+03  0.00000000000E+00 0.  1.
         25    2    1    2    0    0 -0.29953376755E+02  0.17995977758E+02 -0.51253636312E+03  0.52873653082E+03  0.12509090896E+03 0.  0.
          5    1    3    3  502    0 -0.48071154038E+02 -0.42790360704E+02 -0.30217834757E+03  0.30898394288E+03  0.41800000000E+01 0. -1.
         -5    1    3    3    0  502  0.18117777284E+02  0.60786338462E+02 -0.21035801556E+03  0.21975258794E+03  0.41800000000E+01 0. -1.
        -11    1    1    2    0    0 -0.26851803804E+02  0.17873826539E+02 -0.51359691533E+01  0.32662994686E+02  0.00000000000E+00 0.  1.
         11    1    1    2    0    0  0.56805180559E+02 -0.35869804298E+02 -0.15372048835E+02  0.68918584461E+02  0.00000000000E+00 0. -1.
</event>
<event>
 7    1  0.2732144E-009  0.1193233E+03  0.7561462E-02  0.1244217E+00
         -3   -1    0    0    0  501 -0.00000000000E+00  0.00000000000E+00  0.32704746134E+03  0.32704746134E+03  0.00000000000E+00 0.  1.
          3   -1    0    0  501    0  0.00000000000E+00 -0.00000000000E+00 -0.46404246370E+02  0.46404246370E+02  0.00000000000E+00 0. -1.
         25    2    1    2    0    0 -0.16205787672E+02 -0.48727074205E+02  0.19786896851E+03  0.23965812024E+03  0.12508769157E+03 0.  0.
          5    1    3    3  502    0 -0.67349021980E+02 -0.48998309832E+02  0.13243229818E+03  0.15650083428E+03  0.41800000000E+01 0.  1.
         -5    1    3    3    0  502  0.51143234308E+02  0.27123562682E+00  0.65436670335E+02  0.83157285964E+02  0.41800000000E+01 0.  1.
        -11    1    1    2    0    0  0.51917598542E+02  0.13205778731E+02  0.32665527509E+02  0.62744452485E+02  0.00000000000E+00 0.  1.
         11    1    1    2    0    0 -0.35711810869E+02  0.35521295474E+02  0.50108718945E+02  0.71049134984E+02  0.00000000000E+00 0. -1.
</event>
<event>
 7    1  0.2732144E-009  0.8256129E+02  0.7561462E-02  0.1321936E+00
          1   -1    0    0  501    0  0.00000000000E+00  0.00000000000E+00  0.29164293677E+03  0.29164293677E+03  0.00000000000E+00 0. -1.
         -1   -1    0    0    0  501 -0.00000000000E+00 -0.00000000000E+00 -0.42115313825E+02  0.42115313825E+02  0.00000000000E+00 0.  1.
         25    2    1    2    0    0  0.17772926754E+02  0.12110758551E+02  0.12885337432E+03  0.18086694918E+03  0.12508842406E+03 0.  0.
          5    1    3    3  502    0 -0.96422367589E+01  0.44187409790E+02  0.13075773908E+03  0.13842166970E+03  0.41800000000E+01 0.  1.
         -5    1    3    3    0  502  0.27415163513E+02 -0.32076651239E+02 -0.19043647589E+01  0.42445279482E+02  0.41800000000E+01 0.  1.
        -11    1    1    2    0    0 -0.46625932799E+02 -0.13096256614E+02  0.28259612594E+02  0.56072232439E+02  0.00000000000E+00 0.  1.
         11    1    1    2    0    0  0.28853006045E+02  0.98549806365E+00  0.92414636038E+02  0.96819068981E+02  0.00000000000E+00 0. -1.
</event>
<event>
 7    1  0.2732144E-009  0.2746682E+03  0.7561462E-02  0.1098637E+00
         -2   -1    0    0    0  501 -0.00000000000E+00  0.00000000000E+00  0.12799067913E+03  0.12799067913E+03  0.00000000000E+00 0.  1.
          2   -1    0    0  501    0  0.00000000000E+00 -0.00000000000E+00 -0.95681794837E+03  0.95681794837E+03  0.00000000000E+00 0. -1.
         25    2    1    2    0    0 -0.25118817724E+03  0.90164846859E+02 -0.11327183831E+03  0.31575886328E+03  0.12509176789E+03 0.  0.
          5    1    3    3  502    0 -0.86826753736E+02  0.56528362952E+02 -0.10524931061E+03  0.14774718531E+03  0.41800000000E+01 0.  1.
         -5    1    3    3    0  502 -0.16436142350E+03  0.33636483907E+02 -0.80225276996E+01  0.16801167797E+03  0.41800000000E+01 0.  1.
        -11    1    1    2    0    0  0.13975262273E+03 -0.91480990584E+01 -0.29618223892E+03  0.32762539879E+03  0.00000000000E+00 0.  1.
         11    1    1    2    0    0  0.11143555451E+03 -0.81016747801E+02 -0.41937319200E+03  0.44142436544E+03  0.00000000000E+00 0. -1.
</event>
<event>
 7    1  0.2732144E-009  0.1032981E+03  0.7561462E-02  0.1273509E+00
         -1   -1    0    0    0  501 -0.00000000000E+00  0.00000000000E+00  0.95010215708E+03  0.95010215708E+03  0.00000000000E+00 0.  1.
          1   -1    0    0  501    0  0.00000000000E+00 -0.00000000000E+00 -0.17061526339E+02  0.17061526339E+02  0.00000000000E+00 0. -1.
         25    2    1    2    0    0 -0.27197017997E+02 -0.34054097189E+02  0.71646443348E+03  0.72861080832E+03  0.12511221456E+03 0.  0.
          5    1    3    3  502    0  0.20057523466E+02  0.35845850298E+02  0.35566749319E+03  0.35805595561E+03  0.41800000000E+01 0. -1.
         -5    1    3    3    0  502 -0.47254541462E+02 -0.69899947487E+02  0.36079694029E+03  0.37055485271E+03  0.41800000000E+01 0. -1.
        -11    1    1    2    0    0  0.49422256114E+02  0.15260802139E+02  0.19650228898E+03  0.20319596712E+03  0.00000000000E+00 0.  1.
         11    1    1    2    0    0 -0.22225238118E+02  0.18793295050E+02  0.20073908289E+02  0.35356907984E+02  0.00000000000E+00 0. -1.
</event>
<event>
 7    1  0.2732144E-009  0.1127962E+03  0.7561462E-02  0.1255478E+00
          2   -1    0    0  501    0  0.00000000000E+00  0.00000000000E+00  0.33507503608E+03  0.33507503608E+03  0.00000000000E+00 0. -1.
         -2   -1    0    0    0  501 -0.00000000000E+00 -0.00000000000E+00 -0.51383567828E+02  0.51383567828E+02  0.00000000000E+00 0.  1.
         25    2    1    2    0    0  0.23746332801E+02 -0.61842559313E+02  0.10710897718E+03  0.17750609068E+03  0.12509072217E+03 0.  0.
          5    1    3    3  502    0 -0.38221273477E+02  0.13246842294E+02  0.50395008020E+02  0.64757036762E+02  0.41800000000E+01 0. -1.
         -5    1    3    3    0  502  0.61967606277E+02 -0.75089401606E+02  0.56713969158E+02  0.11274905392E+03  0.41800000000E+01 0. -1.
        -11    1    1    2    0    0 -0.38956455096E+02  0.21792953545E+02  0.15437307557E+03  0.16069718317E+03  0.00000000000E+00 0. -1.
         11    1    1    2    0    0  0.15210122295E+02  0.40049605767E+02  0.22209415508E+02  0.48255330064E+02  0.00000000000E+00 0.  1.
</event>
<event>
 7    1  0.2732144E-009  0.8060206E+02  0.7561462E-02  0.1327352E+00
          1   -1    0    0  501    0  0.00000000000E+00  0.00000000000E+00  0.90342209709E+02  0.90342209709E+02  0.00000000000E+00 0. -1.
         -1   -1    0    0    0  501 -0.00000000000E+00 -0.00000000000E+00 -0.14502564137E+03  0.14502564137E+03  0.00000000000E+00 0.  1.
         25    2    1    2    0    0 -0.15709863973E+01 -0.25418364599E+02 -0.55755033355E+02  0.13931069861E+03  0.12510110210E+03 0.  0.
          5    1    3    3  502    0  0.26988340995E+02  0.18039819231E+02 -0.76468660485E+02  0.83178928004E+02  0.41800000000E+01 0.  1.
         -5    1    3    3    0  502 -0.28559327393E+02 -0.43458183830E+02  0.20713627129E+02  0.56131770610E+02  0.41800000000E+01 0.  1.
        -11    1    1    2    0    0  0.15589524060E+02 -0.21939646402E+02 -0.27925909351E+02  0.38784504093E+02  0.00000000000E+00 0.  1.
         11    1    1    2    0    0 -0.14018537663E+02  0.47358011001E+02  0.28997511049E+02  0.57272648369E+02  0.00000000000E+00 0. -1.
</event>
<event>
 7    1  0.3247748E-009  0.9345020E+02  0.7561462E-02  0.1294705E+00
         -1   -1    0    0    0  501 -0.00000000000E+00  0.00000000000E+00  0.94267684098E+02  0.94267684098E+02  0.00000000000E+00 0.  1.
          1   -1    0    0  501    0  0.00000000000E+00 -0.00000000000E+00 -0.18408129022E+03  0.18408129022E+03  0.00000000000E+00 0. -1.
         25    2    1    2    0    0 -0.72687559260E+02 -0.65134097794E+00 -0.66688019570E+02  0.15930862705E+03  0.12509213078E+03 0.  0.
          5    1    3    3  502    0 -0.71596484030E+02 -0.24263153070E+02  0.12344536178E+02  0.76711257947E+02  0.41800000000E+01 0.  1.
         -5    1    3    3    0  502 -0.10910752299E+01  0.23611812092E+02 -0.79032555748E+02  0.82597369108E+02  0.41800000000E+01 0.  1.
        -11    1    1    2    0    0  0.46201350326E+02  0.23833623353E+02  0.26380287866E+02  0.58296877806E+02  0.00000000000E+00 0.  1.
         11    1    1    2    0    0  0.26486208934E+02 -0.23182282375E+02 -0.49505874414E+02  0.60743469454E+02  0.00000000000E+00 0. -1.
</event>
<event>
 7    1  0.2732144E-009  0.2133720E+03  0.7561462E-02  0.1138923E+00
          2   -1    0    0  501    0  0.00000000000E+00  0.00000000000E+00  0.61861893409E+03  0.61861893409E+03  0.00000000000E+00 0. -1.
         -2   -1    0    0    0  501 -0.00000000000E+00 -0.00000000000E+00 -0.83396365660E+02  0.83396365660E+02  0.00000000000E+00 0.  1.
         25    2    1    2    0    0 -0.80855971949E+02  0.17606978235E+03  0.21431238917E+03  0.31482709250E+03  0.12509213232E+03 0.  0.
          5    1    3    3  502    0 -0.11077345085E+03  0.13997449917E+03  0.14013949294E+03  0.22698054478E+03  0.41800000000E+01 0. -1.
         -5    1    3    3    0  502  0.29917478897E+02  0.36095283185E+02  0.74172896227E+02  0.87846547721E+02  0.41800000000E+01 0. -1.
        -11    1    1    2    0    0  0.82637045137E+02 -0.12394042071E+03  0.16266091634E+03  0.22056446409E+03  0.00000000000E+00 0.  1.
         11    1    1    2    0    0 -0.17810731883E+01 -0.52129361644E+02  0.15824926293E+03  0.16662374316E+03  0.00000000000E+00 0. -1.
</event>
<event>
 7    1  0.2732144E-009  0.1660437E+03  0.7561462E-02  0.1182038E+00
         -1   -1    0    0    0  501 -0.00000000000E+00  0.00000000000E+00  0.24906260001E+02  0.24906260001E+02  0.00000000000E+00 0.  1.
          1   -1    0    0  501    0  0.00000000000E+00 -0.00000000000E+00 -0.15906556530E+04  0.15906556530E+04  0.00000000000E+00 0. -1.
         25    2    1    2    0    0 -0.12402643269E+03  0.42224254611E+02 -0.10585644151E+04  0.10739525420E+04  0.12509995135E+03 0.  0.
          5    1    3    3  502    0 -0.12555465139E+03  0.17104432790E+02 -0.53695876395E+03  0.55172340778E+03  0.41800000000E+01 0. -1.
         -5    1    3    3    0  502  0.15282186976E+01  0.25119821821E+02 -0.52160565113E+03  0.52222913419E+03  0.41800000000E+01 0. -1.
        -11    1    1    2    0    0  0.68144322195E+02  0.41015074123E+02 -0.14033851264E+03  0.16130958769E+03  0.00000000000E+00 0.  1.
         11    1    1    2    0    0  0.55882110493E+02 -0.83239328734E+02 -0.36684646524E+03  0.38029978330E+03  0.00000000000E+00 0. -1.
</event>
<event>
 7    1  0.2732144E-009  0.1260202E+03  0.7561462E-02  0.1233483E+00
         -2   -1    0    0    0  501 -0.00000000000E+00  0.00000000000E+00  0.55591834809E+02  0.55591834809E+02  0.00000000000E+00 0.  1.
          2   -1    0    0  501    0  0.00000000000E+00 -0.00000000000E+00 -0.33802262428E+03  0.33802262428E+03  0.00000000000E+00 0. -1.
         25    2    1    2    0    0 -0.65472398023E+02 -0.51464244517E+02 -0.15193976435E+03  0.21370565279E+03  0.12509680523E+03 0.  0.
          5    1    3    3  502    0  0.19768055248E+01 -0.77662353598E+02 -0.78079664724E+02  0.11022366066E+03  0.41800000000E+01 0. -1.
         -5    1    3    3    0  502 -0.67449203548E+02  0.26198109080E+02 -0.73860099624E+02  0.10348199213E+03  0.41800000000E+01 0. -1.
        -11    1    1    2    0    0  0.55663044117E+02  0.68516520611E+01 -0.18655649771E+02  0.59104592755E+02  0.00000000000E+00 0. -1.
         11    1    1    2    0    0  0.98093539058E+01  0.44612592456E+02 -0.11183537535E+03  0.12080421354E+03  0.00000000000E+00 0.  1.
</event>
<event>
 7    1  0.2732144E-009  0.1521572E+03  0.7561462E-02  0.1197847E+00
         -1   -1    0    0    0  501 -0.00000000000E+00  0.00000000000E+00  0.86753444072E+02  0.86753444072E+02  0.00000000000E+00 0.  1.
          1   -1    0    0  501    0  0.00000000000E+00 -0.00000000000E+00 -0.37522773357E+03  0.37522773357E+03  0.00000000000E+00 0. -1.
         25    2    1    2    0    0 -0.70412750352E+02  0.11618407386E+03 -0.19696412622E+03  0.27001749571E+03  0.12513147703E+03 0.  0.
          5    1    3    3  502    0 -0.12389240641E+01  0.34920473773E+01  0.17312459407E+02  0.18191288532E+02  0.41800000000E+01 0. -1.
         -5    1    3    3    0  502 -0.69173826288E+02  0.11269202648E+03 -0.21427658562E+03  0.25182620718E+03  0.41800000000E+01 0. -1.
        -11    1    1    2    0    0  0.69873106476E+02 -0.23457898142E+02 -0.56410352680E+02  0.92815148997E+02  0.00000000000E+00 0. -1.
         11    1    1    2    0    0  0.53964387569E+00 -0.92726175716E+02 -0.35099810598E+02  0.99148532932E+02  0.00000000000E+00 0.  1.
</event>
<event>
 7    1  0.2732144E-009  0.7015496E+02  0.7561462E-02  0.1359567E+00
         -2   -1    0    0    0  501 -0.00000000000E+00  0.00000000000E+00  0.32668836580E+02  0.32668836580E+02  0.00000000000E+00 0.  1.
          2   -1    0    0  501    0  0.00000000000E+00 -0.00000000000E+00 -0.55206916401E+03  0.55206916401E+03  0.00000000000E+00 0. -1.
         25    2    1    2    0    0  0.11217157743E+02  0.55215234589E+02 -0.40683615797E+03  0.42935355995E+03  0.12511703821E+03 0.  0.
          5    1    3    3  502    0 -0.60337618507E+01  0.16029267158E+02  0.24618672025E+01  0.17801035864E+02  0.41800000000E+01 0.  1.
         -5    1    3    3    0  502  0.17250919594E+02  0.39185967431E+02 -0.40929802517E+03  0.41155252409E+03  0.41800000000E+01 0.  1.
        -11    1    1    2    0    0  0.22762638059E+02 -0.28266863361E+02 -0.10534199684E+03  0.11141853326E+03  0.00000000000E+00 0. -1.
         11    1    1    2    0    0 -0.33979795802E+02 -0.26948371228E+02 -0.72221726212E+01  0.43965907383E+02  0.00000000000E+00 0.  1.
</event>
<event>
 7    1  0.2732144E-009  0.1035031E+03  0.7561462E-02  0.1273097E+00
          1   -1    0    0  501    0  0.00000000000E+00  0.00000000000E+00  0.37817439309E+03  0.37817439309E+03  0.00000000000E+00 0. -1.
         -1   -1    0    0    0  501 -0.00000000000E+00 -0.00000000000E+00 -0.47296225172E+02  0.47296225172E+02  0.00000000000E+00 0.  1.
         25    2    1    2    0    0 -0.59506065715E+02 -0.39145465904E+02  0.22869201732E+03  0.27022060650E+03  0.12508316447E+03 0.  0.
          5    1    3    3  502    0  0.70649602326E+01  0.13223905387E+02 -0.89125379684E+01  0.17935748376E+02  0.41800000000E+01 0. -1.
         -5    1    3    3    0  502 -0.66571025947E+02 -0.52369371292E+02  0.23760455529E+03  0.25228485813E+03  0.41800000000E+01 0. -1.
        -11    1    1    2    0    0  0.76810289020E+02  0.17239115802E+02  0.42739774628E+02  0.89575085533E+02  0.00000000000E+00 0.  1.
         11    1    1    2    0    0 -0.17304223305E+02  0.21906350103E+02  0.59446375966E+02  0.65674926223E+02  0.00000000000E+00 0. -1.
</event>
<event>
 7    1  0.2732144E-009  0.1308096E+03  0.7561462E-02  0.1226259E+00
          2   -1    0    0  501    0  0.00000000000E+00  0.00000000000E+00  0.54843284244E+03  0.54843284244E+03  0.00000000000E+00 0. -1.
         -2   -1    0    0    0  501 -0.00000000000E+00 -0.00000000000E+00 -0.34475272201E+02  0.34475272201E+02  0.00000000000E+00 0.  1.
         25    2    1    2    0    0 -0.81609939443E+02  0.18319433811E+02  0.28183300134E+03  0.31948816028E+03  0.12508820905E+03 0.  0.
          5    1    3    3  502    0 -0.59890398339E+02  0.70347651359E+02  0.15271546534E+03  0.17853609612E+03  0.41800000000E+01 0.  1.
         -5    1    3    3    0  502 -0.21719541104E+02 -0.52028217548E+02  0.12911753600E+03  0.14095206415E+03  0.41800000000E+01 0.  1.
        -11    1    1    2    0    0  0.28830488803E+01  0.23349906893E+02  0.12993538445E+02  0.26876796016E+02  0.00000000000E+00 0.  1.
         11    1    1    2    0    0  0.78726890563E+02 -0.41669340705E+02  0.21913103046E+03  0.23654315835E+03  0.00000000000E+00 0. -1.
</event>
<event>
 7    1  0.3678980E-009  0.7524167E+02  0.7561462E-02  0.1343124E+00
         -2   -1    0    0    0  501 -0.00000000000E+00  0.00000000000E+00  0.11100502991E+03  0.11100502991E+03  0.00000000000E+00 0.  1.
          2   -1    0    0  501    0  0.00000000000E+00 -0.00000000000E+00 -0.12663208141E+03  0.12663208141E+03  0.00000000000E+00 0. -1.
         25    2    1    2    0    0 -0.25533434399E+02 -0.26097212810E+02 -0.40576011171E+02  0.13648646310E+03  0.12509644734E+03 0.  0.
          5    1    3    3  502    0  0.32500749475E+02  0.16814140760E+02 -0.51556535832E+02  0.63360577908E+02  0.41800000000E+01 0.  1.
         -5    1    3    3    0  502 -0.58034183874E+02 -0.42911353569E+02  0.10980524661E+02  0.73125885190E+02  0.41800000000E+01 0.  1.
        -11    1    1    2    0    0  0.92032174833E+01  0.22948370034E+02  0.58606406722E+02  0.63608472770E+02  0.00000000000E+00 0.  1.
         11    1    1    2    0    0  0.16330216915E+02  0.31488427754E+01 -0.33657447049E+02  0.37542175446E+02  0.00000000000E+00 0. -1.
</event>
<event>
 7    1  0.2732144E-009  0.1219626E+03  0.7561462E-02  0.1239894E+00
         -2   -1    0    0    0  501 -0.00000000000E+00  0.00000000000E+00  0.42458755170E+02  0.42458755170E+02  0.00000000000E+00 0. -1.
          2   -1    0    0  501    0  0.00000000000E+00 -0.00000000000E+00 -0.45987782599E+03  0.45987782599E+03  0.00000000000E+00 0.  1.
         25    2    1    2    0    0 -0.15675679838E+02  0.82832995422E+02 -0.27519003586E+03  0.31382183671E+03  0.12509019663E+03 0.  0.
          5    1    3    3  502    0 -0.55274185225E+02  0.13283215754E+02 -0.18297741545E+03  0.19165042744E+03  0.41800000000E+01 0. -1.
         -5    1    3    3    0  502  0.39598505387E+02  0.69549779668E+02 -0.92212620410E+02  0.12217140927E+03  0.41800000000E+01 0. -1.
        -11    1    1    2    0    0  0.38293297443E+02 -0.72337727995E+02 -0.14162312383E+03  0.16357332522E+03  0.00000000000E+00 0.  1.
         11    1    1    2    0    0 -0.22617617606E+02 -0.10495267427E+02 -0.60591112547E+00  0.24941419222E+02  0.00000000000E+00 0. -1.
</event>
<event>
 7    1  0.2732144E-009  0.3014470E+03  0.7561462E-02  0.1084520E+00
          2   -1    0    0  501    0  0.00000000000E+00  0.00000000000E+00  0.15992737654E+04  0.15992737654E+04  0.00000000000E+00 0.  1.
         -2   -1    0    0    0  501 -0.00000000000E+00 -0.00000000000E+00 -0.62004575069E+02  0.62004575069E+02  0.00000000000E+00 0. -1.
         25    2    1    2    0    0 -0.29494470592E+03 -0.29588519652E+01  0.79983256814E+03  0.86161524995E+03  0.12509023756E+03 0.  0.
          5    1    3    3  502    0 -0.63075029285E+02 -0.37033584701E+02  0.10286267119E+03  0.12628597404E+03  0.41800000000E+01 0. -1.
         -5    1    3    3    0  502 -0.23186967664E+03  0.34074732736E+02  0.69696989695E+03  0.73532927591E+03  0.41800000000E+01 0. -1.
        -11    1    1    2    0    0  0.25906459902E+03 -0.15686928002E+01  0.70496040885E+03  0.75105665919E+03  0.00000000000E+00 0.  1.
         11    1    1    2    0    0  0.35880106905E+02  0.45275447654E+01  0.32476213319E+02  0.48606431310E+02  0.00000000000E+00 0. -1.
</event>
<event>
 7    1  0.2732144E-009  0.1095474E+03  0.7561462E-02  0.1261410E+00
         -1   -1    0    0    0  501 -0.00000000000E+00  0.00000000000E+00  0.49032572006E+02  0.49032572006E+02  0.00000000000E+00 0.  1.
          1   -1    0    0  501    0  0.00000000000E+00 -0.00000000000E+00 -0.32605334355E+03  0.32605334355E+03  0.00000000000E+00 0. -1.
         25    2    1    2    0    0 -0.57052502506E+02 -0.67437403124E+01 -0.11515584190E+03  0.17947836702E+03  0.12510455719E+03 0.  0.
          5    1    3    3  502    0 -0.34153877062E+02  0.51010704149E+02 -0.18051934651E+02  0.64124285578E+02  0.41800000000E+01 0. -1.
         -5    1    3    3    0  502 -0.22898625444E+02 -0.57754444462E+02 -0.97103907250E+02  0.11535408144E+03  0.41800000000E+01 0. -1.
        -11    1    1    2    0    0  0.44099326373E+02 -0.31972179499E+02 -0.41413272799E+02  0.68425360886E+02  0.00000000000E+00 0. -1.
         11    1    1    2    0    0  0.12953176133E+02  0.38715919811E+02 -0.12045165684E+03  0.12718218765E+03  0.00000000000E+00 0.  1.
</event>
<event>
 7    1  0.2732144E-009  0.8933276E+02  0.7561462E-02  0.1304476E+00
         -4   -1    0    0    0  501 -0.00000000000E+00  0.00000000000E+00  0.23768762376E+03  0.23768762376E+03  0.00000000000E+00 0.  1.
          4   -1    0    0  501    0  0.00000000000E+00 -0.00000000000E+00 -0.60610916006E+02  0.60610916006E+02  0.00000000000E+00 0. -1.
         25    2    1    2    0    0  0.41491209487E+02  0.38351293341E+02  0.77417463399E+02  0.15758557869E+03  0.12508960311E+03 0.  0.
          5    1    3    3  502    0 -0.92965094201E+00 -0.15853059886E+02  0.86489008365E+02  0.88034111154E+02  0.41800000000E+01 0.  1.
         -5    1    3    3    0  502  0.42420860429E+02  0.54204353228E+02 -0.90715449664E+01  0.69551467536E+02  0.41800000000E+01 0.  1.
        -11    1    1    2    0    0 -0.61658267407E+02 -0.17090864250E+02  0.43505445202E+02  0.77372885061E+02  0.00000000000E+00 0. -1.
         11    1    1    2    0    0  0.20167057920E+02 -0.21260429091E+02  0.56153799155E+02  0.63340076017E+02  0.00000000000E+00 0.  1.
</event>
<event>
 7    1  0.2732144E-009  0.1349007E+03  0.7561462E-02  0.1220360E+00
         -4   -1    0    0    0  501 -0.00000000000E+00  0.00000000000E+00  0.84014378300E+02  0.84014378300E+02  0.00000000000E+00 0. -1.
          4   -1    0    0  501    0  0.00000000000E+00 -0.00000000000E+00 -0.25528287696E+03  0.25528287696E+03  0.00000000000E+00 0.  1.
         25    2    1    2    0    0  0.27447428575E+02 -0.79002212527E+02 -0.38189695474E+02  0.15523824070E+03  0.12508296293E+03 0.  0.
          5    1    3    3  502    0  0.55712971152E+02 -0.98384488889E+02 -0.16177983435E+02  0.11429191728E+03  0.41800000000E+01 0.  1.
         -5    1    3    3    0  502 -0.28265542577E+02  0.19382276362E+02 -0.22011712038E+02  0.40946323413E+02  0.41800000000E+01 0.  1.
        -11    1    1    2    0    0  0.13802096244E+02  0.79691914220E+02 -0.11078200591E+03  0.13716395986E+03  0.00000000000E+00 0. -1.
         11    1    1    2    0    0 -0.41249524819E+02 -0.68970169298E+00 -0.22296797276E+02  0.46895054697E+02  0.00000000000E+00 0.  1.
</event>
<event>
 7    1  0.2732144E-009  0.1239809E+03  0.7561462E-02  0.1236671E+00
         -2   -1    0    0    0  501 -0.00000000000E+00  0.00000000000E+00  0.25389418383E+02  0.25389418383E+02  0.00000000000E+00 0.  1.
          2   -1    0    0  501    0  0.00000000000E+00 -0.00000000000E+00 -0.91487976028E+03  0.91487976028E+03  0.00000000000E+00 0. -1.
         25    2    1    2    0    0 -0.45142657488E+02 -0.48685128028E+02 -0.73578632367E+03  0.74929097634E+03  0.12508937569E+03 0.  0.
          5    1    3    3  502    0 -0.66075698786E+02  0.19989304136E+02 -0.39350745584E+03  0.39953868455E+03  0.41800000000E+01 0. -1.
         -5    1    3    3    0  502  0.20933041297E+02 -0.68674432164E+02 -0.34227886783E+03  0.34975229179E+03  0.41800000000E+01 0. -1.
        -11    1    1    2    0    0 -0.15762934771E+01  0.59017696979E+02 -0.52383252359E+02  0.78927678197E+02  0.00000000000E+00 0.  1.
         11    1    1    2    0    0  0.46718950965E+02 -0.10332568951E+02 -0.10132076587E+03  0.11205052412E+03  0.00000000000E+00 0. -1.
</event>
<event>
 7    1  0.2732144E-009  0.1046517E+03  0.7561462E-02  0.1270807E+00
          2   -1    0    0  501    0  0.00000000000E+00  0.00000000000E+00  0.22277644018E+03  0.22277644018E+03  0.00000000000E+00 0.  1.
         -2   -1    0    0    0  501 -0.00000000000E+00 -0.00000000000E+00 -0.60624934440E+02  0.60624934440E+02  0.00000000000E+00 0. -1.
         25    2    1    2    0    0 -0.11140176676E+02  0.90187371809E+01  0.33938036621E+02  0.13040240383E+03  0.12509018921E+03 0.  0.
          5    1    3    3  502    0  0.85221257966E+01 -0.56504046176E+02  0.13199583563E+02  0.58796558306E+02  0.41800000000E+01 0. -1.
         -5    1    3    3    0  502 -0.19662302473E+02  0.65522783357E+02  0.20738453058E+02  0.71605845520E+02  0.41800000000E+01 0. -1.
        -11    1    1    2    0    0 -0.35920874101E+02 -0.38328204347E+01  0.56965496997E+02  0.67454188578E+02  0.00000000000E+00 0.  1.
         11    1    1    2    0    0  0.47061050777E+02 -0.51859167462E+01  0.71247972120E+02  0.85544782214E+02  0.00000000000E+00 0. -1.
</event>
<event>
 6    1  0.2732144E-009  0.9438545E+02  0.7561462E-02  0.1292566E+00
         -2   -1    0    0    0  501 -0.00000000000E+00  0.00000000000E+00  0.33056115014E+02  0.33056115014E+02  0.00000000000E+00 0. -1.
          2   -1    0    0  501    0  0.00000000000E+00 -0.00000000000E+00 -0.72034615401E+03  0.72034615401E+03  0.00000000000E+00 0.  1.
          5    1    1    2  502    0  0.69747806975E+02 -0.33128296872E+01 -0.21284938414E+02  0.73118071785E+02  0.41800000000E+01 0. -1.
         -5    1    1    2    0  502  0.82228910052E+01  0.22929662636E+00 -0.16147144938E+03  0.16173487527E+03  0.41800000000E+01 0. -1.
        -11    1    1    2    0    0 -0.91184016367E+02 -0.90771614472E+01 -0.47668635649E+03  0.48541405229E+03  0.00000000000E+00 0. -1.
         11    1    1    2    0    0  0.13213318387E+02  0.12160694508E+02 -0.27847294714E+02  0.33135269677E+02  0.00000000000E+00 0.  1.
</event>
<event>
 7    1  0.2732144E-009  0.1171267E+03  0.7561462E-02  0.1247914E+00
          2   -1    0    0  501    0  0.00000000000E+00  0.00000000000E+00  0.86282441079E+02  0.86282441079E+02  0.00000000000E+00 0. -1.
         -2   -1    0    0    0  501 -0.00000000000E+00 -0.00000000000E+00 -0.18897243524E+03  0.18897243524E+03  0.00000000000E+00 0.  1.
         25    2    1    2    0    0  0.63323160051E+02 -0.18151594523E+02 -0.75385284604E+02  0.16021878434E+03  0.12509122566E+03 0.  0.
          5    1    3    3  502    0  0.90135919133E+02 -0.29441908255E+02 -0.86866234896E+02  0.12866438919E+03  0.41800000000E+01 0.  1.
         -5    1    3    3    0  502 -0.26812759081E+02  0.11290313731E+02  0.11480950292E+02  0.31554395150E+02  0.41800000000E+01 0.  1.
        -11    1    1    2    0    0 -0.24719441929E+02  0.52656672022E+02 -0.41514406245E+01  0.58318182216E+02  0.00000000000E+00 0.  1.
         11    1    1    2    0    0 -0.38603718123E+02 -0.34505077499E+02 -0.23153268934E+02  0.56717909767E+02  0.00000000000E+00 0. -1.
</event>
<event>
 7    1  0.2732144E-009  0.1915974E+03  0.7561462E-02  0.1157028E+00
         -2   -1    0    0    0  501 -0.00000000000E+00  0.00000000000E+00  0.42788515146E+02  0.42788515146E+02  0.00000000000E+00 0.  1.
          2   -1    0    0  501    0  0.00000000000E+00 -0.00000000000E+00 -0.91621950165E+03  0.91621950165E+03  0.00000000000E+00 0. -1.
         25    2    1    2    0    0  0.15305257382E+03 -0.50367856433E+02 -0.53565040204E+03  0.57317596178E+03  0.12508924271E+03 0.  0.
          5    1    3    3  502    0  0.17101634151E+03 -0.29578200660E+02 -0.48865986148E+03  0.51858209730E+03  0.41800000000E+01 0.  1.
         -5    1    3    3    0  502 -0.17963767689E+02 -0.20789655773E+02 -0.46990540559E+02  0.54593864479E+02  0.41800000000E+01 0.  1.
        -11    1    1    2    0    0 -0.86350916457E+02  0.71198958925E+02 -0.24781954729E+03  0.27191965825E+03  0.00000000000E+00 0. -1.
         11    1    1    2    0    0 -0.66701657368E+02 -0.20831102492E+02 -0.89961037173E+02  0.11391239676E+03  0.00000000000E+00 0.  1.
</event>
<event>
 7    1  0.2732144E-009  0.7999213E+02  0.7561462E-02  0.1329074E+00
         -2   -1    0    0    0  501 -0.00000000000E+00  0.00000000000E+00  0.90181177659E+02  0.90181177659E+02  0.00000000000E+00 0.  1.
          2   -1    0    0  501    0  0.00000000000E+00 -0.00000000000E+00 -0.19859651409E+03  0.19859651409E+03  0.00000000000E+00 0. -1.
         25    2    1    2    0    0  0.53367991410E+02 -0.16948971713E+02 -0.11356825114E+03  0.17799110420E+03  0.12509066855E+03 0.  0.
          5    1    3    3  502    0  0.15675564255E+02 -0.17981155261E+02  0.24712323595E+02  0.34600817862E+02  0.41800000000E+01 0.  1.
         -5    1    3    3    0  502  0.37692427155E+02  0.10321835482E+01 -0.13828057474E+03  0.14339028634E+03  0.41800000000E+01 0.  1.
        -11    1    1    2    0    0 -0.72707508118E+02  0.92537157155E+00 -0.19822649983E+02  0.75366939049E+02  0.00000000000E+00 0. -1.
         11    1    1    2    0    0  0.19339516709E+02  0.16023600141E+02  0.24975564691E+02  0.35419648497E+02  0.00000000000E+00 0.  1.
</event>
<event>
 7    1  0.2732144E-009  0.1337326E+03  0.7561462E-02  0.1222020E+00
          1   -1    0    0  501    0  0.00000000000E+00  0.00000000000E+00  0.47121258204E+03  0.47121258204E+03  0.00000000000E+00 0. -1.
         -1   -1    0    0    0  501 -0.00000000000E+00 -0.00000000000E+00 -0.38903997961E+02  0.38903997961E+02  0.00000000000E+00 0.  1.
         25    2    1    2    0    0  0.79560424171E+02 -0.44940659450E+01  0.23005139123E+03  0.27371927026E+03  0.12509411889E+03 0.  0.
          5    1    3    3  502    0 -0.32817242819E+02  0.89826742535E+01  0.65953528805E+02  0.74330345249E+02  0.41800000000E+01 0. -1.
         -5    1    3    3    0  502  0.11237766699E+03 -0.13476740198E+02  0.16409786243E+03  0.19938892501E+03  0.41800000000E+01 0. -1.
        -11    1    1    2    0    0  0.10454368193E+02 -0.23448059042E+02  0.65083080796E+02  0.69963652656E+02  0.00000000000E+00 0.  1.
         11    1    1    2    0    0 -0.90014792364E+02  0.27942124987E+02  0.13717411205E+03  0.16643365708E+03  0.00000000000E+00 0. -1.
</event>
<event>
 7    1  0.2732144E-009  0.1253947E+03  0.7561462E-02  0.1234454E+00
          2   -1    0    0  501    0  0.00000000000E+00  0.00000000000E+00  0.71200656810E+03  0.71200656810E+03  0.00000000000E+00 0. -1.
         -2   -1    0    0    0  501 -0.00000000000E+00 -0.00000000000E+00 -0.36726511482E+02  0.36726511482E+02  0.00000000000E+00 0.  1.
         25    2    1    2    0    0 -0.49192997341E+00  0.88569129985E+02  0.59526706048E+03  0.61468384428E+03  0.12509445369E+03 0.  0.
          5    1    3    3  502    0 -0.34117186384E+02 -0.15866271347E+02  0.90233844514E+02  0.97853666609E+02  0.41800000000E+01 0. -1.
         -5    1    3    3    0  502  0.33625256411E+02  0.10443540133E+03  0.50503321597E+03  0.51683017767E+03  0.41800000000E+01 0. -1.
        -11    1    1    2    0    0 -0.24370288870E+02 -0.62642458312E+02  0.32988665788E+02  0.74874833111E+02  0.00000000000E+00 0.  1.
         11    1    1    2    0    0  0.24862218844E+02 -0.25926671674E+02  0.47024330349E+02  0.59174402191E+02  0.00000000000E+00 0. -1.
</event>
<event>
 7    1  0.2732144E-009  0.7621437E+02  0.7561462E-02  0.1340151E+00
          2   -1    0    0  501    0  0.00000000000E+00  0.00000000000E+00  0.50105037677E+03  0.50105037677E+03  0.00000000000E+00 0. -1.
         -2   -1    0    0    0  501 -0.00000000000E+00 -0.00000000000E+00 -0.26446313277E+02  0.26446313277E+02  0.00000000000E+00 0.  1.
         25    2    1    2    0    0  0.39862273663E+02 -0.55779071016E+01  0.32463057596E+03  0.35021741091E+03  0.12508840931E+03 0.  0.
          5    1    3    3  502    0 -0.94368943382E+01  0.20584257827E+02  0.23876454435E+01  0.23150375716E+02  0.41800000000E+01 0. -1.
         -5    1    3    3    0  502  0.49299168002E+02 -0.26162164929E+02  0.32224293052E+03  0.32706703519E+03  0.41800000000E+01 0. -1.
        -11    1    1    2    0    0 -0.27250514366E+02 -0.27085093257E+02  0.13286687789E+03  0.13831052039E+03  0.00000000000E+00 0. -1.
         11    1    1    2    0    0 -0.12611759297E+02  0.32663000358E+02  0.17106609635E+02  0.38968758746E+02  0.00000000000E+00 0.  1.
</event>
<event>
 7    1  0.2732144E-009  0.1257333E+03  0.7561462E-02  0.1233928E+00
         -1   -1    0    0    0  501 -0.00000000000E+00  0.00000000000E+00  0.68141058972E+02  0.68141058972E+02  0.00000000000E+00 0.  1.
          1   -1    0    0  501    0  0.00000000000E+00 -0.00000000000E+00 -0.32504045647E+03  0.32504045647E+03  0.00000000000E+00 0. -1.
         25    2    1    2    0    0 -0.15600051767E+02 -0.96001768049E+02 -0.87474812119E+02  0.18100292894E+03  0.12510202414E+03 0.  0.
          5    1    3    3  502    0  0.23372759920E+02  0.17258580417E+02  0.48026178052E+01  0.29743605062E+02  0.41800000000E+01 0. -1.
         -5    1    3    3    0  502 -0.38972811687E+02 -0.11326034847E+03 -0.92277429924E+02  0.15125932387E+03  0.41800000000E+01 0. -1.
        -11    1    1    2    0    0  0.23185736931E+02  0.44238406485E+02 -0.19897675843E+02  0.53763672766E+02  0.00000000000E+00 0.  1.
         11    1    1    2    0    0 -0.75856851644E+01  0.51763361564E+02 -0.14952690953E+03  0.15841491374E+03  0.00000000000E+00 0. -1.
</event>
<event>
 7    1  0.2732144E-009  0.8322239E+02  0.7561462E-02  0.1320148E+00
         -2   -1    0    0    0  501 -0.00000000000E+00  0.00000000000E+00  0.73925832776E+02  0.73925832776E+02  0.00000000000E+00 0.  1.
          2   -1    0    0  501    0  0.00000000000E+00 -0.00000000000E+00 -0.16839827714E+03  0.16839827714E+03  0.00000000000E+00 0. -1.
         25    2    1    2    0    0  0.13243836375E+02 -0.54666386854E+01 -0.27586751776E+02  0.12888399372E+03  0.12507906149E+03 0.  0.
          5    1    3    3  502    0 -0.11903898210E+02 -0.43378180029E+02 -0.58359127006E+02  0.73801283187E+02  0.41800000000E+01 0.  1.
         -5    1    3    3    0  502  0.25147734585E+02  0.37911541344E+02  0.30772375230E+02  0.55082710528E+02  0.41800000000E+01 0.  1.
        -11    1    1    2    0    0 -0.44076811478E+02  0.73841225323E+01 -0.59032462569E+01  0.45079251236E+02  0.00000000000E+00 0.  1.
         11    1    1    2    0    0  0.30832975103E+02 -0.19174838470E+01 -0.60982446330E+02  0.68360864962E+02  0.00000000000E+00 0. -1.
</event>
<event>
 7    1  0.2732144E-009  0.1244221E+03  0.7561462E-02  0.1235975E+00
          2   -1    0    0  501    0  0.00000000000E+00  0.00000000000E+00  0.15033940678E+03  0.15033940678E+03  0.00000000000E+00 0. -1.
         -2   -1    0    0    0  501 -0.00000000000E+00 -0.00000000000E+00 -0.15576026168E+03  0.15576026168E+03  0.00000000000E+00 0.  1.
         25    2    1    2    0    0 -0.10028022568E+03 -0.15240311447E+01 -0.39019471439E+02  0.16501528438E+03  0.12509627730E+03 0.  0.
          5    1    3    3  502    0 -0.45606448738E+02 -0.36913340837E+02  0.33307338393E+02  0.67597293504E+02  0.41800000000E+01 0.  1.
         -5    1    3    3    0  502 -0.54673776942E+02  0.35389309692E+02 -0.72326809833E+02  0.97417990875E+02  0.41800000000E+01 0.  1.
        -11    1    1    2    0    0 -0.10750045685E+02 -0.78858587988E+01  0.26216493806E+02  0.29411813931E+02  0.00000000000E+00 0. -1.
         11    1    1    2    0    0  0.11103027136E+03  0.94098899435E+01  0.73821227361E+01  0.11167257015E+03  0.00000000000E+00 0.  1.
</event>
<event>
 7    1  0.2732144E-009  0.8743741E+02  0.7561462E-02  0.1309179E+00
          1   -1    0    0  501    0  0.00000000000E+00  0.00000000000E+00  0.15676795212E+03  0.15676795212E+03  0.00000000000E+00 0. -1.
         -1   -1    0    0    0  501 -0.00000000000E+00 -0.00000000000E+00 -0.89541749804E+02  0.89541749804E+02  0.00000000000E+00 0.  1.
         25    2    1    2    0    0 -0.31863606576E+01  0.48936744421E+02  0.47358034285E+02  0.14245984466E+03  0.12508823318E+03 0.  0.
          5    1    3    3  502    0  0.25544457889E+02  0.20274149290E+02  0.82375426510E+02  0.88694665854E+02  0.41800000000E+01 0.  1.
         -5    1    3    3    0  502 -0.28730818546E+02  0.28662595131E+02 -0.35017392226E+02  0.53765178808E+02  0.41800000000E+01 0.  1.
        -11    1    1    2    0    0  0.24317868931E+02 -0.68322472971E+02  0.85616562576E+01  0.73024797295E+02  0.00000000000E+00 0.  1.
         11    1    1    2    0    0 -0.21131508274E+02  0.19385728549E+02  0.11306511771E+02  0.30825059963E+02  0.00000000000E+00 0. -1.
</event>
<event>
 7    1  0.2732144E-009  0.1215562E+03  0.7561462E-02  0.1240552E+00
          1   -1    0    0  501    0  0.00000000000E+00  0.00000000000E+00  0.51086514827E+03  0.51086514827E+03  0.00000000000E+00 0. -1.
         -1   -1    0    0    0  501 -0.00000000000E+00 -0.00000000000E+00 -0.32505333646E+02  0.32505333646E+02  0.00000000000E+00 0.  1.
         25    2    1    2    0    0 -0.33706991698E+02 -0.61024569805E+02  0.26380183791E+03  0.30016716303E+03  0.12509499056E+03 0.  0.
          5    1    3    3  502    0 -0.44089764812E+02 -0.96397267841E+02  0.19783918999E+03  0.22448643190E+03  0.41800000000E+01 0.  1.
         -5    1    3    3    0  502  0.10382773114E+02  0.35372698036E+02  0.65962647920E+02  0.75680731131E+02  0.41800000000E+01 0.  1.
        -11    1    1    2    0    0  0.54359235290E+02  0.28440914447E+02  0.67697577609E+02  0.91360681313E+02  0.00000000000E+00 0.  1.
         11    1    1    2    0    0 -0.20652243592E+02  0.32583655358E+02  0.14686039910E+03  0.15184263758E+03  0.00000000000E+00 0. -1.
</event>
<event>
 7    1  0.2732144E-009  0.1271164E+03  0.7561462E-02  0.1231798E+00
          3   -1    0    0  501    0  0.00000000000E+00  0.00000000000E+00  0.20076687584E+03  0.20076687584E+03  0.00000000000E+00 0. -1.
         -3   -1    0    0    0  501 -0.00000000000E+00 -0.00000000000E+00 -0.13584299797E+03  0.13584299797E+03  0.00000000000E+00 0.  1.
         25    2    1    2    0    0 -0.61633829565E+02 -0.75514455051E+02  0.10232472522E+03  0.18873174348E+03  0.12509260464E+03 0.  0.
          5    1    3    3  502    0 -0.54278159363E+02  0.10378433855E+02  0.83783874351E+02  0.10045417102E+03  0.41800000000E+01 0.  1.
         -5    1    3    3    0  502 -0.73556702018E+01 -0.85892888906E+02  0.18540850868E+02  0.88277572461E+02  0.41800000000E+01 0.  1.
        -11    1    1    2    0    0 -0.46832813159E+01  0.33879133680E+02 -0.57620229489E+02  0.67006116654E+02  0.00000000000E+00 0.  1.
         11    1    1    2    0    0  0.66317110881E+02  0.41635321371E+02  0.20219382142E+02  0.80872013673E+02  0.00000000000E+00 0. -1.
</event>
<event>
 7    1  0.2732144E-009  0.1060391E+03  0.7561462E-02  0.1268086E+00
         -1   -1    0    0    0  501 -0.00000000000E+00  0.00000000000E+00  0.15640669741E+03  0.15640669741E+03  0.00000000000E+00 0.  1.
          1   -1    0    0  501    0  0.00000000000E+00 -0.00000000000E+00 -0.81706152065E+02  0.81706152065E+02  0.00000000000E+00 0. -1.
         25    2    1    2    0    0 -0.41782726148E+01  0.11113885394E+02  0.78574404293E+01  0.12594325964E+03  0.12513588162E+03 0.  0.
          5    1    3    3  502    0  0.39968948265E+02  0.49272495195E+02  0.19059688830E+02  0.66378006496E+02  0.41800000000E+01 0.  1.
         -5    1    3    3    0  502 -0.44147220880E+02 -0.38158609801E+02 -0.11202248400E+02  0.59565253148E+02  0.41800000000E+01 0.  1.
        -11    1    1    2    0    0 -0.27713009544E+02  0.28087599018E+02  0.31728789383E+02  0.50632402593E+02  0.00000000000E+00 0. -1.
         11    1    1    2    0    0  0.31891282159E+02 -0.39201484412E+02  0.35114315530E+02  0.61537187237E+02  0.00000000000E+00 0.  1.
</event>
<event>
 7    1  0.2732144E-009  0.9591695E+02  0.7561462E-02  0.1289124E+00
         -1   -1    0    0    0  501 -0.00000000000E+00  0.00000000000E+00  0.40221999329E+03  0.40221999329E+03  0.00000000000E+00 0.  1.
          1   -1    0    0  501    0  0.00000000000E+00 -0.00000000000E+00 -0.40415713395E+02  0.40415713395E+02  0.00000000000E+00 0. -1.
         25    2    1    2    0    0 -0.53919016490E+02 -0.16012079351E+02  0.13540312137E+03  0.19273193367E+03  0.12509175015E+03 0.  0.
          5    1    3    3  502    0 -0.12955101903E+02 -0.40957053591E+02  0.13792750732E+03  0.14452260924E+03  0.41800000000E+01 0. -1.
         -5    1    3    3    0  502 -0.40963914587E+02  0.24944974240E+02 -0.25243859527E+01  0.48209324436E+02  0.41800000000E+01 0. -1.
        -11    1    1    2    0    0  0.11051951306E+02  0.46585078454E+02  0.69432388743E+02  0.84339621583E+02  0.00000000000E+00 0. -1.
         11    1    1    2    0    0  0.42867065184E+02 -0.30572999103E+02  0.15696876979E+03  0.16556415143E+03  0.00000000000E+00 0.  1.
</event>
<event>
 7    1  0.2732144E-009  0.1129638E+03  0.7561462E-02  0.1255178E+00
         -1   -1    0    0    0  501 -0.00000000000E+00  0.00000000000E+00  0.48724465279E+02  0.48724465279E+02  0.00000000000E+00 0.  1.
          1   -1    0    0  501    0  0.00000000000E+00 -0.00000000000E+00 -0.35661076823E+03  0.35661076823E+03  0.00000000000E+00 0. -1.
         25    2    1    2    0    0  0.51908081585E+02 -0.13728073666E+02 -0.90171364613E+02  0.16328218260E+03  0.12508911710E+03 0.  0.
          5    1    3    3  502    0  0.60584872360E+02  0.43263673117E+02 -0.31568412843E+02  0.80971039637E+02  0.41800000000E+01 0. -1.
         -5    1    3    3    0  502 -0.86767907748E+01 -0.56991746783E+02 -0.58602951770E+02  0.82311142962E+02  0.41800000000E+01 0. -1.
        -11    1    1    2    0    0 -0.60450198273E+02 -0.16083263168E+02 -0.83671838473E+02  0.10446949018E+03  0.00000000000E+00 0.  1.
         11    1    1    2    0    0  0.85421166878E+01  0.29811336833E+02 -0.13404309986E+03  0.13758356073E+03  0.00000000000E+00 0. -1.
</event>
<event>
 7    1  0.2732144E-009  0.1537420E+03  0.7561462E-02  0.1195949E+00
         -1   -1    0    0    0  501 -0.00000000000E+00  0.00000000000E+00  0.81817337608E+03  0.81817337608E+03  0.00000000000E+00 0.  1.
          1   -1    0    0  501    0  0.00000000000E+00 -0.00000000000E+00 -0.93637523092E+02  0.93637523092E+02  0.00000000000E+00 0. -1.
         25    2    1    2    0    0 -0.31545291924E+02 -0.14387504962E+03  0.71530580114E+03  0.74094975262E+03  0.12509600876E+03 0.  0.
          5    1    3    3  502    0  0.35274991664E+01 -0.11312420224E+03  0.26462977949E+03  0.28784704441E+03  0.41800000000E+01 0. -1.
         -5    1    3    3    0  502 -0.35072791090E+02 -0.30750847377E+02  0.45067602165E+03  0.45310270821E+03  0.41800000000E+01 0. -1.
        -11    1    1    2    0    0  0.28665407007E+02  0.12145328773E+03  0.41456798855E+02  0.13149628448E+03  0.00000000000E+00 0.  1.
         11    1    1    2    0    0  0.28798849166E+01  0.22421761888E+02 -0.32226747011E+02  0.39364862075E+02  0.00000000000E+00 0. -1.
</event>
<event>
 7    1  0.2732144E-009  0.1499441E+03  0.7561462E-02  0.1200542E+00
          2   -1    0    0  501    0  0.00000000000E+00  0.00000000000E+00  0.22597530372E+04  0.22597530372E+04  0.00000000000E+00 0. -1.
         -2   -1    0    0    0  501 -0.00000000000E+00 -0.00000000000E+00 -0.12396056272E+02  0.12396056272E+02  0.00000000000E+00 0.  1.
         25    2    1    2    0    0 -0.10638054496E+03 -0.61401169571E+02  0.14930150150E+04  0.15032733390E+04  0.12509985062E+03 0.  0.
          5    1    3    3  502    0 -0.75576223905E+02  0.15224327790E+02  0.41712118086E+03  0.42420643288E+03  0.41800000000E+01 0.  1.
         -5    1    3    3    0  502 -0.30804321060E+02 -0.76625497361E+02  0.10758938342E+04  0.10790669061E+04  0.41800000000E+01 0.  1.
        -11    1    1    2    0    0  0.10994348708E+03  0.38010444457E+02  0.70008809288E+03  0.70968704513E+03  0.00000000000E+00 0.  1.
         11    1    1    2    0    0 -0.35629421167E+01  0.23390725113E+02  0.54253873065E+02  0.59188709400E+02  0.00000000000E+00 0. -1.
</event>
<event>
 7    1  0.2732144E-009  0.1509490E+03  0.7561462E-02  0.1199312E+00
         -1   -1    0    0    0  501 -0.00000000000E+00  0.00000000000E+00  0.28689587274E+02  0.28689587274E+02  0.00000000000E+00 0.  1.
          1   -1    0    0  501    0  0.00000000000E+00 -0.00000000000E+00 -0.10679923584E+04  0.10679923584E+04  0.00000000000E+00 0. -1.
         25    2    1    2    0    0 -0.12740309235E+03  0.25482445216E+02 -0.41111348147E+03  0.44893461198E+03  0.12508832172E+03 0.  0.
          5    1    3    3  502    0 -0.35546184873E+02  0.45549602326E+02 -0.28906454297E+03  0.29481193995E+03  0.41800000000E+01 0. -1.
         -5    1    3    3    0  502 -0.91856907477E+02 -0.20067157111E+02 -0.12204893850E+03  0.15412267204E+03  0.41800000000E+01 0. -1.
        -11    1    1    2    0    0  0.57675390238E+02 -0.49602206603E+02 -0.21593448591E+03  0.22894220176E+03  0.00000000000E+00 0.  1.
         11    1    1    2    0    0  0.69727702112E+02  0.24119761388E+02 -0.41225480376E+03  0.41880513196E+03  0.00000000000E+00 0. -1.
</event>
<event>
 7    1  0.2732144E-009  0.8057852E+02  0.7561462E-02  0.1327418E+00
          2   -1    0    0  501    0  0.00000000000E+00  0.00000000000E+00  0.44882494720E+03  0.44882494720E+03  0.00000000000E+00 0. -1.
         -2   -1    0    0    0  501 -0.00000000000E+00 -0.00000000000E+00 -0.55683938710E+02  0.55683938710E+02  0.00000000000E+00 0.  1.
         25    2    1    2    0    0 -0.58339372614E+02 -0.54930616743E+02  0.79240223264E+02  0.16836528734E+03  0.12508797682E+03 0.  0.
          5    1    3    3  502    0 -0.23555306429E+02 -0.19818911502E+02  0.10707325165E+03  0.11148899198E+03  0.41800000000E+01 0.  1.
         -5    1    3    3    0  502 -0.34784066186E+02 -0.35111705241E+02 -0.27833028382E+02  0.56876295364E+02  0.41800000000E+01 0.  1.
        -11    1    1    2    0    0  0.61222477698E+01  0.93580840237E+01 -0.31403354034E+01  0.11615393269E+02  0.00000000000E+00 0.  1.
         11    1    1    2    0    0  0.52217124845E+02  0.45572532719E+02  0.31704112063E+03  0.32452820530E+03  0.00000000000E+00 0. -1.
</event>
<event>
 7    1  0.2732144E-009  0.3216518E+03  0.7561462E-02  0.1074892E+00
          1   -1    0    0  501    0  0.00000000000E+00  0.00000000000E+00  0.92832815873E+03  0.92832815873E+03  0.00000000000E+00 0. -1.
         -1   -1    0    0    0  501 -0.00000000000E+00 -0.00000000000E+00 -0.13995812492E+03  0.13995812492E+03  0.00000000000E+00 0.  1.
         25    2    1    2    0    0 -0.66088984545E+02  0.31219455696E+03  0.21139773780E+03  0.40270811411E+03  0.12510646006E+03 0.  0.
          5    1    3    3  502    0 -0.34204958722E+02  0.13640982938E+03  0.16739386748E+03  0.21866824191E+03  0.41800000000E+01 0. -1.
         -5    1    3    3    0  502 -0.31884025823E+02  0.17578472759E+03  0.44003870323E+02  0.18403987220E+03  0.41800000000E+01 0. -1.
        -11    1    1    2    0    0  0.55092402013E+02 -0.12760580086E+03  0.32100988159E+03  0.34980817208E+03  0.00000000000E+00 0. -1.
         11    1    1    2    0    0  0.10996582532E+02 -0.18458875611E+03  0.25596241441E+03  0.31576999747E+03  0.00000000000E+00 0.  1.
</event>
<event>
 7    1  0.2732144E-009  0.1687402E+03  0.7561462E-02  0.1179168E+00
         -1   -1    0    0    0  501 -0.00000000000E+00  0.00000000000E+00  0.44678307802E+03  0.44678307802E+03  0.00000000000E+00 0.  1.
          1   -1    0    0  501    0  0.00000000000E+00 -0.00000000000E+00 -0.16598579863E+03  0.16598579863E+03  0.00000000000E+00 0. -1.
         25    2    1    2    0    0  0.14315508726E+03 -0.67140572217E+02 -0.73323802982E+02  0.21453410478E+03  0.12508903463E+03 0.  0.
          5    1    3    3  502    0  0.73126222752E+02 -0.77543568068E+02  0.75919698760E+01  0.10693717693E+03  0.41800000000E+01 0.  1.
         -5    1    3    3    0  502  0.70028864505E+02  0.10402995851E+02 -0.80915772858E+02  0.10759692785E+03  0.41800000000E+01 0.  1.
        -11    1    1    2    0    0 -0.45370226978E+02  0.94038553621E+01  0.31021725400E+02  0.55760536569E+02  0.00000000000E+00 0.  1.
         11    1    1    2    0    0 -0.97784860280E+02  0.57736716855E+02  0.32309935696E+03  0.34247423530E+03  0.00000000000E+00 0. -1.
</event>
<event>
 7    1  0.2732144E-009  0.8777931E+02  0.7561462E-02  0.1308320E+00
          1   -1    0    0  501    0  0.00000000000E+00  0.00000000000E+00  0.28905980361E+03  0.28905980361E+03  0.00000000000E+00 0. -1.
         -1   -1    0    0    0  501 -0.00000000000E+00 -0.00000000000E+00 -0.50035237550E+02  0.50035237550E+02  0.00000000000E+00 0.  1.
         25    2    1    2    0    0 -0.21766958016E+02  0.48746246684E+02  0.15547046765E+03  0.20656429002E+03  0.12509093722E+03 0.  0.
          5    1    3    3  502    0  0.93217324247E+01  0.39493328376E+02  0.16698213969E+03  0.17189277198E+03  0.41800000000E+01 0.  1.
         -5    1    3    3    0  502 -0.31088690440E+02  0.92529183081E+01 -0.11511672039E+02  0.34671518047E+02  0.41800000000E+01 0.  1.
        -11    1    1    2    0    0  0.26074955963E+02 -0.72953376765E+02  0.55949867156E+02  0.95564042112E+02  0.00000000000E+00 0.  1.
         11    1    1    2    0    0 -0.43079979470E+01  0.24207130081E+02  0.27604231248E+02  0.36966709021E+02  0.00000000000E+00 0. -1.
</event>
<event>
 7    1  0.2732144E-009  0.1456066E+03  0.7561462E-02  0.1205978E+00
          1   -1    0    0  501    0  0.00000000000E+00  0.00000000000E+00  0.66631810747E+03  0.66631810747E+03  0.00000000000E+00 0. -1.
         -1   -1    0    0    0  501 -0.00000000000E+00 -0.00000000000E+00 -0.34657471202E+02  0.34657471202E+02  0.00000000000E+00 0.  1.
         25    2    1    2    0    0  0.94249074516E+01  0.10395344097E+03  0.27752289265E+03  0.32181322381E+03  0.12509855438E+03 0.  0.
          5    1    3    3  502    0  0.64486423682E+02  0.48599011938E+02  0.17588641123E+03  0.19358167490E+03  0.41800000000E+01 0.  1.
         -5    1    3    3    0  502 -0.55061516230E+02  0.55354429027E+02  0.10163648141E+03  0.12823154891E+03  0.41800000000E+01 0.  1.
        -11    1    1    2    0    0 -0.42765596265E+02 -0.81293928294E+02  0.28124274158E+03  0.29586327702E+03  0.00000000000E+00 0.  1.
         11    1    1    2    0    0  0.33340688813E+02 -0.22659512672E+02  0.72895002044E+02  0.83299077834E+02  0.00000000000E+00 0. -1.
</event>
<event>
 7    1  0.2732144E-009  0.1304898E+03  0.7561462E-02  0.1226731E+00
         -3   -1    0    0    0  501 -0.00000000000E+00  0.00000000000E+00  0.14998007922E+03  0.14998007922E+03  0.00000000000E+00 0.  1.
          3   -1    0    0  501    0  0.00000000000E+00 -0.00000000000E+00 -0.15070185486E+03  0.15070185486E+03  0.00000000000E+00 0. -1.
         25    2    1    2    0    0  0.19289243930E+02 -0.80255830884E+02 -0.55621985072E+02  0.15985826273E+03  0.12509110927E+03 0.  0.
          5    1    3    3  502    0  0.48951842944E+02  0.11977727259E+02 -0.59995883833E+01  0.50923632419E+02  0.41800000000E+01 0.  1.
         -5    1    3    3    0  502 -0.29662599014E+02 -0.92233558143E+02 -0.49622396689E+02  0.10893463031E+03  0.41800000000E+01 0.  1.
        -11    1    1    2    0    0 -0.48598785107E+02  0.36542101892E+02  0.63019700170E+02  0.87570826958E+02  0.00000000000E+00 0.  1.
         11    1    1    2    0    0  0.29309541177E+02  0.43713728992E+02 -0.81194907434E+01  0.53252844396E+02  0.00000000000E+00 0. -1.
</event>
<event>
 7    1  0.2732144E-009  0.1026397E+03  0.7561462E-02  0.1274841E+00
         -1   -1    0    0    0  501 -0.00000000000E+00  0.00000000000E+00  0.68195467398E+02  0.68195467398E+02  0.00000000000E+00 0.  1.
          1   -1    0    0  501    0  0.00000000000E+00 -0.00000000000E+00 -0.32202906841E+03  0.32202906841E+03  0.00000000000E+00 0. -1.
         25    2    1    2    0    0 -0.70342803091E+02  0.42548137474E+02 -0.21268138126E+03  0.26007836832E+03  0.12509569849E+03 0.  0.
          5    1    3    3  502    0 -0.46543343820E+02 -0.38991218898E+01 -0.20104850689E+03  0.20644481231E+03  0.41800000000E+01 0.  1.
         -5    1    3    3    0  502 -0.23799459271E+02  0.46447259364E+02 -0.11632874370E+02  0.53633556008E+02  0.41800000000E+01 0.  1.
        -11    1    1    2    0    0  0.70414451476E+02 -0.73116208684E+01 -0.57594506057E+02  0.91262160309E+02  0.00000000000E+00 0.  1.
         11    1    1    2    0    0 -0.71648385039E-01 -0.35236516606E+02  0.16442286303E+02  0.38884007186E+02  0.00000000000E+00 0. -1.
</event>
<event>
 7    1  0.2732144E-009  0.1098544E+03  0.7561462E-02  0.1260840E+00
         -4   -1    0    0    0  501 -0.00000000000E+00  0.00000000000E+00  0.34363855949E+03  0.34363855949E+03  0.00000000000E+00 0.  1.
          4   -1    0    0  501    0  0.00000000000E+00 -0.00000000000E+00 -0.37425388112E+02  0.37425388112E+02  0.00000000000E+00 0. -1.
         25    2    1    2    0    0 -0.82363489557E+01  0.14958598650E+01  0.21123627821E+03  0.24563351751E+03  0.12507991306E+03 0.  0.
          5    1    3    3  502    0  0.37915138021E+02 -0.44966502934E+02  0.86455675938E+02  0.10464989431E+03  0.41800000000E+01 0.  1.
         -5    1    3    3    0  502 -0.46151486977E+02  0.46462362799E+02  0.12478060227E+03  0.14098362320E+03  0.41800000000E+01 0.  1.
        -11    1    1    2    0    0 -0.31190136395E+02 -0.32439579426E+02  0.33440747606E+02  0.56066340367E+02  0.00000000000E+00 0.  1.
         11    1    1    2    0    0  0.39426485350E+02  0.30943719561E+02  0.61536145563E+02  0.79364089726E+02  0.00000000000E+00 0. -1.
</event>
<event>
 7    1  0.2732144E-009  0.8948112E+02  0.7561462E-02  0.1304113E+00
         -3   -1    0    0    0  501 -0.00000000000E+00  0.00000000000E+00  0.33981651487E+02  0.33981651487E+02  0.00000000000E+00 0.  1.
          3   -1    0    0  501    0  0.00000000000E+00 -0.00000000000E+00 -0.45111666934E+03  0.45111666934E+03  0.00000000000E+00 0. -1.
         25    2    1    2    0    0 -0.48354958345E+02 -0.25667724853E+02 -0.28528410597E+03  0.31627824442E+03  0.12509145726E+03 0.  0.
          5    1    3    3  502    0 -0.36192798183E+02 -0.59430881800E+02 -0.26667947885E+03  0.27563991944E+03  0.41800000000E+01 0. -1.
         -5    1    3    3    0  502 -0.12162160162E+02  0.33763156947E+02 -0.18604627123E+02  0.40638324980E+02  0.41800000000E+01 0. -1.
        -11    1    1    2    0    0  0.98458495268E+01  0.32547711790E+02 -0.29707584113E+01  0.34133849786E+02  0.00000000000E+00 0. -1.
         11    1    1    2    0    0  0.38509108818E+02 -0.68799869367E+01 -0.12888015347E+03  0.13468622662E+03  0.00000000000E+00 0.  1.
</event>
<event>
 7    1  0.2732144E-009  0.1341617E+03  0.7561462E-02  0.1221408E+00
         -2   -1    0    0    0  501 -0.00000000000E+00  0.00000000000E+00  0.13541141520E+02  0.13541141520E+02  0.00000000000E+00 0.  1.
          2   -1    0    0  501    0  0.00000000000E+00 -0.00000000000E+00 -0.14522461507E+04  0.14522461507E+04  0.00000000000E+00 0. -1.
         25    2    1    2    0    0  0.80167203806E+01 -0.86792187533E+02 -0.85217070493E+03  0.86570370557E+03  0.12510333279E+03 0.  0.
          5    1    3    3  502    0  0.50653000642E+02 -0.95972913197E+02 -0.59612568761E+03  0.60593715381E+03  0.41800000000E+01 0. -1.
         -5    1    3    3    0  502 -0.42636280261E+02  0.91807256641E+01 -0.25604501732E+03  0.25976655176E+03  0.41800000000E+01 0. -1.
        -11    1    1    2    0    0  0.21224632692E+02 -0.30373825094E+01 -0.39423616544E+02  0.44876856695E+02  0.00000000000E+00 0.  1.
         11    1    1    2    0    0 -0.29241353072E+02  0.89829570042E+02 -0.54711068767E+03  0.55520672991E+03  0.00000000000E+00 0. -1.
</event>
<event>
 7    1  0.2879722E-009  0.9571798E+02  0.7561462E-02  0.1289567E+00
         -2   -1    0    0    0  501 -0.00000000000E+00  0.00000000000E+00  0.24798891927E+02  0.24798891927E+02  0.00000000000E+00 0.  1.
          2   -1    0    0  501    0  0.00000000000E+00 -0.00000000000E+00 -0.11030542401E+04  0.11030542401E+04  0.00000000000E+00 0. -1.
         25    2    1    2    0    0 -0.36293293849E+02  0.63940480723E+02 -0.91896983929E+03  0.93035389367E+03  0.12508882322E+03 0.  0.
          5    1    3    3  502    0 -0.10688170878E+02  0.29219534629E+02 -0.83735996919E+03  0.83794821356E+03  0.41800000000E+01 0. -1.
         -5    1    3    3    0  502 -0.25605122972E+02  0.34720946094E+02 -0.81609870101E+02  0.92405680117E+02  0.41800000000E+01 0. -1.
        -11    1    1    2    0    0  0.66866320666E+02 -0.40498516547E+02 -0.10976703043E+03  0.13475917650E+03  0.00000000000E+00 0.  1.
         11    1    1    2    0    0 -0.30573026817E+02 -0.23441964175E+02 -0.49518478456E+02  0.62740061856E+02  0.00000000000E+00 0. -1.
</event>
<event>
 7    1  0.2732144E-009  0.1251830E+03  0.7561462E-02  0.1234784E+00
          4   -1    0    0  501    0  0.00000000000E+00  0.00000000000E+00  0.15763031771E+03  0.15763031771E+03  0.00000000000E+00 0. -1.
         -4   -1    0    0    0  501 -0.00000000000E+00 -0.00000000000E+00 -0.13040269963E+03  0.13040269963E+03  0.00000000000E+00 0.  1.
         25    2    1    2    0    0 -0.64297546296E+02 -0.34122566234E+02 -0.50615831327E+02  0.15332295908E+03  0.12508974144E+03 0.  0.
          5    1    3    3  502    0  0.17033785618E+02  0.31390756937E+02 -0.29911526042E+02  0.46772868885E+02  0.41800000000E+01 0.  1.
         -5    1    3    3    0  502 -0.81331331913E+02 -0.65513323171E+02 -0.20704305285E+02  0.10655009020E+03  0.41800000000E+01 0.  1.
        -11    1    1    2    0    0  0.50335099190E+02  0.61309929067E+02  0.54297969418E+02  0.96129075183E+02  0.00000000000E+00 0.  1.
         11    1    1    2    0    0  0.13962447106E+02 -0.27187362833E+02  0.23545479987E+02  0.38580983072E+02  0.00000000000E+00 0. -1.
</event>
<event>
 7    1  0.2732144E-009  0.1192585E+03  0.7561462E-02  0.1244325E+00
          1   -1    0    0  501    0  0.00000000000E+00  0.00000000000E+00  0.12612304584E+03  0.12612304584E+03  0.00000000000E+00 0. -1.
         -1   -1    0    0    0  501 -0.00000000000E+00 -0.00000000000E+00 -0.16435180427E+03  0.16435180427E+03  0.00000000000E+00 0.  1.
         25    2    1    2    0    0  0.49372481066E+02  0.43571195988E+02 -0.88845807280E+02  0.16697489864E+03  0.12510375013E+03 0.  0.
          5    1    3    3  502    0  0.18637042865E+02 -0.35840729081E+02 -0.68006266440E+02  0.79209986132E+02  0.41800000000E+01 0. -1.
         -5    1    3    3    0  502  0.30735438201E+02  0.79411925069E+02 -0.20839540840E+02  0.87764912504E+02  0.41800000000E+01 0. -1.
        -11    1    1    2    0    0  0.11480428645E+02 -0.50145292944E+02  0.23360175679E+02  0.56498216380E+02  0.00000000000E+00 0.  1.
         11    1    1    2    0    0 -0.60852909711E+02  0.65740969569E+01  0.27256873163E+02  0.67001735095E+02  0.00000000000E+00 0. -1.
</event>
<event>
 7    1  0.2732144E-009  0.7797846E+02  0.7561462E-02  0.1334888E+00
         -3   -1    0    0    0  501 -0.00000000000E+00  0.00000000000E+00  0.44441499488E+02  0.44441499488E+02  0.00000000000E+00 0. -1.
          3   -1    0    0  501    0  0.00000000000E+00 -0.00000000000E+00 -0.34993736437E+03  0.34993736437E+03  0.00000000000E+00 0.  1.
         25    2    1    2    0    0 -0.31243542653E+02  0.37770421092E+02 -0.11098341302E+03  0.17425441092E+03  0.12507804801E+03 0.  0.
          5    1    3    3  502    0 -0.36744415493E+02  0.57825764368E+02 -0.12919511752E+03  0.14629703307E+03  0.41800000000E+01 0.  1.
         -5    1    3    3    0  502  0.55008728398E+01 -0.20055343276E+02  0.18211704494E+02  0.27957377854E+02  0.41800000000E+01 0.  1.
        -11    1    1    2    0    0  0.41785168113E+02 -0.22241092488E+02 -0.19567511850E+03  0.20131919548E+03  0.00000000000E+00 0.  1.
         11    1    1    2    0    0 -0.10541625460E+02 -0.15529328604E+02  0.11626666398E+01  0.18805257455E+02  0.00000000000E+00 0. -1.
</event>
<event>
 7    1  0.2732144E-009  0.1596779E+03  0.7561462E-02  0.1189061E+00
         -1   -1    0    0    0  501 -0.00000000000E+00  0.00000000000E+00  0.67841020260E+03  0.67841020260E+03  0.00000000000E+00 0.  1.
          1   -1    0    0  501    0  0.00000000000E+00 -0.00000000000E+00 -0.39154977506E+02  0.39154977506E+02  0.00000000000E+00 0. -1.
         25    2    1    2    0    0  0.12856229303E+02  0.11698135244E+03  0.38415955901E+03  0.42080310356E+03  0.12508703265E+03 0.  0.
          5    1    3    3  502    0 -0.29075285230E+02 -0.15127278338E+02  0.70445798835E+02  0.77809316502E+02  0.41800000000E+01 0.  1.
         -5    1    3    3    0  502  0.41931514533E+02  0.13210863078E+03  0.31371376017E+03  0.34299378706E+03  0.41800000000E+01 0.  1.
        -11    1    1    2    0    0  0.35662012272E+02 -0.76711633621E+02  0.17865791118E+03  0.19767423474E+03  0.00000000000E+00 0.  1.
         11    1    1    2    0    0 -0.48518241575E+02 -0.40269718821E+02  0.76437754910E+02  0.99087841812E+02  0.00000000000E+00 0. -1.
</event>
<event>
 7    1  0.2732144E-009  0.1353777E+03  0.7561462E-02  0.1219687E+00
         -2   -1    0    0    0  501 -0.00000000000E+00  0.00000000000E+00  0.20720766658E+03  0.20720766658E+03  0.00000000000E+00 0.  1.
          2   -1    0    0  501    0  0.00000000000E+00 -0.00000000000E+00 -0.10132767691E+03  0.10132767691E+03  0.00000000000E+00 0. -1.
         25    2    1    2    0    0 -0.23502875490E+02  0.92659247107E+02  0.66005176811E+02  0.17070864930E+03  0.12508652345E+03 0.  0.
          5    1    3    3  502    0 -0.63590685678E+02  0.91627860439E+02  0.67369867610E+02  0.13036721818E+03  0.41800000000E+01 0.  1.
         -5    1    3    3    0  502  0.40087810189E+02  0.10313866677E+01 -0.13646907984E+01  0.40341431124E+02  0.41800000000E+01 0.  1.
        -11    1    1    2    0    0  0.44443207696E+02 -0.86081643804E+02  0.54891581713E+01  0.97032875706E+02  0.00000000000E+00 0. -1.
         11    1    1    2    0    0 -0.20940332207E+02 -0.65776033025E+01  0.34385654689E+02  0.40793818484E+02  0.00000000000E+00 0.  1.
</event>
<event>
 7    1  0.2732144E-009  0.1205056E+03  0.7561462E-02  0.1242265E+00
         -2   -1    0    0    0  501 -0.00000000000E+00  0.00000000000E+00  0.11695466223E+03  0.11695466223E+03  0.00000000000E+00 0.  1.
          2   -1    0    0  501    0  0.00000000000E+00 -0.00000000000E+00 -0.18412585235E+03  0.18412585235E+03  0.00000000000E+00 0. -1.
         25    2    1    2    0    0 -0.21046762781E+01 -0.85847494720E+02  0.11624508518E+02  0.15217378629E+03  0.12509000769E+03 0.  0.
          5    1    3    3  502    0  0.39846880457E+02 -0.57227701855E+02 -0.39282440516E+02  0.80145906162E+02  0.41800000000E+01 0. -1.
         -5    1    3    3    0  502 -0.41951556735E+02 -0.28619792865E+02  0.50906949034E+02  0.72027880131E+02  0.41800000000E+01 0. -1.
        -11    1    1    2    0    0 -0.40858272390E+02  0.36733130123E+02 -0.13463157964E+02  0.56568347100E+02  0.00000000000E+00 0.  1.
         11    1    1    2    0    0  0.42962948668E+02  0.49114364597E+02 -0.65332540678E+02  0.92338381183E+02  0.00000000000E+00 0. -1.
</event>
<event>
 7    1  0.2732144E-009  0.6684122E+02  0.7561462E-02  0.1371176E+00
         -1   -1    0    0    0  501 -0.00000000000E+00  0.00000000000E+00  0.13822045263E+03  0.13822045263E+03  0.00000000000E+00 0.  1.
          1   -1    0    0  501    0  0.00000000000E+00 -0.00000000000E+00 -0.10457444242E+03  0.10457444242E+03  0.00000000000E+00 0. -1.
         25    2    1    2    0    0 -0.45304596245E+02  0.66700364882E+01  0.37170926317E+02  0.13828847655E+03  0.12508009096E+03 0.  0.
          5    1    3    3  502    0  0.12407385502E+02  0.23807879816E+02  0.66025338259E+02  0.71397311213E+02  0.41800000000E+01 0.  1.
         -5    1    3    3    0  502 -0.57711981747E+02 -0.17137843328E+02 -0.28854411942E+02  0.66891165333E+02  0.41800000000E+01 0.  1.
        -11    1    1    2    0    0  0.27513760582E+02 -0.11539784172E+01  0.44872380854E+02  0.52648544624E+02  0.00000000000E+00 0.  1.
         11    1    1    2    0    0  0.17790835663E+02 -0.55160580710E+01 -0.48397296960E+02  0.51857873879E+02  0.00000000000E+00 0. -1.
</event>
<event>
 7    1  0.2732144E-009  0.7413758E+02  0.7561462E-02  0.1346563E+00
          4   -1    0    0  501    0  0.00000000000E+00  0.00000000000E+00  0.35868360248E+03  0.35868360248E+03  0.00000000000E+00 0. -1.
         -4   -1    0    0    0  501 -0.00000000000E+00 -0.00000000000E+00 -0.40986906780E+02  0.40986906780E+02  0.00000000000E+00 0.  1.
         25    2    1    2    0    0 -0.23643281109E+02 -0.34948862056E+01  0.26399307461E+03  0.29310502963E+03  0.12508795298E+03 0.  0.
          5    1    3    3  502    0  0.24502169475E+01 -0.36086874920E+02  0.13050741383E+02  0.38678939427E+02  0.41800000000E+01 0. -1.
         -5    1    3    3    0  502 -0.26093498056E+02  0.32591988715E+02  0.25094233323E+03  0.25442609020E+03  0.41800000000E+01 0. -1.
        -11    1    1    2    0    0 -0.23028720572E+02 -0.74684773312E+00 -0.11907743279E+02  0.25935961574E+02  0.00000000000E+00 0.  1.
         11    1    1    2    0    0  0.46672001681E+02  0.42417339387E+01  0.65611364364E+02  0.80629518053E+02  0.00000000000E+00 0. -1.
</event>
<event>
 7    1  0.2732144E-009  0.9632036E+02  0.7561462E-02  0.1288230E+00
          1   -1    0    0  501    0  0.00000000000E+00  0.00000000000E+00  0.53561091659E+03  0.53561091659E+03  0.00000000000E+00 0. -1.
         -1   -1    0    0    0  501 -0.00000000000E+00 -0.00000000000E+00 -0.22006608112E+02  0.22006608112E+02  0.00000000000E+00 0.  1.
         25    2    1    2    0    0 -0.10033320808E+02 -0.29775343171E+01  0.31113470058E+03  0.33549972518E+03  0.12508289433E+03 0.  0.
          5    1    3    3  502    0 -0.65212740768E+02 -0.16185771577E+02  0.14429986338E+03  0.15923129006E+03  0.41800000000E+01 0. -1.
         -5    1    3    3    0  502  0.55179419961E+02  0.13208237260E+02  0.16683483719E+03  0.17626843512E+03  0.41800000000E+01 0. -1.
        -11    1    1    2    0    0  0.95990629816E+01 -0.32019672787E+02  0.26378253591E+02  0.42581847283E+02  0.00000000000E+00 0.  1.
         11    1    1    2    0    0  0.43425782602E+00  0.34997207104E+02  0.17609135431E+03  0.17953595224E+03  0.00000000000E+00 0. -1.
</event>
<event>
 7    1  0.2732144E-009  0.1808085E+03  0.7561462E-02  0.1167023E+00
         -2   -1    0    0    0  501 -0.00000000000E+00  0.00000000000E+00  0.10196231996E+04  0.10196231996E+04  0.00000000000E+00 0.  1.
          2   -1    0    0  501    0  0.00000000000E+00 -0.00000000000E+00 -0.34492837769E+02  0.34492837769E+02  0.00000000000E+00 0. -1.
         25    2    1    2    0    0  0.82313940850E+01 -0.14718502645E+03  0.62519194793E+03  0.65440300647E+03  0.12508850971E+03 0.  0.
          5    1    3    3  502    0 -0.48272741288E+02 -0.26897222301E+02  0.12301964151E+03  0.13492598977E+03  0.41800000000E+01 0. -1.
         -5    1    3    3    0  502  0.56504135373E+02 -0.12028780415E+03  0.50217230643E+03  0.51947701670E+03  0.41800000000E+01 0. -1.
        -11    1    1    2    0    0  0.30563396707E+02  0.12408605266E+02  0.82228178605E+02  0.88597788119E+02  0.00000000000E+00 0.  1.
         11    1    1    2    0    0 -0.38794790792E+02  0.13477642119E+03  0.27771023529E+03  0.31111524277E+03  0.00000000000E+00 0. -1.
</event>
<event>
 7    1  0.2732144E-009  0.1524046E+03  0.7561462E-02  0.1197549E+00
         -1   -1    0    0    0  501 -0.00000000000E+00  0.00000000000E+00  0.98952145500E+02  0.98952145500E+02  0.00000000000E+00 0.  1.
          1   -1    0    0  501    0  0.00000000000E+00 -0.00000000000E+00 -0.41603862941E+03  0.41603862941E+03  0.00000000000E+00 0. -1.
         25    2    1    2    0    0 -0.63248265177E+02 -0.12845753723E+03 -0.51178045953E+02  0.19690068899E+03  0.12509599122E+03 0.  0.
          5    1    3    3  502    0 -0.34264028940E+02 -0.12543225936E+03  0.84829343719E+01  0.13037142303E+03  0.41800000000E+01 0.  1.
         -5    1    3    3    0  502 -0.28984236237E+02 -0.30252778675E+01 -0.59660980325E+02  0.66529265964E+02  0.41800000000E+01 0.  1.
        -11    1    1    2    0    0  0.20364120161E+02  0.19557618577E+02 -0.74390962426E+00  0.28244490363E+02  0.00000000000E+00 0.  1.
         11    1    1    2    0    0  0.42884145016E+02  0.10889991865E+03 -0.26516452833E+03  0.28984559555E+03  0.00000000000E+00 0. -1.
</event>
<event>
 7    1  0.2732144E-009  0.1080596E+03  0.7561462E-02  0.1264206E+00
          1   -1    0    0  501    0  0.00000000000E+00  0.00000000000E+00  0.23341255135E+02  0.23341255135E+02  0.00000000000E+00 0. -1.
         -1   -1    0    0    0  501 -0.00000000000E+00 -0.00000000000E+00 -0.59701873669E+03  0.59701873669E+03  0.00000000000E+00 0.  1.
         25    2    1    2    0    0  0.27365507220E+02  0.53526845841E+00 -0.39815043708E+03  0.41823846272E+03  0.12510189306E+03 0.  0.
          5    1    3    3  502    0 -0.33925298813E+02 -0.34086287946E+02 -0.90067736908E+02  0.10218840716E+03  0.41800000000E+01 0.  1.
         -5    1    3    3    0  502  0.61290806033E+02  0.34621556404E+02 -0.30808270018E+03  0.31605005556E+03  0.41800000000E+01 0.  1.
        -11    1    1    2    0    0 -0.59438164358E+02  0.15564473439E+02 -0.13278748181E+03  0.14631357948E+03  0.00000000000E+00 0.  1.
         11    1    1    2    0    0  0.32072657138E+02 -0.16099741898E+02 -0.42739562667E+02  0.55807949631E+02  0.00000000000E+00 0. -1.
</event>
<event>
 7    1  0.2732144E-009  0.1045231E+03  0.7561462E-02  0.1271062E+00
         -1   -1    0    0    0  501 -0.00000000000E+00  0.00000000000E+00  0.11430098791E+03  0.11430098791E+03  0.00000000000E+00 0.  1.
          1   -1    0    0  501    0  0.00000000000E+00 -0.00000000000E+00 -0.16873911072E+03  0.16873911072E+03  0.00000000000E+00 0. -1.
         25    2    1    2    0    0 -0.57799384350E+02 -0.36829749796E+02  0.23591394624E+02  0.14457396632E+03  0.12509148067E+03 0.  0.
          5    1    3    3  502    0 -0.87000336954E+02 -0.17339714232E+02 -0.17340060373E+02  0.90486874261E+02  0.41800000000E+01 0. -1.
         -5    1    3    3    0  502  0.29200952604E+02 -0.19490035565E+02  0.40931454997E+02  0.54087092060E+02  0.41800000000E+01 0. -1.
        -11    1    1    2    0    0  0.19700277439E+02  0.42039811244E+02  0.52643985362E+01  0.46724303660E+02  0.00000000000E+00 0.  1.
         11    1    1    2    0    0  0.38099106911E+02 -0.52100614475E+01 -0.83293915969E+02  0.91741828656E+02  0.00000000000E+00 0. -1.
</event>
<event>
 7    1  0.2732144E-009  0.9117301E+02  0.7561462E-02  0.1300036E+00
         -1   -1    0    0    0  501 -0.00000000000E+00  0.00000000000E+00  0.23222729438E+03  0.23222729438E+03  0.00000000000E+00 0.  1.
          1   -1    0    0  501    0  0.00000000000E+00 -0.00000000000E+00 -0.53263241927E+02  0.53263241927E+02  0.00000000000E+00 0. -1.
         25    2    1    2    0    0 -0.10310589194E+02  0.27467238850E+00  0.13394797633E+03  0.18356439858E+03  0.12508974526E+03 0.  0.
          5    1    3    3  502    0 -0.57555876557E+02  0.77745440849E+01  0.12028732218E+03  0.13363994440E+03  0.41800000000E+01 0. -1.
         -5    1    3    3    0  502  0.47245287363E+02 -0.74998716964E+01  0.13660654152E+02  0.49924454182E+02  0.41800000000E+01 0. -1.
        -11    1    1    2    0    0  0.19284117386E+01 -0.37698103497E+02 -0.58758981468E+01  0.38201988929E+02  0.00000000000E+00 0. -1.
         11    1    1    2    0    0  0.83821774554E+01  0.37423431108E+02  0.50891974271E+02  0.63724148798E+02  0.00000000000E+00 0.  1.
</event>
<event>
 7    1  0.2732144E-009  0.8999298E+02  0.7561462E-02  0.1302869E+00
          1   -1    0    0  501    0  0.00000000000E+00  0.00000000000E+00  0.19671811737E+03  0.19671811737E+03  0.00000000000E+00 0. -1.
         -1   -1    0    0    0  501 -0.00000000000E+00 -0.00000000000E+00 -0.73646782881E+02  0.73646782881E+02  0.00000000000E+00 0.  1.
         25    2    1    2    0    0 -0.41522917802E+02  0.35789263368E+02  0.61827517211E+02  0.14991543126E+03  0.12508785141E+03 0.  0.
          5    1    3    3  502    0 -0.53100716128E+02  0.76350054430E+01  0.92172591090E+02  0.10672974426E+03  0.41800000000E+01 0.  1.
         -5    1    3    3    0  502  0.11577798325E+02  0.28154257925E+02 -0.30345073878E+02  0.43185687005E+02  0.41800000000E+01 0.  1.
        -11    1    1    2    0    0  0.47714263467E+01 -0.54154525496E+02  0.57599512047E+02  0.79203427509E+02  0.00000000000E+00 0. -1.
         11    1    1    2    0    0  0.36751491455E+02  0.18365262128E+02  0.36443052324E+01  0.41246041481E+02  0.00000000000E+00 0.  1.
</event>
<event>
 7    1  0.2732144E-009  0.9659296E+02  0.7561462E-02  0.1287628E+00
         -1   -1    0    0    0  501 -0.00000000000E+00  0.00000000000E+00  0.29092529305E+02  0.29092529305E+02  0.00000000000E+00 0.  1.
          1   -1    0    0  501    0  0.00000000000E+00 -0.00000000000E+00 -0.10270714728E+04  0.10270714728E+04  0.00000000000E+00 0. -1.
         25    2    1    2    0    0  0.94237792026E+01  0.32538410404E+02 -0.92262314826E+03  0.93168051018E+03  0.12509014178E+03 0.  0.
          5    1    3    3  502    0 -0.32099523924E+02  0.67688899075E+02 -0.53609198893E+03  0.54131715240E+03  0.41800000000E+01 0. -1.
         -5    1    3    3    0  502  0.41523303127E+02 -0.35150488671E+02 -0.38653115934E+03  0.39036335778E+03  0.41800000000E+01 0. -1.
        -11    1    1    2    0    0  0.14595582425E+02 -0.36442408797E+02  0.58679774026E+01  0.39692736667E+02  0.00000000000E+00 0.  1.
         11    1    1    2    0    0 -0.24019361628E+02  0.39039983938E+01 -0.81223772641E+02  0.84790755265E+02  0.00000000000E+00 0. -1.
</event>
<event>
 7    1  0.2732144E-009  0.6409122E+02  0.7561462E-02  0.1381423E+00
         -1   -1    0    0    0  501 -0.00000000000E+00  0.00000000000E+00  0.17265100948E+03  0.17265100948E+03  0.00000000000E+00 0.  1.
          1   -1    0    0  501    0  0.00000000000E+00 -0.00000000000E+00 -0.80155821355E+02  0.80155821355E+02  0.00000000000E+00 0. -1.
         25    2    1    2    0    0 -0.37811590250E+00  0.18884545009E+02  0.67831113018E+01  0.12669097858E+03  0.12509126446E+03 0.  0.
          5    1    3    3  502    0  0.10285030812E+02  0.27262391918E+02 -0.55493918357E+02  0.62817730351E+02  0.41800000000E+01 0. -1.
         -5    1    3    3    0  502 -0.10663146714E+02 -0.83778469094E+01  0.62277029659E+02  0.63873248233E+02  0.41800000000E+01 0. -1.
        -11    1    1    2    0    0  0.33940174446E+02  0.14780734080E+02  0.63821706179E+02  0.73780862837E+02  0.00000000000E+00 0.  1.
         11    1    1    2    0    0 -0.33562058544E+02 -0.33665279088E+02  0.21890370641E+02  0.52334989410E+02  0.00000000000E+00 0. -1.
</event>
<event>
 7    1  0.2732144E-009  0.2034616E+03  0.7561462E-02  0.1146851E+00
          1   -1    0    0  501    0  0.00000000000E+00  0.00000000000E+00  0.74750311551E+03  0.74750311551E+03  0.00000000000E+00 0. -1.
         -1   -1    0    0    0  501 -0.00000000000E+00 -0.00000000000E+00 -0.59819422327E+02  0.59819422327E+02  0.00000000000E+00 0.  1.
         25    2    1    2    0    0 -0.16781612958E+03  0.40718171217E+02  0.25227786491E+03  0.33032095109E+03  0.12509031454E+03 0.  0.
          5    1    3    3  502    0 -0.12463608842E+03 -0.31078089230E+02  0.16664680376E+03  0.21044864402E+03  0.41800000000E+01 0. -1.
         -5    1    3    3    0  502 -0.43180041162E+02  0.71796260447E+02  0.85631061149E+02  0.11987230707E+03  0.41800000000E+01 0. -1.
        -11    1    1    2    0    0  0.47812304635E+02 -0.55899138713E+02  0.17754870124E+03  0.19218291156E+03  0.00000000000E+00 0. -1.
         11    1    1    2    0    0  0.12000382494E+03  0.15180967496E+02  0.25785712703E+03  0.28481867519E+03  0.00000000000E+00 0.  1.
</event>
<event>
 7    1  0.2732144E-009  0.1679330E+03  0.7561462E-02  0.1180021E+00
          2   -1    0    0  501    0  0.00000000000E+00  0.00000000000E+00  0.18278079248E+04  0.18278079248E+04  0.00000000000E+00 0.  1.
         -2   -1    0    0    0  501 -0.00000000000E+00 -0.00000000000E+00 -0.21744179364E+02  0.21744179364E+02  0.00000000000E+00 0. -1.
         25    2    1    2    0    0 -0.15494783644E+03  0.36389518055E+02  0.11736916704E+04  0.11910219285E+04  0.12509223761E+03 0.  0.
          5    1    3    3  502    0 -0.46977356943E+02  0.13967812390E+02  0.79654019413E+03  0.79805746980E+03  0.41800000000E+01 0.  1.
         -5    1    3    3    0  502 -0.10797047950E+03  0.22421705665E+02  0.37715147627E+03  0.39296445868E+03  0.41800000000E+01 0.  1.
        -11    1    1    2    0    0  0.89185861709E+02 -0.58827888230E+02  0.28708734084E+03  0.30632332532E+03  0.00000000000E+00 0. -1.
         11    1    1    2    0    0  0.65761974732E+02  0.22438370175E+02  0.34528473416E+03  0.35220685033E+03  0.00000000000E+00 0.  1.
</event>
<event>
 7    1  0.3262575E-009  0.9531275E+02  0.7561462E-02  0.1290473E+00
          2   -1    0    0  501    0  0.00000000000E+00  0.00000000000E+00  0.14972939801E+03  0.14972939801E+03  0.00000000000E+00 0. -1.
         -2   -1    0    0    0  501 -0.00000000000E+00 -0.00000000000E+00 -0.87491400176E+02  0.87491400176E+02  0.00000000000E+00 0.  1.
         25    2    1    2    0    0  0.16798035799E+02  0.27196210740E+02  0.17426938419E+02  0.13027015025E+03  0.12507919882E+03 0.  0.
          5    1    3    3  502    0  0.16407017631E+02 -0.43467692784E+02 -0.19344698361E+02  0.50500696017E+02  0.41800000000E+01 0.  1.
         -5    1    3    3    0  502  0.39101816813E+00  0.70663903524E+02  0.36771636780E+02  0.79769454229E+02  0.41800000000E+01 0.  1.
        -11    1    1    2    0    0  0.25540535542E+02 -0.86468747220E+01  0.53505827483E+02  0.59916283036E+02  0.00000000000E+00 0. -1.
         11    1    1    2    0    0 -0.42338571340E+02 -0.18549336018E+02 -0.86947680702E+01  0.47034364901E+02  0.00000000000E+00 0.  1.
</event>
<event>
 7    1  0.2732144E-009  0.1228403E+03  0.7561462E-02  0.1238484E+00
          2   -1    0    0  501    0  0.00000000000E+00  0.00000000000E+00  0.65183381975E+02  0.65183381975E+02  0.00000000000E+00 0. -1.
         -2   -1    0    0    0  501 -0.00000000000E+00 -0.00000000000E+00 -0.38571465202E+03  0.38571465202E+03  0.00000000000E+00 0.  1.
         25    2    1    2    0    0 -0.16118302261E+02  0.75705159975E+02 -0.29325770203E+03  0.32808339916E+03  0.12509023178E+03 0.  0.
          5    1    3    3  502    0 -0.41504186027E+02 -0.43074552908E+01 -0.19182006305E+03  0.19635060636E+03  0.41800000000E+01 0. -1.
         -5    1    3    3    0  502  0.25385883766E+02  0.80012615265E+02 -0.10143763899E+03  0.13173279280E+03  0.41800000000E+01 0. -1.
        -11    1    1    2    0    0  0.24234794472E+02  0.15084370581E+02 -0.49888845449E+01  0.28978482844E+02  0.00000000000E+00 0.  1.
         11    1    1    2    0    0 -0.81164922111E+01 -0.90789530556E+02 -0.22284683471E+02  0.93836151998E+02  0.00000000000E+00 0. -1.
</event>
<event>
 7    1  0.2732144E-009  0.1201620E+03  0.7561462E-02  0.1242830E+00
          2   -1    0    0  501    0  0.00000000000E+00  0.00000000000E+00  0.31197300268E+03  0.31197300268E+03  0.00000000000E+00 0. -1.
         -2   -1    0    0    0  501 -0.00000000000E+00 -0.00000000000E+00 -0.82482034050E+02  0.82482034050E+02  0.00000000000E+00 0.  1.
         25    2    1    2    0    0  0.10963601053E+03  0.39586713507E+02  0.12689712502E+03  0.21292571308E+03  0.12508923318E+03 0.  0.
          5    1    3    3  502    0  0.43738619123E+02  0.31527365018E+02  0.13546108388E+03  0.14585684486E+03  0.41800000000E+01 0. -1.
         -5    1    3    3    0  502  0.65897391411E+02  0.80593484897E+01 -0.85639588523E+01  0.67068868218E+02  0.41800000000E+01 0. -1.
        -11    1    1    2    0    0 -0.64663668172E+02 -0.88818714124E+01  0.10864055146E+03  0.12674007670E+03  0.00000000000E+00 0. -1.
         11    1    1    2    0    0 -0.44972342362E+02 -0.30704842095E+02 -0.60467078514E+01  0.54789246951E+02  0.00000000000E+00 0.  1.
</event>
<event>
 7    1  0.2732144E-009  0.9911809E+02  0.7561462E-02  0.1282161E+00
          2   -1    0    0  501    0  0.00000000000E+00  0.00000000000E+00  0.34416242387E+03  0.34416242387E+03  0.00000000000E+00 0. -1.
         -2   -1    0    0    0  501 -0.00000000000E+00 -0.00000000000E+00 -0.43629995292E+02  0.43629995292E+02  0.00000000000E+00 0.  1.
         25    2    1    2    0    0  0.13731858968E+02 -0.53832136793E+02  0.21775926070E+03  0.25720548777E+03  0.12509638051E+03 0.  0.
          5    1    3    3  502    0 -0.48844712007E+02 -0.28392181085E+02  0.15452440422E+03  0.16458185118E+03  0.41800000000E+01 0. -1.
         -5    1    3    3    0  502  0.62576570975E+02 -0.25439955708E+02  0.63234856478E+02  0.92623636590E+02  0.41800000000E+01 0. -1.
        -11    1    1    2    0    0  0.14448868991E+02  0.39966610469E+02  0.47649709279E+00  0.42500903720E+02  0.00000000000E+00 0.  1.
         11    1    1    2    0    0 -0.28180727960E+02  0.13865526323E+02  0.82296670792E+02  0.88086027677E+02  0.00000000000E+00 0. -1.
</event>
<event>
 7    1  0.2732144E-009  0.1078180E+03  0.7561462E-02  0.1264665E+00
         -1   -1    0    0    0  501 -0.00000000000E+00  0.00000000000E+00  0.31484382840E+03  0.31484382840E+03  0.00000000000E+00 0.  1.
          1   -1    0    0  501    0  0.00000000000E+00 -0.00000000000E+00 -0.43425239895E+02  0.43425239895E+02  0.00000000000E+00 0. -1.
         25    2    1    2    0    0 -0.29450539015E+02 -0.94409783857E+01  0.10836416095E+03  0.16836555835E+03  0.12509078119E+03 0.  0.
          5    1    3    3  502    0  0.38558550175E+02 -0.32005347545E+02  0.19022348922E+02  0.53762684286E+02  0.41800000000E+01 0. -1.
         -5    1    3    3    0  502 -0.68009089190E+02  0.22564369160E+02  0.89341812023E+02  0.11460287406E+03  0.41800000000E+01 0. -1.
        -11    1    1    2    0    0 -0.23276768535E+02 -0.22130446484E+02  0.82870907056E+02  0.88877172835E+02  0.00000000000E+00 0.  1.
         11    1    1    2    0    0  0.52727307549E+02  0.31571424869E+02  0.80183520506E+02  0.10102633711E+03  0.00000000000E+00 0. -1.
</event>
<event>
 7    1  0.2732144E-009  0.2909650E+03  0.7561462E-02  0.1089846E+00
          1   -1    0    0  501    0  0.00000000000E+00  0.00000000000E+00  0.24770928585E+04  0.24770928585E+04  0.00000000000E+00 0. -1.
         -1   -1    0    0    0  501 -0.00000000000E+00 -0.00000000000E+00 -0.49574227047E+02  0.49574227047E+02  0.00000000000E+00 0.  1.
         25    2    1    2    0    0  0.83686592419E+02  0.27739928258E+03  0.18285062680E+04  0.18555421357E+04  0.12509051725E+03 0.  0.
          5    1    3    3  502    0  0.71114694313E+02  0.17992822745E+03  0.83277337144E+03  0.85496223739E+03  0.41800000000E+01 0. -1.
         -5    1    3    3    0  502  0.12571898106E+02  0.97471055135E+02  0.99573289651E+03  0.10005798983E+04  0.41800000000E+01 0. -1.
        -11    1    1    2    0    0 -0.60408676970E+02 -0.17854614144E+03  0.47372613936E+03  0.50984741638E+03  0.00000000000E+00 0.  1.
         11    1    1    2    0    0 -0.23277915449E+02 -0.98853141137E+02  0.12528622418E+03  0.16127753356E+03  0.00000000000E+00 0. -1.
</event>
<event>
 7    1  0.2732144E-009  0.1043749E+03  0.7561462E-02  0.1271356E+00
          1   -1    0    0  501    0  0.00000000000E+00  0.00000000000E+00  0.11093088873E+03  0.11093088873E+03  0.00000000000E+00 0.  1.
         -1   -1    0    0    0  501 -0.00000000000E+00 -0.00000000000E+00 -0.10735740083E+03  0.10735740083E+03  0.00000000000E+00 0. -1.
         25    2    1    2    0    0  0.37305612936E+02  0.20527335414E+02  0.56420599773E+00  0.13214040151E+03  0.12509071559E+03 0.  0.
          5    1    3    3  502    0 -0.27588323650E+02  0.47858274532E+02  0.20123666277E+02  0.58940346007E+02  0.41800000000E+01 0. -1.
         -5    1    3    3    0  502  0.64893936586E+02 -0.27330939118E+02 -0.19559460279E+02  0.73200055500E+02  0.41800000000E+01 0. -1.
        -11    1    1    2    0    0 -0.31823056218E+02 -0.46456220632E+02  0.13057590398E+02  0.57804740372E+02  0.00000000000E+00 0.  1.
         11    1    1    2    0    0 -0.54825567181E+01  0.25928885218E+02 -0.10048308496E+02  0.28343147680E+02  0.00000000000E+00 0. -1.
</event>
<event>
 7    1  0.2732144E-009  0.1288645E+03  0.7561462E-02  0.1229150E+00
         -1   -1    0    0    0  501 -0.00000000000E+00  0.00000000000E+00  0.15045877502E+02  0.15045877502E+02  0.00000000000E+00 0.  1.
          1   -1    0    0  501    0  0.00000000000E+00 -0.00000000000E+00 -0.13207562611E+04  0.13207562611E+04  0.00000000000E+00 0. -1.
         25    2    1    2    0    0 -0.16353249882E+02 -0.71637128205E+02 -0.96105890856E+03  0.97194805902E+03  0.12509794879E+03 0.  0.
          5    1    3    3  502    0  0.46381681117E+02 -0.62004450003E+02 -0.63725533879E+03  0.64195611328E+03  0.41800000000E+01 0. -1.
         -5    1    3    3    0  502 -0.62734930999E+02 -0.96326782017E+01 -0.32380356977E+03  0.32999194574E+03  0.41800000000E+01 0. -1.
        -11    1    1    2    0    0  0.35899025242E+02  0.85421638258E+02 -0.26891853051E+03  0.28443412655E+03  0.00000000000E+00 0. -1.
         11    1    1    2    0    0 -0.19545775360E+02 -0.13784510052E+02 -0.75732944490E+02  0.79419952990E+02  0.00000000000E+00 0.  1.
</event>
<event>
 7    1  0.2732144E-009  0.1045294E+03  0.7561462E-02  0.1271050E+00
         -2   -1    0    0    0  501 -0.00000000000E+00  0.00000000000E+00  0.16900451035E+02  0.16900451035E+02  0.00000000000E+00 0.  1.
          2   -1    0    0  501    0  0.00000000000E+00 -0.00000000000E+00 -0.77268405385E+03  0.77268405385E+03  0.00000000000E+00 0. -1.
         25    2    1    2    0    0 -0.11993816155E+02  0.27187442619E+02 -0.34382176415E+03  0.36707493604E+03  0.12509034537E+03 0.  0.
          5    1    3    3  502    0 -0.55037768750E+02 -0.13753945741E+02 -0.24650187322E+03  0.25298018285E+03  0.41800000000E+01 0.  1.
         -5    1    3    3    0  502  0.43043952594E+02  0.40941388359E+02 -0.97319890929E+02  0.11409475319E+03  0.41800000000E+01 0.  1.
        -11    1    1    2    0    0 -0.20611066036E+02 -0.49159438084E+02 -0.20306458615E+03  0.20994449872E+03  0.00000000000E+00 0.  1.
         11    1    1    2    0    0  0.32604882191E+02  0.21971995465E+02 -0.20889725252E+03  0.21256507013E+03  0.00000000000E+00 0. -1.
</event>
<event>
 7    1  0.2732144E-009  0.1508977E+03  0.7561462E-02  0.1199374E+00
          1   -1    0    0  501    0  0.00000000000E+00  0.00000000000E+00  0.45992263597E+03  0.45992263597E+03  0.00000000000E+00 0. -1.
         -1   -1    0    0    0  501 -0.00000000000E+00 -0.00000000000E+00 -0.82770878740E+02  0.82770878740E+02  0.00000000000E+00 0.  1.
         25    2    1    2    0    0 -0.11475792324E+03 -0.85863473687E+01  0.39620554919E+02  0.17452925429E+03  0.12509023113E+03 0.  0.
          5    1    3    3  502    0 -0.73751922651E+02 -0.57795593846E+02  0.54716860173E+02  0.10858675771E+03  0.41800000000E+01 0. -1.
         -5    1    3    3    0  502 -0.41006000591E+02  0.49209246477E+02 -0.15096305254E+02  0.65942496583E+02  0.41800000000E+01 0. -1.
        -11    1    1    2    0    0  0.10232628639E+03  0.40123931217E+02  0.28689335580E+03  0.30722694600E+03  0.00000000000E+00 0. -1.
         11    1    1    2    0    0  0.12431636852E+02 -0.31537583848E+02  0.50637846511E+02  0.60937314423E+02  0.00000000000E+00 0.  1.
</event>
<event>
 7    1  0.2732144E-009  0.1072918E+03  0.7561462E-02  0.1265669E+00
          1   -1    0    0  501    0  0.00000000000E+00  0.00000000000E+00  0.66258573492E+02  0.66258573492E+02  0.00000000000E+00 0. -1.
         -1   -1    0    0    0  501 -0.00000000000E+00 -0.00000000000E+00 -0.26954853264E+03  0.26954853264E+03  0.00000000000E+00 0.  1.
         25    2    1    2    0    0  0.27790053828E+02 -0.72519771786E+02 -0.12164513915E+03  0.19097572005E+03  0.12507110528E+03 0.  0.
          5    1    3    3  502    0  0.22410353428E+02  0.12691940539E+02 -0.99228814990E+02  0.10260184901E+03  0.41800000000E+01 0.  1.
         -5    1    3    3    0  502  0.53797004003E+01 -0.85211712325E+02 -0.22416324165E+02  0.88373871042E+02  0.41800000000E+01 0.  1.
        -11    1    1    2    0    0 -0.47341948373E+02  0.29571352242E+02 -0.66338888801E+01  0.56211506214E+02  0.00000000000E+00 0. -1.
         11    1    1    2    0    0  0.19551894545E+02  0.42948419544E+02 -0.75010931114E+02  0.88619879870E+02  0.00000000000E+00 0.  1.
</event>
<event>
 7    1  0.2732144E-009  0.1243929E+03  0.7561462E-02  0.1236021E+00
          2   -1    0    0  501    0  0.00000000000E+00  0.00000000000E+00  0.50962594318E+03  0.50962594318E+03  0.00000000000E+00 0.  1.
         -2   -1    0    0    0  501 -0.00000000000E+00 -0.00000000000E+00 -0.47177217436E+02  0.47177217436E+02  0.00000000000E+00 0. -1.
         25    2    1    2    0    0  0.23116234814E+02  0.56328403311E+02  0.89801612511E+02  0.16558633003E+03  0.12508898334E+03 0.  0.
          5    1    3    3  502    0  0.31666895549E+02  0.92150689642E+02  0.44916486852E+02  0.10737553290E+03  0.41800000000E+01 0. -1.
         -5    1    3    3    0  502 -0.85506607355E+01 -0.35822286332E+02  0.44885125659E+02  0.58210797130E+02  0.41800000000E+01 0. -1.
        -11    1    1    2    0    0  0.30997892663E+02 -0.51176611343E+02  0.25005262742E+03  0.25711132098E+03  0.00000000000E+00 0.  1.
         11    1    1    2    0    0 -0.54114127477E+02 -0.51517919680E+01  0.12259448582E+03  0.13410550960E+03  0.00000000000E+00 0. -1.
</event>
<event>
 7    1  0.2732144E-009  0.1091121E+03  0.7561462E-02  0.1262223E+00
          1   -1    0    0  501    0  0.00000000000E+00  0.00000000000E+00  0.29004422270E+02  0.29004422270E+02  0.00000000000E+00 0. -1.
         -1   -1    0    0    0  501 -0.00000000000E+00 -0.00000000000E+00 -0.60651220091E+03  0.60651220091E+03  0.00000000000E+00 0.  1.
         25    2    1    2    0    0 -0.16583451980E+02  0.56959884782E+02 -0.43522154678E+03  0.45671085777E+03  0.12509026128E+03 0.  0.
          5    1    3    3  502    0 -0.54653384998E+02  0.63486534664E+02 -0.38028491082E+03  0.38942472748E+03  0.41800000000E+01 0.  1.
         -5    1    3    3    0  502  0.38069933019E+02 -0.65266498818E+01 -0.54936635967E+02  0.67286130295E+02  0.41800000000E+01 0.  1.
        -11    1    1    2    0    0 -0.16481193616E+02 -0.60068057783E+02 -0.12859047933E+03  0.14288216363E+03  0.00000000000E+00 0.  1.
         11    1    1    2    0    0  0.33064645596E+02  0.31081730016E+01 -0.13695752533E+02  0.35923601786E+02  0.00000000000E+00 0. -1.
</event>
<event>
 7    1  0.2732144E-009  0.4361585E+03  0.7561462E-02  0.1031932E+00
          1   -1    0    0  501    0  0.00000000000E+00  0.00000000000E+00  0.25487404741E+03  0.25487404741E+03  0.00000000000E+00 0. -1.
         -1   -1    0    0    0  501 -0.00000000000E+00 -0.00000000000E+00 -0.15963951930E+04  0.15963951930E+04  0.00000000000E+00 0.  1.
         25    2    1    2    0    0 -0.13353514182E+02  0.42439802090E+03 -0.13459567769E+04  0.14168760862E+04  0.12508477791E+03 0.  0.
          5    1    3    3  502    0  0.49732832069E+02  0.97140269936E+02 -0.31763255732E+03  0.33588316495E+03  0.41800000000E+01 0. -1.
         -5    1    3    3    0  502 -0.63086346251E+02  0.32725775097E+03 -0.10283242196E+04  0.10809929212E+04  0.41800000000E+01 0. -1.
        -11    1    1    2    0    0  0.37957826541E+02 -0.33258919877E+03 -0.22787334691E+02  0.33552292672E+03  0.00000000000E+00 0. -1.
         11    1    1    2    0    0 -0.24604312359E+02 -0.91808822131E+02  0.27222966045E+02  0.98870227511E+02  0.00000000000E+00 0.  1.
</event>
<event>
 7    1  0.2732144E-009  0.1100129E+03  0.7561462E-02  0.1260546E+00
         -1   -1    0    0    0  501 -0.00000000000E+00  0.00000000000E+00  0.29547057090E+03  0.29547057090E+03  0.00000000000E+00 0.  1.
          1   -1    0    0  501    0  0.00000000000E+00 -0.00000000000E+00 -0.66736178149E+02  0.66736178149E+02  0.00000000000E+00 0. -1.
         25    2    1    2    0    0 -0.74160542394E+02  0.25707540733E+01  0.18594817868E+03  0.23607149777E+03  0.12508649839E+03 0.  0.
          5    1    3    3  502    0 -0.59413755256E+02  0.38278867679E+02  0.18401391190E+03  0.19716454600E+03  0.41800000000E+01 0.  1.
         -5    1    3    3    0  502 -0.14746787137E+02 -0.35708113606E+02  0.19342667749E+01  0.38906951771E+02  0.41800000000E+01 0.  1.
        -11    1    1    2    0    0  0.44286968954E+02 -0.41907415191E+02  0.28470437809E+00  0.60972519414E+02  0.00000000000E+00 0.  1.
         11    1    1    2    0    0  0.29873573439E+02  0.39336661118E+02  0.42501509697E+02  0.65162731867E+02  0.00000000000E+00 0. -1.
</event>
<event>
 7    1  0.2732144E-009  0.1218395E+03  0.7561462E-02  0.1240093E+00
          3   -1    0    0  501    0  0.00000000000E+00  0.00000000000E+00  0.39638201407E+03  0.39638201407E+03  0.00000000000E+00 0. -1.
         -3   -1    0    0    0  501 -0.00000000000E+00 -0.00000000000E+00 -0.38260587767E+02  0.38260587767E+02  0.00000000000E+00 0.  1.
         25    2    1    2    0    0 -0.56746087718E+02 -0.11911370575E+01  0.18086082458E+03  0.22711089272E+03  0.12508869830E+03 0.  0.
          5    1    3    3  502    0 -0.10900728382E+02 -0.60871343059E+02  0.80232308756E+02  0.10138462434E+03  0.41800000000E+01 0. -1.
         -5    1    3    3    0  502 -0.45845359336E+02  0.59680206001E+02  0.10062851583E+03  0.12572626837E+03  0.41800000000E+01 0. -1.
        -11    1    1    2    0    0 -0.23650862043E+02 -0.89588152135E+01  0.58776122109E+02  0.63986374922E+02  0.00000000000E+00 0.  1.
         11    1    1    2    0    0  0.80396949762E+02  0.10149952271E+02  0.11848447961E+03  0.14354533420E+03  0.00000000000E+00 0. -1.
</event>
<event>
 7    1  0.2732144E-009  0.1568131E+03  0.7561462E-02  0.1192342E+00
         -2   -1    0    0    0  501 -0.00000000000E+00  0.00000000000E+00  0.74582386241E+02  0.74582386241E+02  0.00000000000E+00 0.  1.
          2   -1    0    0  501    0  0.00000000000E+00 -0.00000000000E+00 -0.41384678803E+03  0.41384678803E+03  0.00000000000E+00 0. -1.
         25    2    1    2    0    0 -0.11485936352E+03 -0.58519285837E+01 -0.28421966704E+03  0.33114326234E+03  0.12509245622E+03 0.  0.
          5    1    3    3  502    0 -0.43043020451E+01 -0.47775301133E+02 -0.54332858396E+02  0.72598473234E+02  0.41800000000E+01 0. -1.
         -5    1    3    3    0  502 -0.11055506147E+03  0.41923372550E+02 -0.22988680865E+03  0.25854478911E+03  0.41800000000E+01 0. -1.
        -11    1    1    2    0    0  0.54321517287E+02 -0.43074931444E+02 -0.29757370143E+02  0.75443873423E+02  0.00000000000E+00 0.  1.
         11    1    1    2    0    0  0.60537846232E+02  0.48926860028E+02 -0.25287364601E+02  0.81842038507E+02  0.00000000000E+00 0. -1.
</event>
<event>
 7    1  0.2732144E-009  0.1119136E+03  0.7561462E-02  0.1257067E+00
          1   -1    0    0  501    0  0.00000000000E+00  0.00000000000E+00  0.16084681066E+04  0.16084681066E+04  0.00000000000E+00 0. -1.
         -1   -1    0    0    0  501 -0.00000000000E+00 -0.00000000000E+00 -0.92884134533E+01  0.92884134533E+01  0.00000000000E+00 0.  1.
         25    2    1    2    0    0  0.79540997953E+00  0.44595295493E+02  0.11331793963E+04  0.11409356266E+04  0.12509670963E+03 0.  0.
          5    1    3    3  502    0  0.57468618180E+02  0.17907540014E+02  0.34306531343E+03  0.34833116964E+03  0.41800000000E+01 0. -1.
         -5    1    3    3    0  502 -0.56673208201E+02  0.26687755478E+02  0.79011408291E+03  0.79260445698E+03  0.41800000000E+01 0. -1.
        -11    1    1    2    0    0 -0.34810182889E+02 -0.55039954899E+02  0.28344473608E+03  0.29082995699E+03  0.00000000000E+00 0.  1.
         11    1    1    2    0    0  0.34014772910E+02  0.10444659407E+02  0.18255556070E+03  0.18599093641E+03  0.00000000000E+00 0. -1.
</event>
<event>
 7    1  0.2732144E-009  0.8512546E+02  0.7561462E-02  0.1315105E+00
          1   -1    0    0  501    0  0.00000000000E+00  0.00000000000E+00  0.19896447943E+03  0.19896447943E+03  0.00000000000E+00 0. -1.
         -1   -1    0    0    0  501 -0.00000000000E+00 -0.00000000000E+00 -0.10222894498E+03  0.10222894498E+03  0.00000000000E+00 0.  1.
         25    2    1    2    0    0  0.52913780360E+02 -0.54358020011E+02 -0.48819511247E+01  0.14637591010E+03  0.12508961235E+03 0.  0.
          5    1    3    3  502    0  0.55028725389E+00  0.10267374380E+02  0.46975263959E+02  0.48268722966E+02  0.41800000000E+01 0. -1.
         -5    1    3    3    0  502  0.52363493107E+02 -0.64625394390E+02 -0.51857215084E+02  0.98107187130E+02  0.41800000000E+01 0. -1.
        -11    1    1    2    0    0 -0.24637963783E+02  0.26209184479E+02  0.10852001630E+03  0.11432648227E+03  0.00000000000E+00 0. -1.
         11    1    1    2    0    0 -0.28275816578E+02  0.28148835532E+02 -0.69025307280E+01  0.40491032037E+02  0.00000000000E+00 0.  1.
</event>
<event>
 7    1  0.2732144E-009  0.1118938E+03  0.7561462E-02  0.1257103E+00
          2   -1    0    0  501    0  0.00000000000E+00  0.00000000000E+00  0.13852661260E+04  0.13852661260E+04  0.00000000000E+00 0. -1.
         -2   -1    0    0    0  501 -0.00000000000E+00 -0.00000000000E+00 -0.12578102621E+02  0.12578102621E+02  0.00000000000E+00 0.  1.
         25    2    1    2    0    0 -0.21301117191E+02  0.73870144466E+02  0.73444466776E+03  0.74897717206E+03  0.12508916193E+03 0.  0.
          5    1    3    3  502    0 -0.46803881781E+02  0.28372486526E+02  0.11609705915E+03  0.12841962812E+03  0.41800000000E+01 0.  1.
         -5    1    3    3    0  502  0.25502764591E+02  0.45497657940E+02  0.61834760861E+03  0.62055754395E+03  0.41800000000E+01 0.  1.
        -11    1    1    2    0    0  0.52147734996E+02 -0.22813191140E+02  0.33726580692E+03  0.34203516263E+03  0.00000000000E+00 0. -1.
         11    1    1    2    0    0 -0.30846617806E+02 -0.51056953326E+02  0.30097754872E+03  0.30683189396E+03  0.00000000000E+00 0.  1.
</event>
<event>
 7    1  0.2813500E-009  0.1517713E+03  0.7561462E-02  0.1198313E+00
          3   -1    0    0  501    0  0.00000000000E+00  0.00000000000E+00  0.87964979986E+03  0.87964979986E+03  0.00000000000E+00 0. -1.
         -3   -1    0    0    0  501 -0.00000000000E+00 -0.00000000000E+00 -0.26851782650E+02  0.26851782650E+02  0.00000000000E+00 0.  1.
         25    2    1    2    0    0  0.95488521515E+02  0.48811952588E+02  0.50903664225E+03  0.53504037878E+03  0.12509691971E+03 0.  0.
          5    1    3    3  502    0  0.11237900860E+03  0.73429878054E+02  0.40221753027E+03  0.42404882103E+03  0.41800000000E+01 0.  1.
         -5    1    3    3    0  502 -0.16890487080E+02 -0.24617925466E+02  0.10681911198E+03  0.11099155775E+03  0.41800000000E+01 0.  1.
        -11    1    1    2    0    0 -0.52272041342E+02 -0.72829753751E+02  0.19310217834E+03  0.21289666652E+03  0.00000000000E+00 0.  1.
         11    1    1    2    0    0 -0.43216480173E+02  0.24017801162E+02  0.15065919662E+03  0.15856453720E+03  0.00000000000E+00 0. -1.
</event>
<event>
 7    1  0.2732144E-009  0.1332170E+03  0.7561462E-02  0.1222759E+00
         -1   -1    0    0    0  501 -0.00000000000E+00  0.00000000000E+00  0.16032081830E+03  0.16032081830E+03  0.00000000000E+00 0. -1.
          1   -1    0    0  501    0  0.00000000000E+00 -0.00000000000E+00 -0.15298794676E+03  0.15298794676E+03  0.00000000000E+00 0.  1.
         25    2    1    2    0    0 -0.35542043356E+02  0.97248553514E+02 -0.41271843658E+02  0.16754498149E+03  0.12508971875E+03 0.  0.
          5    1    3    3  502    0  0.40992428800E+02  0.67035917681E+02 -0.95652210686E+01  0.79266382107E+02  0.41800000000E+01 0.  1.
         -5    1    3    3    0  502 -0.76534472156E+02  0.30212635833E+02 -0.31706622590E+02  0.88278599379E+02  0.41800000000E+01 0.  1.
        -11    1    1    2    0    0  0.19804468172E+02 -0.27697575092E+02 -0.25788711703E+02  0.42713350101E+02  0.00000000000E+00 0.  1.
         11    1    1    2    0    0  0.15737575184E+02 -0.69550978422E+02  0.74393426899E+02  0.10305043347E+03  0.00000000000E+00 0. -1.
</event>
<event>
 7    1  0.2732144E-009  0.1071676E+03  0.7561462E-02  0.1265907E+00
         -1   -1    0    0    0  501 -0.00000000000E+00  0.00000000000E+00  0.16807578325E+02  0.16807578325E+02  0.00000000000E+00 0.  1.
          1   -1    0    0  501    0  0.00000000000E+00 -0.00000000000E+00 -0.76398346392E+03  0.76398346392E+03  0.00000000000E+00 0. -1.
         25    2    1    2    0    0  0.34939135776E+02 -0.55737992922E+01 -0.46100891494E+03  0.47898681586E+03  0.12508932675E+03 0.  0.
          5    1    3    3  502    0  0.70610685917E+02 -0.39092798175E+02 -0.28013470356E+03  0.29155966863E+03  0.41800000000E+01 0. -1.
         -5    1    3    3    0  502 -0.35671550141E+02  0.33518998882E+02 -0.18087421138E+03  0.18742714723E+03  0.41800000000E+01 0. -1.
        -11    1    1    2    0    0  0.16607451977E+02 -0.20696023715E+02 -0.34235691076E+02  0.43315302172E+02  0.00000000000E+00 0.  1.
         11    1    1    2    0    0 -0.51546587754E+02  0.26269823007E+02 -0.25193127958E+03  0.25848892421E+03  0.00000000000E+00 0. -1.
</event>
<event>
 7    1  0.2732144E-009  0.1055748E+03  0.7561462E-02  0.1268991E+00
         -2   -1    0    0    0  501 -0.00000000000E+00  0.00000000000E+00  0.44682613801E+02  0.44682613801E+02  0.00000000000E+00 0.  1.
          2   -1    0    0  501    0  0.00000000000E+00 -0.00000000000E+00 -0.27852786008E+03  0.27852786008E+03  0.00000000000E+00 0. -1.
         25    2    1    2    0    0 -0.14683582221E+02 -0.57789082429E+01 -0.16574169711E+03  0.20824790796E+03  0.12509147709E+03 0.  0.
          5    1    3    3  502    0  0.31602483365E+02  0.46338316354E+02 -0.72668620295E+02  0.91892095922E+02  0.41800000000E+01 0.  1.
         -5    1    3    3    0  502 -0.46286065586E+02 -0.52117224597E+02 -0.93073076820E+02  0.11635581204E+03  0.41800000000E+01 0.  1.
        -11    1    1    2    0    0  0.12066375117E+02  0.44581449170E+02 -0.59165990096E+02  0.75058093518E+02  0.00000000000E+00 0.  1.
         11    1    1    2    0    0  0.26172071036E+01 -0.38802540927E+02 -0.89375590687E+01  0.39904472400E+02  0.00000000000E+00 0. -1.
</event>
<event>
 7    1  0.2732144E-009  0.1019794E+03  0.7561462E-02  0.1276188E+00
          2   -1    0    0  501    0  0.00000000000E+00  0.00000000000E+00  0.73371045597E+02  0.73371045597E+02  0.00000000000E+00 0. -1.
         -2   -1    0    0    0  501 -0.00000000000E+00 -0.00000000000E+00 -0.18972974245E+03  0.18972974245E+03  0.00000000000E+00 0.  1.
         25    2    1    2    0    0 -0.37936707011E+02  0.25306190976E+02 -0.65411974782E+02  0.14834299368E+03  0.12508924929E+03 0.  0.
          5    1    3    3  502    0 -0.80534267971E+02  0.36325919647E+02 -0.37490933031E+02  0.96064474263E+02  0.41800000000E+01 0.  1.
         -5    1    3    3    0  502  0.42597560961E+02 -0.11019728671E+02 -0.27921041751E+02  0.52278519415E+02  0.41800000000E+01 0.  1.
        -11    1    1    2    0    0  0.51171460608E+02 -0.27188830064E+02  0.41193369040E+01  0.58092338544E+02  0.00000000000E+00 0. -1.
         11    1    1    2    0    0 -0.13234753597E+02  0.18826390876E+01 -0.55066058976E+02  0.56665455825E+02  0.00000000000E+00 0.  1.
</event>
<event>
 7    1  0.2732144E-009  0.5747786E+02  0.7561462E-02  0.1408731E+00
         -3   -1    0    0    0  501 -0.00000000000E+00  0.00000000000E+00  0.22062588197E+03  0.22062588197E+03  0.00000000000E+00 0.  1.
          3   -1    0    0  501    0  0.00000000000E+00 -0.00000000000E+00 -0.54377071945E+02  0.54377071945E+02  0.00000000000E+00 0. -1.
         25    2    1    2    0    0  0.15528363125E+02 -0.48392809669E+01  0.87022989916E+02  0.15324522572E+03  0.12508616922E+03 0.  0.
          5    1    3    3  502    0 -0.40044042673E+01  0.49696855228E+00  0.11682727464E+03  0.11697164926E+03  0.41800000000E+01 0. -1.
         -5    1    3    3    0  502  0.19532767392E+02 -0.53362495192E+01 -0.29804284724E+02  0.36273576455E+02  0.41800000000E+01 0. -1.
        -11    1    1    2    0    0  0.20022009808E+02  0.36002108641E+02  0.54765110600E+02  0.68529191170E+02  0.00000000000E+00 0.  1.
         11    1    1    2    0    0 -0.35550372933E+02 -0.31162827674E+02  0.24460709508E+02  0.53228537027E+02  0.00000000000E+00 0. -1.
</event>
<event>
 7    1  0.2732144E-009  0.1264440E+03  0.7561462E-02  0.1232830E+00
          1   -1    0    0  501    0  0.00000000000E+00  0.00000000000E+00  0.27745320801E+03  0.27745320801E+03  0.00000000000E+00 0. -1.
         -1   -1    0    0    0  501 -0.00000000000E+00 -0.00000000000E+00 -0.63760427748E+02  0.63760427748E+02  0.00000000000E+00 0.  1.
         25    2    1    2    0    0  0.54246393200E+02 -0.53572668577E+02  0.88466603145E+02  0.17113359284E+03  0.12509062608E+03 0.  0.
          5    1    3    3  502    0  0.31557685023E+02 -0.92767712347E+02  0.75703141107E+02  0.12389581878E+03  0.41800000000E+01 0. -1.
         -5    1    3    3    0  502  0.22688708177E+02  0.39195043770E+02  0.12763462038E+02  0.47237774059E+02  0.41800000000E+01 0. -1.
        -11    1    1    2    0    0  0.88660060209E+01 -0.14187795899E+02  0.34266883051E+01  0.17077523473E+02  0.00000000000E+00 0.  1.
         11    1    1    2    0    0 -0.63112399221E+02  0.67760464476E+02  0.12179948881E+03  0.15300251944E+03  0.00000000000E+00 0. -1.
</event>
<event>
 7    1  0.2732144E-009  0.1100745E+03  0.7561462E-02  0.1260432E+00
         -2   -1    0    0    0  501 -0.00000000000E+00  0.00000000000E+00  0.12241177877E+03  0.12241177877E+03  0.00000000000E+00 0.  1.
          2   -1    0    0  501    0  0.00000000000E+00 -0.00000000000E+00 -0.11572913054E+03  0.11572913054E+03  0.00000000000E+00 0. -1.
         25    2    1    2    0    0 -0.43660491167E+01 -0.67222014991E+02 -0.30239285926E+02  0.14525909629E+03  0.12509168221E+03 0.  0.
          5    1    3    3  502    0  0.23331277035E+02  0.30762067498E+02 -0.17363778325E+02  0.42539704777E+02  0.41800000000E+01 0. -1.
         -5    1    3    3    0  502 -0.27697326151E+02 -0.97984082489E+02 -0.12875507601E+02  0.10271939151E+03  0.41800000000E+01 0. -1.
        -11    1    1    2    0    0 -0.18154910236E+02  0.19540754729E+02 -0.28611052826E+01  0.26825879007E+02  0.00000000000E+00 0. -1.
         11    1    1    2    0    0  0.22520959353E+02  0.47681260262E+02  0.39783039437E+02  0.66055934005E+02  0.00000000000E+00 0.  1.
</event>
<event>
 7    1  0.2732144E-009  0.1410898E+03  0.7561462E-02  0.1211870E+00
         -1   -1    0    0    0  501 -0.00000000000E+00  0.00000000000E+00  0.21534740362E+03  0.21534740362E+03  0.00000000000E+00 0.  1.
          1   -1    0    0  501    0  0.00000000000E+00 -0.00000000000E+00 -0.12167161895E+03  0.12167161895E+03  0.00000000000E+00 0. -1.
         25    2    1    2    0    0 -0.74074176510E+02 -0.57668662337E+02  0.12892577608E+03  0.20268652408E+03  0.12508922042E+03 0.  0.
          5    1    3    3  502    0  0.13060276907E+01 -0.77806736613E+02  0.57785879070E+02  0.97016875804E+02  0.41800000000E+01 0.  1.
         -5    1    3    3    0  502 -0.75380204201E+02  0.20138074276E+02  0.71139897008E+02  0.10566964828E+03  0.41800000000E+01 0.  1.
        -11    1    1    2    0    0  0.92905072345E+02  0.51902819590E+02 -0.17558066958E+02  0.10785889330E+03  0.00000000000E+00 0.  1.
         11    1    1    2    0    0 -0.18830895834E+02  0.57658427477E+01 -0.17691924453E+02  0.26473605182E+02  0.00000000000E+00 0. -1.
</event>
<event>
 7    1  0.2732144E-009  0.1912619E+03  0.7561462E-02  0.1157328E+00
          1   -1    0    0  501    0  0.00000000000E+00  0.00000000000E+00  0.52156814273E+03  0.52156814273E+03  0.00000000000E+00 0. -1.
         -1   -1    0    0    0  501 -0.00000000000E+00 -0.00000000000E+00 -0.91787666538E+02  0.91787666538E+02  0.00000000000E+00 0.  1.
         25    2    1    2    0    0  0.11608511185E+03  0.14972724235E+03  0.22977945295E+03  0.32302129984E+03  0.12510061093E+03 0.  0.
          5    1    3    3  502    0  0.10599620671E+03  0.11822448420E+03  0.24030640162E+03  0.28805704914E+03  0.41800000000E+01 0. -1.
         -5    1    3    3    0  502  0.10088905142E+02  0.31502758154E+02 -0.10526948672E+02  0.34964250694E+02  0.41800000000E+01 0. -1.
        -11    1    1    2    0    0 -0.10391323507E+03 -0.14187188092E+03  0.12958606759E+03  0.21844482125E+03  0.00000000000E+00 0.  1.
         11    1    1    2    0    0 -0.12171876778E+02 -0.78553614372E+01  0.70414955647E+02  0.71889688178E+02  0.00000000000E+00 0. -1.
</event>
<event>
 7    1  0.2732144E-009  0.2279630E+03  0.7561462E-02  0.1128082E+00
         -2   -1    0    0    0  501 -0.00000000000E+00  0.00000000000E+00  0.20685047389E+03  0.20685047389E+03  0.00000000000E+00 0.  1.
          2   -1    0    0  501    0  0.00000000000E+00 -0.00000000000E+00 -0.30442071106E+03  0.30442071106E+03  0.00000000000E+00 0. -1.
         25    2    1    2    0    0 -0.20660117599E+03  0.62533487275E+02 -0.10746598140E+03  0.27164648056E+03  0.12509352617E+03 0.  0.
          5    1    3    3  502    0 -0.16482996930E+03  0.40886515859E+02 -0.18449935088E+02  0.17087568131E+03  0.41800000000E+01 0. -1.
         -5    1    3    3    0  502 -0.41771206693E+02  0.21646971417E+02 -0.89016046312E+02  0.10077079925E+03  0.41800000000E+01 0. -1.
        -11    1    1    2    0    0  0.40932987529E+02 -0.60610161271E+02  0.10880317358E+02  0.73942426408E+02  0.00000000000E+00 0. -1.
         11    1    1    2    0    0  0.16566818847E+03 -0.19233260046E+01 -0.98457312066E+00  0.16568227798E+03  0.00000000000E+00 0.  1.
</event>
<event>
 7    1  0.2732144E-009  0.8713302E+02  0.7561462E-02  0.1309947E+00
         -1   -1    0    0    0  501 -0.00000000000E+00  0.00000000000E+00  0.97946184300E+01  0.97946184300E+01  0.00000000000E+00 0.  1.
          1   -1    0    0  501    0  0.00000000000E+00 -0.00000000000E+00 -0.12427741996E+04  0.12427741996E+04  0.00000000000E+00 0. -1.
         25    2    1    2    0    0 -0.75280862811E+01  0.12860251558E+02 -0.80456642036E+03  0.81436867192E+03  0.12508857216E+03 0.  0.
          5    1    3    3  502    0  0.94506690133E+01 -0.32247550828E+02 -0.67840453696E+03  0.67924915005E+03  0.41800000000E+01 0.  1.
         -5    1    3    3    0  502 -0.16978755294E+02  0.45107802387E+02 -0.12616188341E+03  0.13511952188E+03  0.41800000000E+01 0.  1.
        -11    1    1    2    0    0 -0.32583384059E+01  0.38958927957E+02 -0.17358491195E+03  0.17793295505E+03  0.00000000000E+00 0.  1.
         11    1    1    2    0    0  0.10786424687E+02 -0.51819179515E+02 -0.25482824888E+03  0.26026719108E+03  0.00000000000E+00 0. -1.
</event>
<event>
 7    1  0.2732144E-009  0.1209862E+03  0.7561462E-02  0.1241479E+00
          1   -1    0    0  501    0  0.00000000000E+00  0.00000000000E+00  0.30846936946E+03  0.30846936946E+03  0.00000000000E+00 0. -1.
         -1   -1    0    0    0  501 -0.00000000000E+00 -0.00000000000E+00 -0.11826632277E+03  0.11826632277E+03  0.00000000000E+00 0.  1.
         25    2    1    2    0    0 -0.58559146791E+02  0.12233373550E+02  0.25680023294E+03  0.29184295671E+03  0.12508845926E+03 0.  0.
          5    1    3    3  502    0 -0.69853312018E+02  0.54049894713E+02  0.21042654059E+03  0.22824915707E+03  0.41800000000E+01 0. -1.
         -5    1    3    3    0  502  0.11294165228E+02 -0.41816521163E+02  0.46373692354E+02  0.63593799642E+02  0.41800000000E+01 0. -1.
        -11    1    1    2    0    0  0.28881948440E+02 -0.52555592760E+02 -0.59229227251E+02  0.84287357515E+02  0.00000000000E+00 0.  1.
         11    1    1    2    0    0  0.29677198351E+02  0.40322219209E+02 -0.73679590035E+01  0.50605378012E+02  0.00000000000E+00 0. -1.
</event>
<event>
 7    1  0.2732144E-009  0.1124380E+03  0.7561462E-02  0.1256121E+00
         -1   -1    0    0    0  501 -0.00000000000E+00  0.00000000000E+00  0.14027630930E+02  0.14027630930E+02  0.00000000000E+00 0.  1.
          1   -1    0    0  501    0  0.00000000000E+00 -0.00000000000E+00 -0.96118691838E+03  0.96118691838E+03  0.00000000000E+00 0. -1.
         25    2    1    2    0    0  0.29654460866E+01  0.36981681702E+02 -0.54957644027E+03  0.56485243727E+03  0.12509026159E+03 0.  0.
          5    1    3    3  502    0 -0.32540840380E+02 -0.33570740121E+02 -0.28019193984E+03  0.28409663222E+03  0.41800000000E+01 0. -1.
         -5    1    3    3    0  502  0.35506286466E+02  0.70552421822E+02 -0.26938450043E+03  0.28075580506E+03  0.41800000000E+01 0. -1.
        -11    1    1    2    0    0  0.26630034959E+02 -0.57135176417E+02 -0.20477545907E+03  0.21425819887E+03  0.00000000000E+00 0.  1.
         11    1    1    2    0    0 -0.29595481045E+02  0.20153494715E+02 -0.19280738812E+03  0.19610391317E+03  0.00000000000E+00 0. -1.
</event>
<event>
 7    1  0.2732144E-009  0.1115715E+03  0.7561462E-02  0.1257687E+00
          2   -1    0    0  501    0  0.00000000000E+00  0.00000000000E+00  0.66338236342E+02  0.66338236342E+02  0.00000000000E+00 0. -1.
         -2   -1    0    0    0  501 -0.00000000000E+00 -0.00000000000E+00 -0.21254373428E+03  0.21254373428E+03  0.00000000000E+00 0.  1.
         25    2    1    2    0    0  0.23808628531E+02 -0.29043092358E+02 -0.45890817807E+02  0.13843966220E+03  0.12509684610E+03 0.  0.
          5    1    3    3  502    0  0.73529341049E+02 -0.30342782437E+01 -0.19244754373E+02  0.76181387559E+02  0.41800000000E+01 0.  1.
         -5    1    3    3    0  502 -0.49720712517E+02 -0.26008814115E+02 -0.26646063434E+02  0.62258274642E+02  0.41800000000E+01 0.  1.
        -11    1    1    2    0    0 -0.49492444215E+01 -0.30400582983E+02 -0.56086409649E+02  0.63987309783E+02  0.00000000000E+00 0.  1.
         11    1    1    2    0    0 -0.18859384110E+02  0.59443675341E+02 -0.44228270486E+02  0.76454998641E+02  0.00000000000E+00 0. -1.
</event>
<event>
 7    1  0.2732144E-009  0.9883795E+02  0.7561462E-02  0.1282759E+00
         -1   -1    0    0    0  501 -0.00000000000E+00  0.00000000000E+00  0.20473688422E+02  0.20473688422E+02  0.00000000000E+00 0.  1.
          1   -1    0    0  501    0  0.00000000000E+00 -0.00000000000E+00 -0.60869354949E+03  0.60869354949E+03  0.00000000000E+00 0. -1.
         25    2    1    2    0    0 -0.12441129569E+02 -0.22606619578E+02 -0.36708770446E+03  0.38867525085E+03  0.12509687010E+03 0.  0.
          5    1    3    3  502    0 -0.47547387398E+02 -0.57447740710E+02 -0.26228645435E+03  0.27271350076E+03  0.41800000000E+01 0. -1.
         -5    1    3    3    0  502  0.35106257829E+02  0.34841121132E+02 -0.10480125011E+03  0.11596175009E+03  0.41800000000E+01 0. -1.
        -11    1    1    2    0    0  0.47836108803E+00 -0.24623546226E+02 -0.15348741745E+02  0.29019506047E+02  0.00000000000E+00 0.  1.
         11    1    1    2    0    0  0.11962768481E+02  0.47230165804E+02 -0.20578341487E+03  0.21147248101E+03  0.00000000000E+00 0. -1.
</event>
<event>
 7    1  0.2732144E-009  0.8258143E+02  0.7561462E-02  0.1321881E+00
         -2   -1    0    0    0  501 -0.00000000000E+00  0.00000000000E+00  0.35983292500E+03  0.35983292500E+03  0.00000000000E+00 0. -1.
          2   -1    0    0  501    0  0.00000000000E+00 -0.00000000000E+00 -0.33302572212E+02  0.33302572212E+02  0.00000000000E+00 0.  1.
         25    2    1    2    0    0  0.24518348447E+01 -0.32106427938E+02  0.25245543609E+03  0.28358097790E+03  0.12509032580E+03 0.  0.
          5    1    3    3  502    0  0.25253291128E+02  0.34048206908E+02  0.17047916996E+03  0.17572031442E+03  0.41800000000E+01 0.  1.
         -5    1    3    3    0  502 -0.22801456283E+02 -0.66154634846E+02  0.81976266123E+02  0.10786066349E+03  0.41800000000E+01 0.  1.
        -11    1    1    2    0    0 -0.21890116660E+02  0.14638054822E+02  0.78722728971E+02  0.83010348228E+02  0.00000000000E+00 0. -1.
         11    1    1    2    0    0  0.19438281815E+02  0.17468373116E+02 -0.46478122752E+01  0.26544171077E+02  0.00000000000E+00 0.  1.
</event>
<event>
 7    1  0.2732144E-009  0.1058472E+03  0.7561462E-02  0.1268459E+00
         -2   -1    0    0    0  501 -0.00000000000E+00  0.00000000000E+00  0.75810475441E+02  0.75810475441E+02  0.00000000000E+00 0.  1.
          2   -1    0    0  501    0  0.00000000000E+00 -0.00000000000E+00 -0.17493695015E+03  0.17493695015E+03  0.00000000000E+00 0. -1.
         25    2    1    2    0    0 -0.31645289934E+02  0.40939788128E+01 -0.26303702555E+02  0.13174715542E+03  0.12508894098E+03 0.  0.
          5    1    3    3  502    0  0.40159947843E+02 -0.15962084160E+02 -0.36063135220E+02  0.56441400260E+02  0.41800000000E+01 0.  1.
         -5    1    3    3    0  502 -0.71805237777E+02  0.20056062972E+02  0.97594326653E+01  0.75305755159E+02  0.41800000000E+01 0.  1.
        -11    1    1    2    0    0 -0.12684583441E+02  0.33285332510E+02 -0.33816003178E+02  0.49115517795E+02  0.00000000000E+00 0. -1.
         11    1    1    2    0    0  0.44329873375E+02 -0.37379311322E+02 -0.39006768972E+02  0.69884752372E+02  0.00000000000E+00 0.  1.
</event>
<event>
 7    1  0.2732144E-009  0.1051863E+03  0.7561462E-02  0.1269753E+00
         -2   -1    0    0    0  501 -0.00000000000E+00  0.00000000000E+00  0.39888389421E+02  0.39888389421E+02  0.00000000000E+00 0.  1.
          2   -1    0    0  501    0  0.00000000000E+00 -0.00000000000E+00 -0.49258891254E+03  0.49258891254E+03  0.00000000000E+00 0. -1.
         25    2    1    2    0    0 -0.32395908170E+02 -0.59803238464E+02 -0.35810627779E+03  0.38537409090E+03  0.12508861479E+03 0.  0.
          5    1    3    3  502    0 -0.38401615033E+02 -0.73257131397E+02 -0.11463262737E+03  0.14141924549E+03  0.41800000000E+01 0.  1.
         -5    1    3    3    0  502  0.60057068635E+01  0.13453892933E+02 -0.24347365043E+03  0.24395484542E+03  0.41800000000E+01 0.  1.
        -11    1    1    2    0    0 -0.18619939008E+02  0.58300714197E+02 -0.45261534588E+02  0.76120180753E+02  0.00000000000E+00 0.  1.
         11    1    1    2    0    0  0.51015847177E+02  0.15025242663E+01 -0.49332710739E+02  0.70983030305E+02  0.00000000000E+00 0. -1.
</event>
<event>
 7    1  0.2732144E-009  0.1682831E+03  0.7561462E-02  0.1179650E+00
          2   -1    0    0  501    0  0.00000000000E+00  0.00000000000E+00  0.50300149334E+03  0.50300149334E+03  0.00000000000E+00 0. -1.
         -2   -1    0    0    0  501 -0.00000000000E+00 -0.00000000000E+00 -0.65842875038E+02  0.65842875038E+02  0.00000000000E+00 0.  1.
         25    2    1    2    0    0 -0.14555700994E+03 -0.12339313990E+02  0.25167962170E+03  0.31674758893E+03  0.12508917340E+03 0.  0.
          5    1    3    3  502    0 -0.86289405590E+02 -0.56439639565E+02  0.20430745560E+03  0.22888928163E+03  0.41800000000E+01 0. -1.
         -5    1    3    3    0  502 -0.59267604346E+02  0.44100325575E+02  0.47372166107E+02  0.87858307304E+02  0.41800000000E+01 0. -1.
        -11    1    1    2    0    0  0.67525557513E+01  0.19254100579E+02  0.65137295168E+02  0.68258220165E+02  0.00000000000E+00 0. -1.
         11    1    1    2    0    0  0.13880445418E+03 -0.69147865890E+01  0.12034170143E+03  0.18383855928E+03  0.00000000000E+00 0.  1.
</event>
<event>
 7    1  0.2732144E-009  0.7191499E+02  0.7561462E-02  0.1353700E+00
          2   -1    0    0  501    0  0.00000000000E+00  0.00000000000E+00  0.13441191659E+03  0.13441191659E+03  0.00000000000E+00 0. -1.
         -2   -1    0    0    0  501 -0.00000000000E+00 -0.00000000000E+00 -0.12084777800E+03  0.12084777800E+03  0.00000000000E+00 0.  1.
         25    2    1    2    0    0  0.17720335972E+02  0.36264083753E+02 -0.46818732637E+02  0.13952638624E+03  0.12508606898E+03 0.  0.
          5    1    3    3  502    0  0.78461122889E+01  0.33928707430E+02  0.39320733462E+02  0.52690712141E+02  0.41800000000E+01 0.  1.
         -5    1    3    3    0  502  0.98742236828E+01  0.23353763229E+01 -0.86139466099E+02  0.86835674096E+02  0.41800000000E+01 0.  1.
        -11    1    1    2    0    0  0.17059349495E+02  0.23257953298E+02  0.10728862585E+02  0.30774377153E+02  0.00000000000E+00 0. -1.
         11    1    1    2    0    0 -0.34779685466E+02 -0.59522037051E+02  0.49654008638E+02  0.84958931194E+02  0.00000000000E+00 0.  1.
</event>
<event>
 7    1  0.2732144E-009  0.1103701E+03  0.7561462E-02  0.1259886E+00
         -2   -1    0    0    0  501 -0.00000000000E+00  0.00000000000E+00  0.11672060475E+02  0.11672060475E+02  0.00000000000E+00 0.  1.
          2   -1    0    0  501    0  0.00000000000E+00 -0.00000000000E+00 -0.13636002579E+04  0.13636002579E+04  0.00000000000E+00 0. -1.
         25    2    1    2    0    0 -0.61387844115E+02  0.27031863854E+01 -0.88165627764E+03  0.89260520264E+03  0.12510188349E+03 0.  0.
          5    1    3    3  502    0 -0.55755348373E+01 -0.48108736227E+02 -0.16610072776E+03  0.17306779380E+03  0.41800000000E+01 0. -1.
         -5    1    3    3    0  502 -0.55812309278E+02  0.50811922612E+02 -0.71555554988E+03  0.71953740883E+03  0.41800000000E+01 0. -1.
        -11    1    1    2    0    0 -0.22463063685E+01  0.26447545085E+02 -0.50018034027E+02  0.56624396343E+02  0.00000000000E+00 0.  1.
         11    1    1    2    0    0  0.63634150484E+02 -0.29150731471E+02 -0.42025388578E+03  0.42604271942E+03  0.00000000000E+00 0. -1.
</event>
<event>
 7    1  0.2732144E-009  0.1460235E+03  0.7561462E-02  0.1205446E+00
         -1   -1    0    0    0  501 -0.00000000000E+00  0.00000000000E+00  0.82736450725E+02  0.82736450725E+02  0.00000000000E+00 0.  1.
          1   -1    0    0  501    0  0.00000000000E+00 -0.00000000000E+00 -0.36246849332E+03  0.36246849332E+03  0.00000000000E+00 0. -1.
         25    2    1    2    0    0  0.78970120639E+02 -0.61601552165E+02 -0.32853182406E+02  0.16357611558E+03  0.12508710090E+03 0.  0.
          5    1    3    3  502    0  0.23484455178E+02  0.37682637666E+02 -0.20533771517E+02  0.49097953004E+02  0.41800000000E+01 0. -1.
         -5    1    3    3    0  502  0.55485665461E+02 -0.99284189831E+02 -0.12319410889E+02  0.11447816258E+03  0.41800000000E+01 0. -1.
        -11    1    1    2    0    0 -0.59313271826E+02 -0.93194514126E+01 -0.13454769175E+03  0.14733634224E+03  0.00000000000E+00 0. -1.
         11    1    1    2    0    0 -0.19656848814E+02  0.70921003578E+02 -0.11233116844E+03  0.13429248623E+03  0.00000000000E+00 0.  1.
</event>
<event>
 7    1  0.2732144E-009  0.1049374E+03  0.7561462E-02  0.1270243E+00
          2   -1    0    0  501    0  0.00000000000E+00  0.00000000000E+00  0.24800228919E+03  0.24800228919E+03  0.00000000000E+00 0. -1.
         -2   -1    0    0    0  501 -0.00000000000E+00 -0.00000000000E+00 -0.82033410480E+02  0.82033410480E+02  0.00000000000E+00 0.  1.
         25    2    1    2    0    0 -0.12559204376E+02 -0.22772474404E+02 -0.12374230931E+02  0.12835900180E+03  0.12508634037E+03 0.  0.
          5    1    3    3  502    0 -0.41696155774E+02  0.36884855054E+02 -0.24106637945E+02  0.60808423197E+02  0.41800000000E+01 0. -1.
         -5    1    3    3    0  502  0.29136951398E+02 -0.59657329459E+02  0.11732407014E+02  0.67550578600E+02  0.41800000000E+01 0. -1.
        -11    1    1    2    0    0 -0.28536602650E+02 -0.14531221092E+02  0.32483649134E+02  0.45614488250E+02  0.00000000000E+00 0.  1.
         11    1    1    2    0    0  0.41095807026E+02  0.37303695496E+02  0.14585946051E+03  0.15606220962E+03  0.00000000000E+00 0. -1.
</event>
<event>
 7    1  0.2732144E-009  0.1486741E+03  0.7561462E-02  0.1202112E+00
         -2   -1    0    0    0  501 -0.00000000000E+00  0.00000000000E+00  0.23491148129E+02  0.23491148129E+02  0.00000000000E+00 0.  1.
          2   -1    0    0  501    0  0.00000000000E+00 -0.00000000000E+00 -0.12857343659E+04  0.12857343659E+04  0.00000000000E+00 0. -1.
         25    2    1    2    0    0  0.89287732273E+02 -0.88082530470E+02 -0.85545184317E+03  0.87360330854E+03  0.12511615961E+03 0.  0.
          5    1    3    3  502    0  0.71372367732E+02  0.88721617467E+01 -0.48102638755E+03  0.48639139389E+03  0.41800000000E+01 0. -1.
         -5    1    3    3    0  502  0.17915364541E+02 -0.96954692217E+02 -0.37442545562E+03  0.38721191465E+03  0.41800000000E+01 0. -1.
        -11    1    1    2    0    0 -0.22514642818E+02  0.33572971385E+02 -0.33477321365E+02  0.52486041903E+02  0.00000000000E+00 0.  1.
         11    1    1    2    0    0 -0.66773089455E+02  0.54509559084E+02 -0.37331405326E+03  0.38313616362E+03  0.00000000000E+00 0. -1.
</event>
<event>
 7    1  0.2732144E-009  0.1248224E+03  0.7561462E-02  0.1235347E+00
         -2   -1    0    0    0  501 -0.00000000000E+00  0.00000000000E+00  0.24180423557E+03  0.24180423557E+03  0.00000000000E+00 0.  1.
          2   -1    0    0  501    0  0.00000000000E+00 -0.00000000000E+00 -0.10367791180E+03  0.10367791180E+03  0.00000000000E+00 0. -1.
         25    2    1    2    0    0 -0.35399245973E+02  0.99452860346E+02  0.12532154607E+03  0.20614726503E+03  0.12508887609E+03 0.  0.
          5    1    3    3  502    0  0.14885710267E+02  0.18533239619E+02 -0.20664939666E+02  0.31773848875E+02  0.41800000000E+01 0.  1.
         -5    1    3    3    0  502 -0.50284956240E+02  0.80919620727E+02  0.14598648574E+03  0.17437341615E+03  0.41800000000E+01 0.  1.
        -11    1    1    2    0    0 -0.18754274419E+02 -0.22665316525E+01  0.20421431763E+02  0.27818965652E+02  0.00000000000E+00 0.  1.
         11    1    1    2    0    0  0.54153520392E+02 -0.97186328694E+02 -0.76166540601E+01  0.11151591669E+03  0.00000000000E+00 0. -1.
</event>
<event>
 7    1  0.2732144E-009  0.8713291E+02  0.7561462E-02  0.1309947E+00
          1   -1    0    0  501    0  0.00000000000E+00  0.00000000000E+00  0.11768381517E+02  0.11768381517E+02  0.00000000000E+00 0. -1.
         -1   -1    0    0    0  501 -0.00000000000E+00 -0.00000000000E+00 -0.10505816220E+04  0.10505816220E+04  0.00000000000E+00 0.  1.
         25    2    1    2    0    0 -0.41287516874E+01 -0.16618175175E+02 -0.68699726907E+03  0.69850265618E+03  0.12508997820E+03 0.  0.
          5    1    3    3  502    0 -0.30527320629E+02 -0.37977356613E+02 -0.63091783733E+03  0.63281038770E+03  0.41800000000E+01 0. -1.
         -5    1    3    3    0  502  0.26398568941E+02  0.21359181438E+02 -0.56079431736E+02  0.65692268477E+02  0.41800000000E+01 0. -1.
        -11    1    1    2    0    0 -0.40432201023E+02 -0.64923664751E+01 -0.12475683417E+03  0.13130567914E+03  0.00000000000E+00 0.  1.
         11    1    1    2    0    0  0.44560952711E+02  0.23110541650E+02 -0.22705913724E+03  0.23254166819E+03  0.00000000000E+00 0. -1.
</event>
<event>
 7    1  0.2732144E-009  0.9583295E+02  0.7561462E-02  0.1289311E+00
         -4   -1    0    0    0  501 -0.00000000000E+00  0.00000000000E+00  0.14528814895E+03  0.14528814895E+03  0.00000000000E+00 0. -1.
          4   -1    0    0  501    0  0.00000000000E+00 -0.00000000000E+00 -0.11298396864E+03  0.11298396864E+03  0.00000000000E+00 0.  1.
         25    2    1    2    0    0 -0.19872340956E+02 -0.12623842584E+01 -0.48132257255E+02  0.13550228105E+03  0.12509056892E+03 0.  0.
          5    1    3    3  502    0  0.15644310098E+02 -0.42294463239E+02  0.18969739208E+02  0.49100809207E+02  0.41800000000E+01 0.  1.
         -5    1    3    3    0  502 -0.35516651054E+02  0.41032078981E+02 -0.67101996463E+02  0.86401471845E+02  0.41800000000E+01 0.  1.
        -11    1    1    2    0    0 -0.35042472561E+02 -0.87733074681E+01  0.23883804205E+02  0.43305679887E+02  0.00000000000E+00 0.  1.
         11    1    1    2    0    0  0.54914813517E+02  0.10035691727E+02  0.56552633361E+02  0.79464156650E+02  0.00000000000E+00 0. -1.
</event>
<event>
 7    1  0.2767348E-009  0.1477995E+03  0.7561462E-02  0.1203203E+00
          2   -1    0    0  501    0  0.00000000000E+00  0.00000000000E+00  0.51488824649E+03  0.51488824649E+03  0.00000000000E+00 0. -1.
         -2   -1    0    0    0  501 -0.00000000000E+00 -0.00000000000E+00 -0.44514260374E+02  0.44514260374E+02  0.00000000000E+00 0.  1.
         25    2    1    2    0    0  0.39170169500E+02  0.97149315206E+02  0.23352842411E+03  0.28487796102E+03  0.12509051198E+03 0.  0.
          5    1    3    3  502    0 -0.45589891927E+02  0.33024756967E+02  0.72355570643E+02  0.91770767796E+02  0.41800000000E+01 0.  1.
         -5    1    3    3    0  502  0.84760061427E+02  0.64124558239E+02  0.16117285346E+03  0.19310719323E+03  0.41800000000E+01 0.  1.
        -11    1    1    2    0    0 -0.63744431626E+02 -0.82197163143E+02  0.14622274614E+03  0.17944586282E+03  0.00000000000E+00 0. -1.
         11    1    1    2    0    0  0.24574262126E+02 -0.14952152063E+02  0.90622815869E+02  0.95078683028E+02  0.00000000000E+00 0.  1.
</event>
<event>
 7    1  0.2732144E-009  0.1011436E+03  0.7561462E-02  0.1277909E+00
          2   -1    0    0  501    0  0.00000000000E+00  0.00000000000E+00  0.15264193327E+04  0.15264193327E+04  0.00000000000E+00 0. -1.
         -2   -1    0    0    0  501 -0.00000000000E+00 -0.00000000000E+00 -0.10043464429E+02  0.10043464429E+02  0.00000000000E+00 0.  1.
         25    2    1    2    0    0 -0.19104201866E+02 -0.17354870536E+02  0.11244209770E+04  0.11316494096E+04  0.12506674542E+03 0.  0.
          5    1    3    3  502    0 -0.54103562157E+02 -0.32898580550E+02  0.98387898099E+03  0.98592334067E+03  0.41800000000E+01 0. -1.
         -5    1    3    3    0  502  0.34999360290E+02  0.15543710014E+02  0.14054199598E+03  0.14572606897E+03  0.41800000000E+01 0. -1.
        -11    1    1    2    0    0 -0.21496077081E+02  0.45893673350E+02  0.22512109452E+03  0.23075488679E+03  0.00000000000E+00 0. -1.
         11    1    1    2    0    0  0.40600278948E+02 -0.28538802814E+02  0.16683379678E+03  0.17405850069E+03  0.00000000000E+00 0.  1.
</event>
<event>
 7    1  0.2732144E-009  0.1048855E+03  0.7561462E-02  0.1270345E+00
          1   -1    0    0  501    0  0.00000000000E+00  0.00000000000E+00  0.77959543064E+03  0.77959543064E+03  0.00000000000E+00 0. -1.
         -1   -1    0    0    0  501 -0.00000000000E+00 -0.00000000000E+00 -0.18722238767E+02  0.18722238767E+02  0.00000000000E+00 0.  1.
         25    2    1    2    0    0 -0.37560721031E+02 -0.18655583626E+02  0.53900655016E+03  0.55492416225E+03  0.12511565121E+03 0.  0.
          5    1    3    3  502    0  0.19480936255E+02 -0.44168990823E+02  0.96233694842E+02  0.10774415553E+03  0.41800000000E+01 0. -1.
         -5    1    3    3    0  502 -0.57041657286E+02  0.25513407196E+02  0.44277285531E+03  0.44718000673E+03  0.41800000000E+01 0. -1.
        -11    1    1    2    0    0  0.28199650948E+02  0.54650300189E+02  0.11790091890E+03  0.13297557032E+03  0.00000000000E+00 0.  1.
         11    1    1    2    0    0  0.93610700832E+01 -0.35994716563E+02  0.10396572281E+03  0.11041793683E+03  0.00000000000E+00 0. -1.
</event>
<event>
 7    1  0.2732144E-009  0.1869687E+03  0.7561462E-02  0.1161224E+00
         -1   -1    0    0    0  501 -0.00000000000E+00  0.00000000000E+00  0.59356674343E+02  0.59356674343E+02  0.00000000000E+00 0.  1.
          1   -1    0    0  501    0  0.00000000000E+00 -0.00000000000E+00 -0.72381996335E+03  0.72381996335E+03  0.00000000000E+00 0. -1.
         25    2    1    2    0    0  0.68772130387E+02 -0.16214057428E+03 -0.31750666149E+03  0.38402892236E+03  0.12509420997E+03 0.  0.
          5    1    3    3  502    0  0.63450562602E+02 -0.15221675448E+03 -0.32859666395E+03  0.36768077757E+03  0.41800000000E+01 0.  1.
         -5    1    3    3    0  502  0.53215677855E+01 -0.99238198042E+01  0.11090002461E+02  0.16348144781E+02  0.41800000000E+01 0.  1.
        -11    1    1    2    0    0 -0.70624794109E+02  0.17252081699E+03 -0.33334744819E+03  0.38193168898E+03  0.00000000000E+00 0. -1.
         11    1    1    2    0    0  0.18526637216E+01 -0.10380242702E+02 -0.13609179332E+02  0.17216026357E+02  0.00000000000E+00 0.  1.
</event>
<event>
 7    1  0.2732144E-009  0.1056696E+03  0.7561462E-02  0.1268806E+00
          3   -1    0    0  501    0  0.00000000000E+00  0.00000000000E+00  0.20262538219E+03  0.20262538219E+03  0.00000000000E+00 0. -1.
         -3   -1    0    0    0  501 -0.00000000000E+00 -0.00000000000E+00 -0.85142202222E+02  0.85142202222E+02  0.00000000000E+00 0.  1.
         25    2    1    2    0    0 -0.52654789628E+02  0.45038773440E+02  0.89744835510E+02  0.16882493572E+03  0.12508679161E+03 0.  0.
          5    1    3    3  502    0 -0.80868850360E+02  0.17127549532E+02  0.15032077930E+02  0.84122290022E+02  0.41800000000E+01 0. -1.
         -5    1    3    3    0  502  0.28214060733E+02  0.27911223908E+02  0.74712757580E+02  0.84702645698E+02  0.41800000000E+01 0. -1.
        -11    1    1    2    0    0 -0.10557458674E+02  0.78976043185E+00 -0.23348893588E+02  0.25636974997E+02  0.00000000000E+00 0.  1.
         11    1    1    2    0    0  0.63212248302E+02 -0.45828533872E+02  0.51087238043E+02  0.93305673692E+02  0.00000000000E+00 0. -1.
</event>
<event>
 7    1  0.2732144E-009  0.1051557E+03  0.7561462E-02  0.1269813E+00
          1   -1    0    0  501    0  0.00000000000E+00  0.00000000000E+00  0.68520567060E+03  0.68520567060E+03  0.00000000000E+00 0. -1.
         -1   -1    0    0    0  501 -0.00000000000E+00 -0.00000000000E+00 -0.22234431910E+02  0.22234431910E+02  0.00000000000E+00 0.  1.
         25    2    1    2    0    0 -0.44493263237E+02 -0.29519206830E+02  0.29523165909E+03  0.32505443564E+03  0.12509044549E+03 0.  0.
          5    1    3    3  502    0  0.19421895542E+02 -0.47752476978E+02  0.53892078964E+02  0.74694964081E+02  0.41800000000E+01 0. -1.
         -5    1    3    3    0  502 -0.63915158779E+02  0.18233270148E+02  0.24133958013E+03  0.25035947156E+03  0.41800000000E+01 0. -1.
        -11    1    1    2    0    0  0.16868828548E+02  0.53074718323E+02  0.30376678651E+03  0.30882963538E+03  0.00000000000E+00 0. -1.
         11    1    1    2    0    0  0.27624434689E+02 -0.23555511493E+02  0.63972793089E+02  0.73556031494E+02  0.00000000000E+00 0.  1.
</event>
<event>
 7    1  0.2732144E-009  0.1666931E+03  0.7561462E-02  0.1181341E+00
          2   -1    0    0  501    0  0.00000000000E+00  0.00000000000E+00  0.10978345998E+04  0.10978345998E+04  0.00000000000E+00 0. -1.
         -2   -1    0    0    0  501 -0.00000000000E+00 -0.00000000000E+00 -0.33855751660E+02  0.33855751660E+02  0.00000000000E+00 0.  1.
         25    2    1    2    0    0  0.14783835732E+03 -0.28347520609E+02  0.71219238520E+03  0.73859671536E+03  0.12508937843E+03 0.  0.
          5    1    3    3  502    0  0.10394889473E+03 -0.59108062143E+02  0.30107689729E+03  0.32398133620E+03  0.41800000000E+01 0.  1.
         -5    1    3    3    0  502  0.43889462592E+02  0.30760541534E+02  0.41111548791E+03  0.41461537917E+03  0.41800000000E+01 0.  1.
        -11    1    1    2    0    0 -0.33463113783E+02  0.30934670010E+02  0.18709620973E+03  0.19256615873E+03  0.00000000000E+00 0. -1.
         11    1    1    2    0    0 -0.11437524354E+03 -0.25871494008E+01  0.16469025322E+03  0.20052747738E+03  0.00000000000E+00 0.  1.
</event>
<event>
 7    1  0.2732144E-009  0.1259193E+03  0.7561462E-02  0.1233640E+00
         -2   -1    0    0    0  501 -0.00000000000E+00  0.00000000000E+00  0.28055149723E+03  0.28055149723E+03  0.00000000000E+00 0.  1.
          2   -1    0    0  501    0  0.00000000000E+00 -0.00000000000E+00 -0.88827703002E+02  0.88827703002E+02  0.00000000000E+00 0. -1.
         25    2    1    2    0    0  0.63522686389E+02  0.75331115682E+01  0.21178798005E+03  0.25415258307E+03  0.12508999772E+03 0.  0.
          5    1    3    3  502    0  0.10057889638E+03 -0.44925564066E+01  0.16221376247E+03  0.19096354258E+03  0.41800000000E+01 0.  1.
         -5    1    3    3    0  502 -0.37056209991E+02  0.12025667975E+02  0.49574217576E+02  0.63189040485E+02  0.41800000000E+01 0.  1.
        -11    1    1    2    0    0 -0.75216129915E+02 -0.34309767694E+02 -0.23132984104E+02  0.85847313948E+02  0.00000000000E+00 0. -1.
         11    1    1    2    0    0  0.11693443526E+02  0.26776656126E+02  0.30687982858E+01  0.29379303220E+02  0.00000000000E+00 0.  1.
</event>
<event>
 7    1  0.2732144E-009  0.1660864E+03  0.7561462E-02  0.1181992E+00
         -2   -1    0    0    0  501 -0.00000000000E+00  0.00000000000E+00  0.78242348442E+02  0.78242348442E+02  0.00000000000E+00 0.  1.
          2   -1    0    0  501    0  0.00000000000E+00 -0.00000000000E+00 -0.44715133400E+03  0.44715133400E+03  0.00000000000E+00 0. -1.
         25    2    1    2    0    0  0.64910540353E+02  0.12915153266E+03 -0.11844507065E+03  0.22487803375E+03  0.12508956256E+03 0.  0.
          5    1    3    3  502    0  0.67816434944E+02  0.15520688615E+02 -0.15353039364E+02  0.71366300460E+02  0.41800000000E+01 0.  1.
         -5    1    3    3    0  502 -0.29058945912E+01  0.11363084405E+03 -0.10309203128E+03  0.15351173329E+03  0.41800000000E+01 0.  1.
        -11    1    1    2    0    0 -0.18829572217E+01 -0.37234727333E+02 -0.13493654159E+03  0.13999228801E+03  0.00000000000E+00 0. -1.
         11    1    1    2    0    0 -0.63027583131E+02 -0.91916805332E+02 -0.11552737332E+03  0.16052336068E+03  0.00000000000E+00 0.  1.
</event>
<event>
 7    1  0.2732144E-009  0.1032960E+03  0.7561462E-02  0.1273514E+00
         -4   -1    0    0    0  501 -0.00000000000E+00  0.00000000000E+00  0.14802350004E+03  0.14802350004E+03  0.00000000000E+00 0. -1.
          4   -1    0    0  501    0  0.00000000000E+00 -0.00000000000E+00 -0.96084790319E+02  0.96084790319E+02  0.00000000000E+00 0.  1.
         25    2    1    2    0    0 -0.31039815889E+01  0.36200204509E+02  0.65282989978E+02  0.14571505339E+03  0.12510363103E+03 0.  0.
          5    1    3    3  502    0  0.48920957275E+02 -0.11457843368E+02  0.54456707547E+02  0.74212853551E+02  0.41800000000E+01 0.  1.
         -5    1    3    3    0  502 -0.52024938864E+02  0.47658047877E+02  0.10826282431E+02  0.71502199844E+02  0.41800000000E+01 0.  1.
        -11    1    1    2    0    0  0.29298431398E+02 -0.48417782945E+02 -0.30997162119E+02  0.64525218691E+02  0.00000000000E+00 0.  1.
         11    1    1    2    0    0 -0.26194449809E+02  0.12217578436E+02  0.17652881861E+02  0.33868018272E+02  0.00000000000E+00 0. -1.
</event>
<event>
 7    1  0.2732144E-009  0.1279536E+03  0.7561462E-02  0.1230524E+00
          2   -1    0    0  501    0  0.00000000000E+00  0.00000000000E+00  0.68367469303E+03  0.68367469303E+03  0.00000000000E+00 0. -1.
         -2   -1    0    0    0  501 -0.00000000000E+00 -0.00000000000E+00 -0.34958066024E+02  0.34958066024E+02  0.00000000000E+00 0.  1.
         25    2    1    2    0    0 -0.47382237668E+02  0.90462739982E+02  0.26469521202E+03  0.31006375915E+03  0.12508955073E+03 0.  0.
          5    1    3    3  502    0 -0.52376026428E+02  0.40549031901E+02  0.35226408306E+02  0.75138833999E+02  0.41800000000E+01 0.  1.
         -5    1    3    3    0  502  0.49937887601E+01  0.49913708081E+02  0.22946880371E+03  0.23492492515E+03  0.41800000000E+01 0.  1.
        -11    1    1    2    0    0  0.72836250391E+02 -0.41025704201E+02  0.24324270135E+03  0.25720660866E+03  0.00000000000E+00 0. -1.
         11    1    1    2    0    0 -0.25454012722E+02 -0.49437035781E+02  0.14077871364E+03  0.15136239125E+03  0.00000000000E+00 0.  1.
</event>
<event>
 7    1  0.2732144E-009  0.4941375E+02  0.7561462E-02  0.1448529E+00
         -2   -1    0    0    0  501 -0.00000000000E+00  0.00000000000E+00  0.14695475981E+03  0.14695475981E+03  0.00000000000E+00 0.  1.
          2   -1    0    0  501    0  0.00000000000E+00 -0.00000000000E+00 -0.11463499052E+03  0.11463499052E+03  0.00000000000E+00 0. -1.
         25    2    1    2    0    0 -0.30817555126E+02  0.30608613288E+02 -0.43214295557E+02  0.13930803957E+03  0.12511053368E+03 0.  0.
          5    1    3    3  502    0 -0.37029331595E+02  0.21475943289E+02  0.37907619409E+02  0.57331034770E+02  0.41800000000E+01 0. -1.
         -5    1    3    3    0  502  0.62117764686E+01  0.91326699993E+01 -0.81121914966E+02  0.81977004799E+02  0.41800000000E+01 0. -1.
        -11    1    1    2    0    0  0.51123338582E+01 -0.93277085124E+01 -0.19140718413E+02  0.21897698622E+02  0.00000000000E+00 0. -1.
         11    1    1    2    0    0  0.25705221268E+02 -0.21280904776E+02  0.94674783258E+02  0.10038401214E+03  0.00000000000E+00 0.  1.
</event>
<event>
 7    1  0.2732144E-009  0.1203223E+03  0.7561462E-02  0.1242566E+00
          2   -1    0    0  501    0  0.00000000000E+00  0.00000000000E+00  0.33212900001E+03  0.33212900001E+03  0.00000000000E+00 0. -1.
         -2   -1    0    0    0  501 -0.00000000000E+00 -0.00000000000E+00 -0.48174998372E+02  0.48174998372E+02  0.00000000000E+00 0.  1.
         25    2    1    2    0    0 -0.20318686067E+02 -0.56182980844E+02  0.11896064405E+03  0.18267078423E+03  0.12509038427E+03 0.  0.
          5    1    3    3  502    0 -0.47547467519E+02 -0.83157534819E+02  0.63048740046E+02  0.11475431707E+03  0.41800000000E+01 0. -1.
         -5    1    3    3    0  502  0.27228781451E+02  0.26974553975E+02  0.55911904006E+02  0.67916467156E+02  0.41800000000E+01 0. -1.
        -11    1    1    2    0    0 -0.85289308627E+00  0.76712078613E+02  0.98160200954E+02  0.12458288600E+03  0.00000000000E+00 0. -1.
         11    1    1    2    0    0  0.21171579154E+02 -0.20529097769E+02  0.66833156630E+02  0.73050328159E+02  0.00000000000E+00 0.  1.
</event>
<event>
 6    1  0.2732144E-009  0.8384689E+02  0.7561462E-02  0.1318476E+00
         -1   -1    0    0    0  501 -0.00000000000E+00  0.00000000000E+00  0.48513767119E+03  0.48513767119E+03  0.00000000000E+00 0.  1.
          1   -1    0    0  501    0  0.00000000000E+00 -0.00000000000E+00 -0.24395484218E+02  0.24395484218E+02  0.00000000000E+00 0. -1.
          5    1    1    2  502    0 -0.22144467361E+02 -0.29330309878E+02  0.14918153678E+02  0.39883182188E+02  0.41800000000E+01 0.  1.
         -5    1    1    2    0  502  0.12435306675E+02  0.41536061263E+02  0.24438298874E+03  0.24823456412E+03  0.41800000000E+01 0.  1.
        -11    1    1    2    0    0  0.15816314618E+02 -0.48153393272E+02  0.15023093279E+03  0.15855042812E+03  0.00000000000E+00 0.  1.
         11    1    1    2    0    0 -0.61071539321E+01  0.35947641888E+02  0.51210111770E+02  0.62864980982E+02  0.00000000000E+00 0. -1.
</event>
<event>
 7    1  0.2732144E-009  0.1251555E+03  0.7561462E-02  0.1234827E+00
         -3   -1    0    0    0  501 -0.00000000000E+00  0.00000000000E+00  0.29592742970E+03  0.29592742970E+03  0.00000000000E+00 0.  1.
          3   -1    0    0  501    0  0.00000000000E+00 -0.00000000000E+00 -0.90681294079E+02  0.90681294079E+02  0.00000000000E+00 0. -1.
         25    2    1    2    0    0  0.53623175393E+01 -0.84110333540E+02  0.53902807435E+01  0.15093128645E+03  0.12509154826E+03 0.  0.
          5    1    3    3  502    0 -0.39543893810E+02 -0.84447200814E+02 -0.24896471287E+02  0.96604119713E+02  0.41800000000E+01 0. -1.
         -5    1    3    3    0  502  0.44906211350E+02  0.33686727363E+00  0.30286752030E+02  0.54327166739E+02  0.41800000000E+01 0. -1.
        -11    1    1    2    0    0 -0.21973731762E+02 -0.38887728729E+01  0.95924552318E+02  0.98485974531E+02  0.00000000000E+00 0.  1.
         11    1    1    2    0    0  0.16611414223E+02  0.87999106413E+02  0.10393130256E+03  0.13719146279E+03  0.00000000000E+00 0. -1.
</event>
<event>
 6    1  0.2732144E-009  0.2933562E+03  0.7561462E-02  0.1088610E+00
         -1   -1    0    0    0  501 -0.00000000000E+00  0.00000000000E+00  0.21204989028E+03  0.21204989028E+03  0.00000000000E+00 0.  1.
          1   -1    0    0  501    0  0.00000000000E+00 -0.00000000000E+00 -0.44513793572E+03  0.44513793572E+03  0.00000000000E+00 0. -1.
          5    1    1    2  502    0  0.32268374840E+02  0.16808392913E+03 -0.11285428696E+02  0.17157589734E+03  0.41800000000E+01 0.  1.
         -5    1    1    2    0  502  0.51100261169E+02  0.10664452764E+03 -0.11855238791E+03  0.16750054641E+03  0.41800000000E+01 0.  1.
        -11    1    1    2    0    0 -0.44957976521E+01 -0.14694614793E+03 -0.75990844634E+02  0.16549317526E+03  0.00000000000E+00 0. -1.
         11    1    1    2    0    0 -0.78872838357E+02 -0.12778230884E+03 -0.27259384196E+02  0.15261820701E+03  0.00000000000E+00 0.  1.
</event>
<event>
 6    1  0.2732144E-009  0.1799872E+03  0.7561462E-02  0.1167815E+00
         -1   -1    0    0    0  501 -0.00000000000E+00  0.00000000000E+00  0.15503047347E+03  0.15503047347E+03  0.00000000000E+00 0.  1.
          1   -1    0    0  501    0  0.00000000000E+00 -0.00000000000E+00 -0.31865289692E+03  0.31865289692E+03  0.00000000000E+00 0. -1.
          5    1    1    2  502    0 -0.14090813189E+03  0.47888770741E+02 -0.11264257551E+02  0.14930770876E+03  0.41800000000E+01 0.  1.
         -5    1    1    2    0  502 -0.23619321934E+02 -0.39527494049E+02  0.36942363109E+02  0.59181971465E+02  0.41800000000E+01 0.  1.
        -11    1    1    2    0    0  0.12633166726E+03 -0.37984563567E+01 -0.80634995747E+02  0.14992038208E+03  0.00000000000E+00 0.  1.
         11    1    1    2    0    0  0.38195786558E+02 -0.45628203350E+01 -0.10866553326E+03  0.11527330809E+03  0.00000000000E+00 0. -1.
</event>
<event>
 7    1  0.2732144E-009  0.1121576E+03  0.7561462E-02  0.1256626E+00
         -2   -1    0    0    0  501 -0.00000000000E+00  0.00000000000E+00  0.21025977552E+02  0.21025977552E+02  0.00000000000E+00 0.  1.
          2   -1    0    0  501    0  0.00000000000E+00 -0.00000000000E+00 -0.69545361403E+03  0.69545361403E+03  0.00000000000E+00 0. -1.
         25    2    1    2    0    0 -0.39182019712E+01 -0.36128051661E+02 -0.26697407156E+03  0.29705684778E+03  0.12508807899E+03 0.  0.
          5    1    3    3  502    0 -0.40293113990E+01  0.45012854961E+02 -0.13121214457E+03  0.13883980606E+03  0.41800000000E+01 0. -1.
         -5    1    3    3    0  502  0.11110942772E+00 -0.81140906622E+02 -0.13576192699E+03  0.15821704173E+03  0.41800000000E+01 0. -1.
        -11    1    1    2    0    0  0.31746079544E+02 -0.18234188279E+02 -0.19306688794E+03  0.19650730879E+03  0.00000000000E+00 0.  1.
         11    1    1    2    0    0 -0.27827877573E+02  0.54362239940E+02 -0.21438667697E+03  0.22291543501E+03  0.00000000000E+00 0. -1.
</event>
<event>
 7    1  0.2732144E-009  0.7205037E+02  0.7561462E-02  0.1353256E+00
         -1   -1    0    0    0  501 -0.00000000000E+00  0.00000000000E+00  0.75125035927E+02  0.75125035927E+02  0.00000000000E+00 0.  1.
          1   -1    0    0  501    0  0.00000000000E+00 -0.00000000000E+00 -0.21732465456E+03  0.21732465456E+03  0.00000000000E+00 0. -1.
         25    2    1    2    0    0  0.50163551352E+01 -0.41803848478E+02 -0.20478765909E+02  0.13356634005E+03  0.12509141367E+03 0.  0.
          5    1    3    3  502    0  0.17217908165E+02 -0.20611331999E+02  0.51062416525E+02  0.57845709864E+02  0.41800000000E+01 0. -1.
         -5    1    3    3    0  502 -0.12201553030E+02 -0.21192516479E+02 -0.71541182433E+02  0.75720630181E+02  0.41800000000E+01 0. -1.
        -11    1    1    2    0    0  0.30614002522E+02 -0.72719116624E+01 -0.12308896760E+02  0.33787672147E+02  0.00000000000E+00 0.  1.
         11    1    1    2    0    0 -0.35630357657E+02  0.49075760141E+02 -0.10941195596E+03  0.12509567829E+03  0.00000000000E+00 0. -1.
</event>
<event>
 7    1  0.2732144E-009  0.1152025E+03  0.7561462E-02  0.1251228E+00
         -4   -1    0    0    0  501 -0.00000000000E+00  0.00000000000E+00  0.23098228477E+03  0.23098228477E+03  0.00000000000E+00 0.  1.
          4   -1    0    0  501    0  0.00000000000E+00 -0.00000000000E+00 -0.82879596460E+02  0.82879596460E+02  0.00000000000E+00 0. -1.
         25    2    1    2    0    0  0.65412209079E+02 -0.46461741512E+02  0.49489877612E+02  0.15663468570E+03  0.12509087200E+03 0.  0.
          5    1    3    3  502    0 -0.28515543969E+02 -0.42681344294E+02  0.27626022662E+01  0.51574584534E+02  0.41800000000E+01 0.  1.
         -5    1    3    3    0  502  0.93927753048E+02 -0.37803972183E+01  0.46727275346E+02  0.10506010117E+03  0.41800000000E+01 0.  1.
        -11    1    1    2    0    0 -0.42622019010E+02  0.44984539791E+02  0.11395451841E+03  0.12971460053E+03  0.00000000000E+00 0.  1.
         11    1    1    2    0    0 -0.22790190070E+02  0.14772017211E+01 -0.15341707710E+02  0.27512595003E+02  0.00000000000E+00 0. -1.
</event>
<event>
 7    1  0.2732144E-009  0.9739817E+02  0.7561462E-02  0.1285864E+00
         -1   -1    0    0    0  501 -0.00000000000E+00  0.00000000000E+00  0.13789754875E+03  0.13789754875E+03  0.00000000000E+00 0.  1.
          1   -1    0    0  501    0  0.00000000000E+00 -0.00000000000E+00 -0.12762283379E+03  0.12762283379E+03  0.00000000000E+00 0. -1.
         25    2    1    2    0    0 -0.71350538504E+02  0.10455083210E+02  0.29948759425E+02  0.14746090434E+03  0.12509029542E+03 0.  0.
          5    1    3    3  502    0 -0.74647380553E+02 -0.31503038537E+01 -0.33763449545E+02  0.82095059309E+02  0.41800000000E+01 0. -1.
         -5    1    3    3    0  502  0.32968420485E+01  0.13605387063E+02  0.63712208970E+02  0.65365845030E+02  0.41800000000E+01 0. -1.
        -11    1    1    2    0    0  0.35450805006E+02  0.33382403609E+02 -0.34274301209E+02  0.59547226380E+02  0.00000000000E+00 0. -1.
         11    1    1    2    0    0  0.35899733498E+02 -0.43837486819E+02  0.14600256745E+02  0.58512251819E+02  0.00000000000E+00 0.  1.
</event>
<event>
 7    1  0.2732144E-009  0.1520451E+03  0.7561462E-02  0.1197982E+00
          1   -1    0    0  501    0  0.00000000000E+00  0.00000000000E+00  0.42042805386E+03  0.42042805386E+03  0.00000000000E+00 0. -1.
         -1   -1    0    0    0  501 -0.00000000000E+00 -0.00000000000E+00 -0.75586905009E+02  0.75586905009E+02  0.00000000000E+00 0.  1.
         25    2    1    2    0    0 -0.10514860635E+03 -0.46522794203E+02  0.69479157876E+02  0.18356710770E+03  0.12509568279E+03 0.  0.
          5    1    3    3  502    0 -0.49338681329E+02 -0.81661637684E+02  0.68411220700E+02  0.11747551261E+03  0.41800000000E+01 0.  1.
         -5    1    3    3    0  502 -0.55809925017E+02  0.35138843482E+02  0.10679371768E+01  0.66091595089E+02  0.41800000000E+01 0.  1.
        -11    1    1    2    0    0  0.14028843451E+02 -0.23649900376E+02  0.26006923196E+02  0.37848200625E+02  0.00000000000E+00 0. -1.
         11    1    1    2    0    0  0.91119762895E+02  0.70172694579E+02  0.24935506778E+03  0.27459965055E+03  0.00000000000E+00 0.  1.
</event>
<event>
 7    1  0.2732144E-009  0.1123352E+03  0.7561462E-02  0.1256306E+00
         -1   -1    0    0    0  501 -0.00000000000E+00  0.00000000000E+00  0.70039800673E+03  0.70039800673E+03  0.00000000000E+00 0.  1.
          1   -1    0    0  501    0  0.00000000000E+00 -0.00000000000E+00 -0.20161650349E+02  0.20161650349E+02  0.00000000000E+00 0. -1.
         25    2    1    2    0    0 -0.15627395647E+02 -0.36717534423E+02  0.47251115636E+03  0.49041506869E+03  0.12509098243E+03 0.  0.
          5    1    3    3  502    0 -0.88935159897E+01  0.45273690495E+02  0.21937618191E+03  0.22421459201E+03  0.41800000000E+01 0.  1.
         -5    1    3    3    0  502 -0.67338796576E+01 -0.81991224917E+02  0.25313497445E+03  0.26620047669E+03  0.41800000000E+01 0.  1.
        -11    1    1    2    0    0  0.52134036387E+02  0.22751990176E+02  0.15007351273E+03  0.16049196251E+03  0.00000000000E+00 0.  1.
         11    1    1    2    0    0 -0.36506640740E+02  0.13965544247E+02  0.57651687286E+02  0.69652625874E+02  0.00000000000E+00 0. -1.
</event>
<event>
 7    1  0.2732144E-009  0.1790860E+03  0.7561462E-02  0.1168691E+00
         -2   -1    0    0    0  501 -0.00000000000E+00  0.00000000000E+00  0.17075309674E+03  0.17075309674E+03  0.00000000000E+00 0.  1.
          2   -1    0    0  501    0  0.00000000000E+00 -0.00000000000E+00 -0.20210262597E+03  0.20210262597E+03  0.00000000000E+00 0. -1.
         25    2    1    2    0    0 -0.31985512485E+02 -0.14293868131E+03  0.17036766565E+02  0.19337166516E+03  0.12509120612E+03 0.  0.
          5    1    3    3  502    0 -0.89312538303E+01 -0.15963077765E+03  0.28406914419E+02  0.16243822719E+03  0.41800000000E+01 0. -1.
         -5    1    3    3    0  502 -0.23054258655E+02  0.16692096338E+02 -0.11370147854E+02  0.30933437968E+02  0.41800000000E+01 0. -1.
        -11    1    1    2    0    0  0.55677796772E+02  0.54500491835E+02 -0.47406643712E+01  0.78056355041E+02  0.00000000000E+00 0.  1.
         11    1    1    2    0    0 -0.23692284286E+02  0.88438189475E+02 -0.43645631422E+02  0.10142770250E+03  0.00000000000E+00 0. -1.
</event>
<event>
 7    1  0.2732144E-009  0.1578879E+03  0.7561462E-02  0.1191102E+00
          2   -1    0    0  501    0  0.00000000000E+00  0.00000000000E+00  0.21782084801E+03  0.21782084801E+03  0.00000000000E+00 0.  1.
         -2   -1    0    0    0  501 -0.00000000000E+00 -0.00000000000E+00 -0.11850045693E+03  0.11850045693E+03  0.00000000000E+00 0. -1.
         25    2    1    2    0    0  0.98701690413E+02 -0.55102140943E+02  0.28953436883E+02  0.17106747151E+03  0.12509000230E+03 0.  0.
          5    1    3    3  502    0  0.84071524317E+02 -0.94234468120E+02  0.25804755310E+02  0.12896322724E+03  0.41800000000E+01 0.  1.
         -5    1    3    3    0  502  0.14630166096E+02  0.39132327177E+02  0.31486815727E+01  0.42104244274E+02  0.41800000000E+01 0.  1.
        -11    1    1    2    0    0  0.17018712378E+02  0.20515633708E+02  0.24041102203E+02  0.35895715519E+02  0.00000000000E+00 0.  1.
         11    1    1    2    0    0 -0.11572040279E+03  0.34586507235E+02  0.46325852001E+02  0.12935811791E+03  0.00000000000E+00 0. -1.
</event>
<event>
 7    1  0.2732144E-009  0.9618581E+02  0.7561462E-02  0.1288527E+00
         -1   -1    0    0    0  501 -0.00000000000E+00  0.00000000000E+00  0.27393094044E+02  0.27393094044E+02  0.00000000000E+00 0.  1.
          1   -1    0    0  501    0  0.00000000000E+00 -0.00000000000E+00 -0.44781949119E+03  0.44781949119E+03  0.00000000000E+00 0. -1.
         25    2    1    2    0    0  0.24501110922E+02  0.68197549924E+01 -0.25561506097E+03  0.28571521927E+03  0.12508922269E+03 0.  0.
          5    1    3    3  502    0  0.29350505697E+02 -0.41087487281E+02 -0.21978574913E+03  0.22555017561E+03  0.41800000000E+01 0.  1.
         -5    1    3    3    0  502 -0.48493947749E+01  0.47907242273E+02 -0.35829311839E+02  0.60165043661E+02  0.41800000000E+01 0.  1.
        -11    1    1    2    0    0  0.34243458232E+02 -0.49334727430E+01 -0.66330536637E+02  0.74811053164E+02  0.00000000000E+00 0. -1.
         11    1    1    2    0    0 -0.58744569154E+02 -0.18862822494E+01 -0.98480799536E+02  0.11468631280E+03  0.00000000000E+00 0.  1.
</event>
<event>
 6    1  0.2732144E-009  0.1150110E+03  0.7561462E-02  0.1251562E+00
          1   -1    0    0  501    0  0.00000000000E+00  0.00000000000E+00  0.51089429600E+03  0.51089429600E+03  0.00000000000E+00 0. -1.
         -1   -1    0    0    0  501 -0.00000000000E+00 -0.00000000000E+00 -0.38591587889E+02  0.38591587889E+02  0.00000000000E+00 0.  1.
          5    1    1    2  502    0  0.47354802217E+02 -0.41025544906E+02  0.10204241999E+03  0.11981527660E+03  0.41800000000E+01 0.  1.
         -5    1    1    2    0  502  0.21750326909E+02  0.80626824312E+02  0.88586721255E+02  0.12181478195E+03  0.41800000000E+01 0.  1.
        -11    1    1    2    0    0 -0.24494139183E+02 -0.82701872620E+00  0.50950584188E+01  0.25032108073E+02  0.00000000000E+00 0.  1.
         11    1    1    2    0    0 -0.44610989944E+02 -0.38774260680E+02  0.27657850845E+03  0.28282371727E+03  0.00000000000E+00 0. -1.
</event>
<event>
 7    1  0.2732144E-009  0.1032385E+03  0.7561462E-02  0.1273630E+00
         -2   -1    0    0    0  501 -0.00000000000E+00  0.00000000000E+00  0.30181930798E+02  0.30181930798E+02  0.00000000000E+00 0.  1.
          2   -1    0    0  501    0  0.00000000000E+00 -0.00000000000E+00 -0.64252465207E+03  0.64252465207E+03  0.00000000000E+00 0. -1.
         25    2    1    2    0    0  0.30973566695E+02 -0.36868318084E+01 -0.53100181146E+03  0.54642771155E+03  0.12508943048E+03 0.  0.
          5    1    3    3  502    0  0.78190076036E+02  0.91040385275E+01 -0.35920999796E+03  0.36775789121E+03  0.41800000000E+01 0.  1.
         -5    1    3    3    0  502 -0.47216509341E+02 -0.12790870336E+02 -0.17179181349E+03  0.17866982034E+03  0.41800000000E+01 0.  1.
        -11    1    1    2    0    0 -0.53200484412E+02  0.12485806730E+02 -0.16363201023E+02  0.57043327911E+02  0.00000000000E+00 0.  1.
         11    1    1    2    0    0  0.22226917717E+02 -0.87989749216E+01 -0.64977708793E+02  0.69235543407E+02  0.00000000000E+00 0. -1.
</event>
<event>
 7    1  0.2732144E-009  0.1230892E+03  0.7561462E-02  0.1238086E+00
         -3   -1    0    0    0  501 -0.00000000000E+00  0.00000000000E+00  0.50034316333E+03  0.50034316333E+03  0.00000000000E+00 0.  1.
          3   -1    0    0  501    0  0.00000000000E+00 -0.00000000000E+00 -0.38476569564E+02  0.38476569564E+02  0.00000000000E+00 0. -1.
         25    2    1    2    0    0 -0.99491760326E+01 -0.82871144885E+02  0.21232194205E+03  0.26018027248E+03  0.12508618770E+03 0.  0.
          5    1    3    3  502    0 -0.43419315360E+02 -0.93481256407E+02  0.19544800547E+03  0.22100085404E+03  0.41800000000E+01 0.  1.
         -5    1    3    3    0  502  0.33470139328E+02  0.10610111522E+02  0.16873936580E+02  0.39179418434E+02  0.41800000000E+01 0.  1.
        -11    1    1    2    0    0  0.37907207941E+02  0.31975342187E+02  0.18626493131E+03  0.19275373811E+03  0.00000000000E+00 0.  1.
         11    1    1    2    0    0 -0.27958031908E+02  0.50895802698E+02  0.63279720411E+02  0.85885722304E+02  0.00000000000E+00 0. -1.
</event>
<event>
 7    1  0.2732144E-009  0.1090991E+03  0.7561462E-02  0.1262247E+00
          1   -1    0    0  501    0  0.00000000000E+00  0.00000000000E+00  0.26299450919E+02  0.26299450919E+02  0.00000000000E+00 0. -1.
         -1   -1    0    0    0  501 -0.00000000000E+00 -0.00000000000E+00 -0.60556837230E+03  0.60556837230E+03  0.00000000000E+00 0.  1.
         25    2    1    2    0    0 -0.24184975545E+02  0.54920911440E+02 -0.35698529874E+03  0.38299988255E+03  0.12509671043E+03 0.  0.
          5    1    3    3  502    0 -0.45079413434E+02 -0.24663651131E+02 -0.18890151003E+03  0.19581037280E+03  0.41800000000E+01 0. -1.
         -5    1    3    3    0  502  0.20894437889E+02  0.79584562571E+02 -0.16808378870E+03  0.18718950975E+03  0.41800000000E+01 0. -1.
        -11    1    1    2    0    0 -0.16918507825E+02 -0.34352890863E+02 -0.23698114417E+02  0.45032850727E+02  0.00000000000E+00 0. -1.
         11    1    1    2    0    0  0.41103483369E+02 -0.20568020576E+02 -0.19858550823E+03  0.20383508994E+03  0.00000000000E+00 0.  1.
</event>
<event>
 7    1  0.2732144E-009  0.1617194E+03  0.7561462E-02  0.1186769E+00
          1   -1    0    0  501    0  0.00000000000E+00  0.00000000000E+00  0.82705639538E+03  0.82705639538E+03  0.00000000000E+00 0. -1.
         -1   -1    0    0    0  501 -0.00000000000E+00 -0.00000000000E+00 -0.37043981027E+02  0.37043981027E+02  0.00000000000E+00 0.  1.
         25    2    1    2    0    0  0.10083186361E+03  0.78806517936E+02  0.29827583651E+03  0.34784193569E+03  0.12509198851E+03 0.  0.
          5    1    3    3  502    0  0.11204745615E+03  0.26255426890E+02  0.25096944390E+03  0.27612879974E+03  0.41800000000E+01 0. -1.
         -5    1    3    3    0  502 -0.11215592541E+02  0.52551091046E+02  0.47306392605E+02  0.71713135948E+02  0.41800000000E+01 0. -1.
        -11    1    1    2    0    0 -0.86577875309E+02 -0.13602764669E+02  0.32633017564E+03  0.33789369220E+03  0.00000000000E+00 0.  1.
         11    1    1    2    0    0 -0.14253988302E+02 -0.65203753267E+02  0.16540640221E+03  0.17836474852E+03  0.00000000000E+00 0. -1.
</event>
<event>
 7    1  0.2732144E-009  0.1042296E+03  0.7561462E-02  0.1271645E+00
         -1   -1    0    0    0  501 -0.00000000000E+00  0.00000000000E+00  0.33902502878E+03  0.33902502878E+03  0.00000000000E+00 0.  1.
          1   -1    0    0  501    0  0.00000000000E+00 -0.00000000000E+00 -0.36690824989E+02  0.36690824989E+02  0.00000000000E+00 0. -1.
         25    2    1    2    0    0  0.26217756614E+02  0.11401096965E+01  0.17394728460E+03  0.21585757293E+03  0.12509261912E+03 0.  0.
          5    1    3    3  502    0  0.19819060146E+02  0.62618420861E+02  0.92652371711E+02  0.11364768436E+03  0.41800000000E+01 0.  1.
         -5    1    3    3    0  502  0.63986964683E+01 -0.61478311165E+02  0.81294912894E+02  0.10220988858E+03  0.41800000000E+01 0.  1.
        -11    1    1    2    0    0  0.80622897089E+01 -0.32954551543E+02  0.98931725827E+02  0.10458723324E+03  0.00000000000E+00 0.  1.
         11    1    1    2    0    0 -0.34280046323E+02  0.31814441847E+02  0.29455193360E+02  0.55271047591E+02  0.00000000000E+00 0. -1.
</event>
<event>
 7    1  0.3775206E-009  0.6646758E+02  0.7561462E-02  0.1372535E+00
          2   -1    0    0  501    0  0.00000000000E+00  0.00000000000E+00  0.73564788766E+03  0.73564788766E+03  0.00000000000E+00 0. -1.
         -2   -1    0    0    0  501 -0.00000000000E+00 -0.00000000000E+00 -0.21026917822E+02  0.21026917822E+02  0.00000000000E+00 0.  1.
         25    2    1    2    0    0 -0.30027926883E+02 -0.16541913364E+02  0.55111913264E+03  0.56617443104E+03  0.12508347900E+03 0.  0.
          5    1    3    3  502    0 -0.13054946683E+02 -0.13918708889E+02  0.54785075897E+03  0.54819894983E+03  0.41800000000E+01 0. -1.
         -5    1    3    3    0  502 -0.16972980199E+02 -0.26232044752E+01  0.32683736708E+01  0.17975481218E+02  0.41800000000E+01 0. -1.
        -11    1    1    2    0    0  0.28516156736E+02  0.52494331065E+02  0.82430086622E+02  0.10180149886E+03  0.00000000000E+00 0.  1.
         11    1    1    2    0    0  0.15117701466E+01 -0.35952417701E+02  0.81071750583E+02  0.88698875585E+02  0.00000000000E+00 0. -1.
</event>
<event>
 7    1  0.2732144E-009  0.2121791E+03  0.7561462E-02  0.1139852E+00
          1   -1    0    0  501    0  0.00000000000E+00  0.00000000000E+00  0.29169239624E+02  0.29169239624E+02  0.00000000000E+00 0. -1.
         -1   -1    0    0    0  501 -0.00000000000E+00 -0.00000000000E+00 -0.16000819381E+04  0.16000819381E+04  0.00000000000E+00 0.  1.
         25    2    1    2    0    0 -0.17677546157E+03  0.51603008240E+02 -0.92739766323E+03  0.95374382624E+03  0.12509366913E+03 0.  0.
          5    1    3    3  502    0 -0.18639828546E+03  0.22245706018E+02 -0.84584355350E+03  0.86643406076E+03  0.41800000000E+01 0. -1.
         -5    1    3    3    0  502  0.96228238913E+01  0.29357302222E+02 -0.81554109736E+02  0.87309765480E+02  0.41800000000E+01 0. -1.
        -11    1    1    2    0    0  0.88999896168E+02 -0.72954714678E+02 -0.36345453915E+03  0.38123821154E+03  0.00000000000E+00 0.  1.
         11    1    1    2    0    0  0.87775565398E+02  0.21351706438E+02 -0.28006049612E+03  0.29426913997E+03  0.00000000000E+00 0. -1.
</event>
<event>
 7    1  0.2732144E-009  0.1317813E+03  0.7561462E-02  0.1224836E+00
          1   -1    0    0  501    0  0.00000000000E+00  0.00000000000E+00  0.59462753698E+03  0.59462753698E+03  0.00000000000E+00 0. -1.
         -1   -1    0    0    0  501 -0.00000000000E+00 -0.00000000000E+00 -0.36081271326E+02  0.36081271326E+02  0.00000000000E+00 0.  1.
         25    2    1    2    0    0  0.84248560347E+02 -0.50655180642E+02  0.30779087984E+03  0.34647554995E+03  0.12508522595E+03 0.  0.
          5    1    3    3  502    0 -0.18790017805E+02  0.22999022123E+02  0.38044581323E+02  0.48444631857E+02  0.41800000000E+01 0.  1.
         -5    1    3    3    0  502  0.10303857815E+03 -0.73654202765E+02  0.26974629852E+03  0.29803091809E+03  0.41800000000E+01 0.  1.
        -11    1    1    2    0    0 -0.66187225987E+02  0.57356061550E+02  0.25006296235E+03  0.26495650930E+03  0.00000000000E+00 0. -1.
         11    1    1    2    0    0 -0.18061334360E+02 -0.67008809074E+01  0.69242345323E+00  0.19276749053E+02  0.00000000000E+00 0.  1.
</event>
<event>
 7    1  0.2732144E-009  0.1462455E+03  0.7561462E-02  0.1205164E+00
         -2   -1    0    0    0  501 -0.00000000000E+00  0.00000000000E+00  0.22294779713E+03  0.22294779713E+03  0.00000000000E+00 0.  1.
          2   -1    0    0  501    0  0.00000000000E+00 -0.00000000000E+00 -0.10646459424E+03  0.10646459424E+03  0.00000000000E+00 0. -1.
         25    2    1    2    0    0 -0.64558208030E+02 -0.87438485926E+02  0.52730971682E+02  0.17391799542E+03  0.12511459832E+03 0.  0.
          5    1    3    3  502    0 -0.99520828430E+02 -0.83617729659E+02  0.45395012832E+02  0.13774795677E+03  0.41800000000E+01 0. -1.
         -5    1    3    3    0  502  0.34962620400E+02 -0.38207562670E+01  0.73359588496E+01  0.36170038650E+02  0.41800000000E+01 0. -1.
        -11    1    1    2    0    0  0.22255712149E+02  0.81279299183E+02  0.73303622442E+02  0.11169181824E+03  0.00000000000E+00 0.  1.
         11    1    1    2    0    0  0.42302495881E+02  0.61591867433E+01 -0.95513912427E+01  0.43802577707E+02  0.00000000000E+00 0. -1.
</event>
<event>
 7    1  0.2732144E-009  0.1204904E+03  0.7561462E-02  0.1242290E+00
          2   -1    0    0  501    0  0.00000000000E+00  0.00000000000E+00  0.59065651738E+03  0.59065651738E+03  0.00000000000E+00 0. -1.
         -2   -1    0    0    0  501 -0.00000000000E+00 -0.00000000000E+00 -0.27731234647E+02  0.27731234647E+02  0.00000000000E+00 0.  1.
         25    2    1    2    0    0  0.48323945675E+02  0.26775004309E+02  0.40891327274E+03  0.43117284455E+03  0.12509137727E+03 0.  0.
          5    1    3    3  502    0  0.89588239493E+02  0.10480709179E+02  0.30555645101E+03  0.31861907519E+03  0.41800000000E+01 0.  1.
         -5    1    3    3    0  502 -0.41264293818E+02  0.16294295130E+02  0.10335682173E+03  0.11255376935E+03  0.41800000000E+01 0.  1.
        -11    1    1    2    0    0 -0.62831651367E+01  0.32695425096E+02  0.55199997449E+02  0.64463235295E+02  0.00000000000E+00 0. -1.
         11    1    1    2    0    0 -0.42040780538E+02 -0.59470429405E+02  0.98812012545E+02  0.12275167219E+03  0.00000000000E+00 0.  1.
</event>
<event>
 7    1  0.3034389E-009  0.2411773E+03  0.7561462E-02  0.1119011E+00
         -1   -1    0    0    0  501 -0.00000000000E+00  0.00000000000E+00  0.39302432458E+02  0.39302432458E+02  0.00000000000E+00 0.  1.
          1   -1    0    0  501    0  0.00000000000E+00 -0.00000000000E+00 -0.16056900385E+04  0.16056900385E+04  0.00000000000E+00 0. -1.
         25    2    1    2    0    0 -0.20417520568E+03  0.96175983328E+02 -0.77752514151E+03  0.81922320576E+03  0.12507590014E+03 0.  0.
          5    1    3    3  502    0  0.66026056216E+00 -0.20443335401E+02 -0.43105209744E+02  0.47894649110E+02  0.41800000000E+01 0. -1.
         -5    1    3    3    0  502 -0.20483546625E+03  0.11661931873E+03 -0.73441993176E+03  0.77132855665E+03  0.41800000000E+01 0. -1.
        -11    1    1    2    0    0  0.78964697659E+02 -0.39522921425E+02 -0.16707432999E+03  0.18897438063E+03  0.00000000000E+00 0.  1.
         11    1    1    2    0    0  0.12521050803E+03 -0.56653061903E+02 -0.62178813450E+03  0.63679488451E+03  0.00000000000E+00 0. -1.
</event>
<event>
 7    1  0.2732144E-009  0.1057645E+03  0.7561462E-02  0.1268621E+00
          1   -1    0    0  501    0  0.00000000000E+00  0.00000000000E+00  0.17311880249E+03  0.17311880249E+03  0.00000000000E+00 0.  1.
         -1   -1    0    0    0  501 -0.00000000000E+00 -0.00000000000E+00 -0.74231833819E+02  0.74231833819E+02  0.00000000000E+00 0. -1.
         25    2    1    2    0    0  0.16477176236E+02  0.16793878536E+02  0.38089425298E+02  0.13286134067E+03  0.12509116608E+03 0.  0.
          5    1    3    3  502    0  0.68072862169E+02  0.15950378078E+02  0.25926899957E+01  0.70089396959E+02  0.41800000000E+01 0. -1.
         -5    1    3    3    0  502 -0.51595685932E+02  0.84350045811E+00  0.35496735302E+02  0.62771943709E+02  0.41800000000E+01 0. -1.
        -11    1    1    2    0    0  0.34964747113E+02  0.18148003415E+01  0.46019573230E+02  0.57824114012E+02  0.00000000000E+00 0.  1.
         11    1    1    2    0    0 -0.51441923350E+02 -0.18608678877E+02  0.14777970142E+02  0.56665181629E+02  0.00000000000E+00 0. -1.
</event>
<event>
 7    1  0.2732144E-009  0.1172561E+03  0.7561462E-02  0.1247693E+00
          2   -1    0    0  501    0  0.00000000000E+00  0.00000000000E+00  0.28250367323E+03  0.28250367323E+03  0.00000000000E+00 0. -1.
         -2   -1    0    0    0  501 -0.00000000000E+00 -0.00000000000E+00 -0.55629403192E+02  0.55629403192E+02  0.00000000000E+00 0.  1.
         25    2    1    2    0    0  0.56358920609E+02  0.28101194723E+01  0.85896678712E+02  0.16189590995E+03  0.12509125286E+03 0.  0.
          5    1    3    3  502    0 -0.32242468101E+02  0.24123965119E+02  0.48824952538E+02  0.63426262957E+02  0.41800000000E+01 0. -1.
         -5    1    3    3    0  502  0.88601388710E+02 -0.21313845647E+02  0.37071726174E+02  0.98469646994E+02  0.41800000000E+01 0. -1.
        -11    1    1    2    0    0  0.19695049322E+02  0.14921273969E+02  0.53760511061E+02  0.59166983480E+02  0.00000000000E+00 0. -1.
         11    1    1    2    0    0 -0.76053969931E+02 -0.17731393441E+02  0.87217080265E+02  0.11707018299E+03  0.00000000000E+00 0.  1.
</event>
<event>
 7    1  0.2732144E-009  0.1091305E+03  0.7561462E-02  0.1262189E+00
          2   -1    0    0  501    0  0.00000000000E+00  0.00000000000E+00  0.66275518531E+03  0.66275518531E+03  0.00000000000E+00 0. -1.
         -2   -1    0    0    0  501 -0.00000000000E+00 -0.00000000000E+00 -0.30041477995E+02  0.30041477995E+02  0.00000000000E+00 0.  1.
         25    2    1    2    0    0 -0.63247935045E+02 -0.47914079023E+02  0.22751481266E+03  0.27148997644E+03  0.12509099516E+03 0.  0.
          5    1    3    3  502    0 -0.71581166980E+02 -0.20263276443E+02  0.45831684058E+02  0.87478451644E+02  0.41800000000E+01 0.  1.
         -5    1    3    3    0  502  0.83332319346E+01 -0.27650802580E+02  0.18168312860E+03  0.18401152479E+03  0.41800000000E+01 0.  1.
        -11    1    1    2    0    0  0.57714017267E+01  0.56202824473E+02  0.22482166569E+03  0.23181209615E+03  0.00000000000E+00 0. -1.
         11    1    1    2    0    0  0.57476533318E+02 -0.82887454494E+01  0.18037722896E+03  0.18949459071E+03  0.00000000000E+00 0.  1.
</event>
<event>
 7    1  0.2732144E-009  0.9567116E+02  0.7561462E-02  0.1289672E+00
         -2   -1    0    0    0  501 -0.00000000000E+00  0.00000000000E+00  0.36958697808E+02  0.36958697808E+02  0.00000000000E+00 0.  1.
          2   -1    0    0  501    0  0.00000000000E+00 -0.00000000000E+00 -0.48531828867E+03  0.48531828867E+03  0.00000000000E+00 0. -1.
         25    2    1    2    0    0 -0.37836545316E+02 -0.26308010670E+02 -0.37124801759E+03  0.39445718560E+03  0.12509062764E+03 0.  0.
          5    1    3    3  502    0  0.97921677121E+01  0.34687983745E+02 -0.38915433915E+02  0.53207388223E+02  0.41800000000E+01 0.  1.
         -5    1    3    3    0  502 -0.47628713028E+02 -0.60995994414E+02 -0.33233258367E+03  0.34124979738E+03  0.41800000000E+01 0.  1.
        -11    1    1    2    0    0  0.77553849807E+00  0.38525102144E+02  0.30614013722E+01  0.38654328781E+02  0.00000000000E+00 0.  1.
         11    1    1    2    0    0  0.37061006818E+02 -0.12217091474E+02 -0.80172974645E+02  0.89165472095E+02  0.00000000000E+00 0. -1.
</event>
<event>
 7    1  0.2732144E-009  0.1285517E+03  0.7561462E-02  0.1229621E+00
         -2   -1    0    0    0  501 -0.00000000000E+00  0.00000000000E+00  0.10297951882E+03  0.10297951882E+03  0.00000000000E+00 0.  1.
          2   -1    0    0  501    0  0.00000000000E+00 -0.00000000000E+00 -0.25200463337E+03  0.25200463337E+03  0.00000000000E+00 0. -1.
         25    2    1    2    0    0  0.82498455788E+02 -0.45830876162E+02 -0.15937021145E+03  0.22350123229E+03  0.12508985618E+03 0.  0.
          5    1    3    3  502    0 -0.25121882304E+02 -0.41379011310E+02 -0.56199428747E+02  0.74291182107E+02  0.41800000000E+01 0.  1.
         -5    1    3    3    0  502  0.10762033809E+03 -0.44518648525E+01 -0.10317078270E+03  0.14921005018E+03  0.41800000000E+01 0.  1.
        -11    1    1    2    0    0 -0.19773977838E+02  0.30168563069E+02 -0.36752314515E+02  0.51496456377E+02  0.00000000000E+00 0. -1.
         11    1    1    2    0    0 -0.62724477950E+02  0.15662313093E+02  0.47097411414E+02  0.79986463527E+02  0.00000000000E+00 0.  1.
</event>
<event>
 7    1  0.3165056E-009  0.1322182E+03  0.7561462E-02  0.1224201E+00
         -1   -1    0    0    0  501 -0.00000000000E+00  0.00000000000E+00  0.13561431662E+02  0.13561431662E+02  0.00000000000E+00 0.  1.
          1   -1    0    0  501    0  0.00000000000E+00 -0.00000000000E+00 -0.19256721270E+04  0.19256721270E+04  0.00000000000E+00 0. -1.
         25    2    1    2    0    0 -0.67255674326E+02 -0.91571739686E+02 -0.12502700420E+04  0.12616382339E+04  0.12508855314E+03 0.  0.
          5    1    3    3  502    0 -0.64362977376E+02 -0.61929903676E+02 -0.36272261781E+03  0.37358141776E+03  0.41800000000E+01 0.  1.
         -5    1    3    3    0  502 -0.28926969500E+01 -0.29641836010E+02 -0.88754742419E+03  0.88805681615E+03  0.41800000000E+01 0.  1.
        -11    1    1    2    0    0  0.69015353666E+02  0.17962274555E+02 -0.34818253263E+03  0.35541080228E+03  0.00000000000E+00 0.  1.
         11    1    1    2    0    0 -0.17596793400E+01  0.73609465131E+02 -0.31365812071E+03  0.32218452246E+03  0.00000000000E+00 0. -1.
</event>
<event>
 7    1  0.2732144E-009  0.2600799E+03  0.7561462E-02  0.1107095E+00
          1   -1    0    0  501    0  0.00000000000E+00  0.00000000000E+00  0.19784975582E+03  0.19784975582E+03  0.00000000000E+00 0. -1.
         -1   -1    0    0    0  501 -0.00000000000E+00 -0.00000000000E+00 -0.40408048835E+03  0.40408048835E+03  0.00000000000E+00 0.  1.
         25    2    1    2    0    0 -0.23198023349E+03  0.11276766278E+03 -0.65935706391E+02  0.29415406884E+03  0.12509086435E+03 0.  0.
          5    1    3    3  502    0 -0.10364353273E+02  0.16727156324E+02 -0.47854416378E+02  0.51910838409E+02  0.41800000000E+01 0. -1.
         -5    1    3    3    0  502 -0.22161588021E+03  0.96040506457E+02 -0.18081290013E+02  0.24224323043E+03  0.41800000000E+01 0. -1.
        -11    1    1    2    0    0  0.51175409510E+02 -0.32733064465E+02  0.70924813288E+01  0.61161093345E+02  0.00000000000E+00 0. -1.
         11    1    1    2    0    0  0.18080482398E+03 -0.80034598315E+02 -0.14738750747E+03  0.24661508197E+03  0.00000000000E+00 0.  1.
</event>
<event>
 7    1  0.2732144E-009  0.1236085E+03  0.7561462E-02  0.1237260E+00
          1   -1    0    0  501    0  0.00000000000E+00  0.00000000000E+00  0.20695707150E+03  0.20695707150E+03  0.00000000000E+00 0. -1.
         -1   -1    0    0    0  501 -0.00000000000E+00 -0.00000000000E+00 -0.17922253520E+03  0.17922253520E+03  0.00000000000E+00 0.  1.
         25    2    1    2    0    0 -0.16425006832E+02  0.89940066001E+02 -0.11549345890E+03  0.19324849604E+03  0.12508895176E+03 0.  0.
          5    1    3    3  502    0 -0.48632040275E+02  0.59894261077E+02 -0.88237506154E+01  0.77767144902E+02  0.41800000000E+01 0.  1.
         -5    1    3    3    0  502  0.32207033443E+02  0.30045804924E+02 -0.10666970828E+03  0.11548135114E+03  0.41800000000E+01 0.  1.
        -11    1    1    2    0    0  0.31650304029E+02 -0.10167372562E+03  0.10206438096E+03  0.14750059691E+03  0.00000000000E+00 0.  1.
         11    1    1    2    0    0 -0.15225297197E+02  0.11733659621E+02  0.41163614239E+02  0.45430513755E+02  0.00000000000E+00 0. -1.
</event>
<event>
 7    1  0.2732144E-009  0.1421676E+03  0.7561462E-02  0.1210442E+00
         -1   -1    0    0    0  501 -0.00000000000E+00  0.00000000000E+00  0.74407265623E+03  0.74407265623E+03  0.00000000000E+00 0.  1.
          1   -1    0    0  501    0  0.00000000000E+00 -0.00000000000E+00 -0.35892640802E+02  0.35892640802E+02  0.00000000000E+00 0. -1.
         25    2    1    2    0    0  0.11058611848E+03  0.50320041108E+02  0.35958624316E+03  0.39963926873E+03  0.12509149730E+03 0.  0.
          5    1    3    3  502    0  0.11262421830E+03  0.13168146071E+02  0.33773766576E+03  0.35628895281E+03  0.41800000000E+01 0. -1.
         -5    1    3    3    0  502 -0.20380998171E+01  0.37151895037E+02  0.21848577400E+02  0.43350315917E+02  0.41800000000E+01 0. -1.
        -11    1    1    2    0    0 -0.98783572472E+02 -0.19862728154E+02  0.32437076013E+03  0.33966028939E+03  0.00000000000E+00 0.  1.
         11    1    1    2    0    0 -0.11802546013E+02 -0.30457312954E+02  0.24223012136E+02  0.40665738917E+02  0.00000000000E+00 0. -1.
</event>
<event>
 7    1  0.2732144E-009  0.9123661E+02  0.7561462E-02  0.1299884E+00
         -1   -1    0    0    0  501 -0.00000000000E+00  0.00000000000E+00  0.10727040971E+03  0.10727040971E+03  0.00000000000E+00 0.  1.
          1   -1    0    0  501    0  0.00000000000E+00 -0.00000000000E+00 -0.19582311205E+03  0.19582311205E+03  0.00000000000E+00 0. -1.
         25    2    1    2    0    0 -0.56485900972E+02 -0.19672492770E+02  0.31091477437E+02  0.14209657810E+03  0.12508834302E+03 0.  0.
          5    1    3    3  502    0  0.13185702187E+02  0.14715498691E+02  0.56694360966E+02  0.60184147491E+02  0.41800000000E+01 0.  1.
         -5    1    3    3    0  502 -0.69671603159E+02 -0.34387991461E+02 -0.25602883530E+02  0.81912430610E+02  0.41800000000E+01 0.  1.
        -11    1    1    2    0    0  0.35754530006E+01  0.30292753035E+02 -0.84475079777E+00  0.30514723569E+02  0.00000000000E+00 0.  1.
         11    1    1    2    0    0  0.52910447971E+02 -0.10620260265E+02 -0.11879942898E+03  0.13048222009E+03  0.00000000000E+00 0. -1.
</event>
<event>
 7    1  0.2732144E-009  0.2044876E+03  0.7561462E-02  0.1146007E+00
          4   -1    0    0  501    0  0.00000000000E+00  0.00000000000E+00  0.13533255210E+03  0.13533255210E+03  0.00000000000E+00 0. -1.
         -4   -1    0    0    0  501 -0.00000000000E+00 -0.00000000000E+00 -0.37747691759E+03  0.37747691759E+03  0.00000000000E+00 0.  1.
         25    2    1    2    0    0  0.18397842925E+03 -0.51197628810E+01 -0.38986764681E+02  0.22592406336E+03  0.12508972853E+03 0.  0.
          5    1    3    3  502    0  0.18425407647E+03 -0.39010677765E+02 -0.32757174553E+02  0.19121166952E+03  0.41800000000E+01 0. -1.
         -5    1    3    3    0  502 -0.27564721975E+00  0.33890914884E+02 -0.62295901280E+01  0.34712393841E+02  0.41800000000E+01 0. -1.
        -11    1    1    2    0    0 -0.51539498014E+02  0.14876875717E+02 -0.13428812038E+02  0.55298953692E+02  0.00000000000E+00 0. -1.
         11    1    1    2    0    0 -0.13243893123E+03 -0.97571128362E+01 -0.18972878878E+03  0.23158645264E+03  0.00000000000E+00 0.  1.
</event>
<event>
 7    1  0.2732144E-009  0.1108529E+03  0.7561462E-02  0.1258999E+00
          2   -1    0    0  501    0  0.00000000000E+00  0.00000000000E+00  0.33699670577E+03  0.33699670577E+03  0.00000000000E+00 0. -1.
         -2   -1    0    0    0  501 -0.00000000000E+00 -0.00000000000E+00 -0.50741000191E+02  0.50741000191E+02  0.00000000000E+00 0.  1.
         25    2    1    2    0    0  0.55705610480E+02 -0.66147250428E+01  0.14722185629E+03  0.20116340180E+03  0.12508225146E+03 0.  0.
          5    1    3    3  502    0  0.71571027011E+02  0.13871359628E+02  0.26595951406E+02  0.77715143676E+02  0.41800000000E+01 0. -1.
         -5    1    3    3    0  502 -0.15865416531E+02 -0.20486084671E+02  0.12062590488E+03  0.12344825813E+03  0.41800000000E+01 0. -1.
        -11    1    1    2    0    0 -0.57098715495E+02 -0.43824724425E+02  0.65022987687E+02  0.96999271698E+02  0.00000000000E+00 0.  1.
         11    1    1    2    0    0  0.13931050151E+01  0.50439449468E+02  0.74010861601E+02  0.89575032454E+02  0.00000000000E+00 0. -1.
</event>
<event>
 7    1  0.2732144E-009  0.2817504E+03  0.7561462E-02  0.1094737E+00
         -2   -1    0    0    0  501 -0.00000000000E+00  0.00000000000E+00  0.11270884702E+03  0.11270884702E+03  0.00000000000E+00 0. -1.
          2   -1    0    0  501    0  0.00000000000E+00 -0.00000000000E+00 -0.79724991849E+03  0.79724991849E+03  0.00000000000E+00 0.  1.
         25    2    1    2    0    0 -0.13461619500E+03  0.23025657424E+03 -0.21878087642E+03  0.36695127938E+03  0.12509420293E+03 0.  0.
          5    1    3    3  502    0 -0.22905854393E+02 -0.12895895322E+02 -0.25246548505E+02  0.36685731464E+02  0.41800000000E+01 0. -1.
         -5    1    3    3    0  502 -0.11171034061E+03  0.24315246957E+03 -0.19353432792E+03  0.33026554791E+03  0.41800000000E+01 0. -1.
        -11    1    1    2    0    0  0.58026482366E+02 -0.13566934130E+03 -0.18237972835E+03  0.23459669251E+03  0.00000000000E+00 0. -1.
         11    1    1    2    0    0  0.76589712637E+02 -0.94587232947E+02 -0.28338046671E+03  0.30841079363E+03  0.00000000000E+00 0.  1.
</event>
<event>
 7    1  0.2732144E-009  0.1172806E+03  0.7561462E-02  0.1247652E+00
         -1   -1    0    0    0  501 -0.00000000000E+00  0.00000000000E+00  0.39310976268E+03  0.39310976268E+03  0.00000000000E+00 0.  1.
          1   -1    0    0  501    0  0.00000000000E+00 -0.00000000000E+00 -0.46240280038E+02  0.46240280038E+02  0.00000000000E+00 0. -1.
         25    2    1    2    0    0 -0.45296712919E+02  0.20658836238E+02  0.28887183580E+03  0.31870606731E+03  0.12509212649E+03 0.  0.
          5    1    3    3  502    0 -0.60821167465E+01  0.69219398056E+02  0.12154537738E+03  0.14006808478E+03  0.41800000000E+01 0. -1.
         -5    1    3    3    0  502 -0.39214596172E+02 -0.48560561819E+02  0.16732645841E+03  0.17863798253E+03  0.41800000000E+01 0. -1.
        -11    1    1    2    0    0  0.72383500119E+02 -0.20773495287E+02  0.55287476584E+02  0.93421701242E+02  0.00000000000E+00 0. -1.
         11    1    1    2    0    0 -0.27086787201E+02  0.11465904957E+00  0.27101702569E+01  0.27222274159E+02  0.00000000000E+00 0.  1.
</event>
<event>
 7    1  0.2732144E-009  0.1303086E+03  0.7561462E-02  0.1226998E+00
          2   -1    0    0  501    0  0.00000000000E+00  0.00000000000E+00  0.32884290430E+03  0.32884290430E+03  0.00000000000E+00 0. -1.
         -2   -1    0    0    0  501 -0.00000000000E+00 -0.00000000000E+00 -0.14945144839E+03  0.14945144839E+03  0.00000000000E+00 0.  1.
         25    2    1    2    0    0  0.34570723034E+02  0.10627987826E+03 -0.76438708736E+02  0.18433830097E+03  0.12508871091E+03 0.  0.
          5    1    3    3  502    0  0.62638508778E+02  0.47122088425E+02  0.62929562523E+01  0.78747366291E+02  0.41800000000E+01 0.  1.
         -5    1    3    3    0  502 -0.28067785744E+02  0.59157789832E+02 -0.82731664989E+02  0.10559093468E+03  0.41800000000E+01 0.  1.
        -11    1    1    2    0    0 -0.22238926416E+01 -0.60028133132E+02  0.21771773994E+03  0.22585246678E+03  0.00000000000E+00 0. -1.
         11    1    1    2    0    0 -0.32346830392E+02 -0.46251745126E+02  0.38112424705E+02  0.68103584931E+02  0.00000000000E+00 0.  1.
</event>
<event>
 7    1  0.2732144E-009  0.8599956E+02  0.7561462E-02  0.1312839E+00
         -1   -1    0    0    0  501 -0.00000000000E+00  0.00000000000E+00  0.21979221084E+02  0.21979221084E+02  0.00000000000E+00 0.  1.
          1   -1    0    0  501    0  0.00000000000E+00 -0.00000000000E+00 -0.74553579835E+03  0.74553579835E+03  0.00000000000E+00 0. -1.
         25    2    1    2    0    0  0.54700388406E+02 -0.24702144104E+02 -0.50137022793E+03  0.52021243154E+03  0.12508613058E+03 0.  0.
          5    1    3    3  502    0  0.56446827529E+02 -0.25322691935E+02 -0.92760818104E+02  0.11157743876E+03  0.41800000000E+01 0.  1.
         -5    1    3    3    0  502 -0.17464391229E+01  0.62054783162E+00 -0.40860940982E+03  0.40863499278E+03  0.41800000000E+01 0.  1.
        -11    1    1    2    0    0 -0.23012882668E+02  0.56206605154E+02 -0.15637335561E+03  0.16775399124E+03  0.00000000000E+00 0.  1.
         11    1    1    2    0    0 -0.31687505738E+02 -0.31504461051E+02 -0.65812993721E+02  0.79548596647E+02  0.00000000000E+00 0. -1.
</event>
<event>
 7    1  0.2732144E-009  0.7808063E+02  0.7561462E-02  0.1334588E+00
         -3   -1    0    0    0  501 -0.00000000000E+00  0.00000000000E+00  0.78324817068E+02  0.78324817068E+02  0.00000000000E+00 0.  1.
          3   -1    0    0  501    0  0.00000000000E+00 -0.00000000000E+00 -0.16531675801E+03  0.16531675801E+03  0.00000000000E+00 0. -1.
         25    2    1    2    0    0  0.33580542100E+02 -0.13968036656E+02 -0.48984052610E+02  0.13917366614E+03  0.12508842105E+03 0.  0.
          5    1    3    3  502    0  0.30424966578E+02  0.31530463099E+02  0.26138363367E+02  0.51191162655E+02  0.41800000000E+01 0.  1.
         -5    1    3    3    0  502  0.31555755218E+01 -0.45498499755E+02 -0.75122415977E+02  0.87982503483E+02  0.41800000000E+01 0.  1.
        -11    1    1    2    0    0 -0.44472609374E+02  0.24855267798E+02  0.11832036992E+02  0.52302910256E+02  0.00000000000E+00 0.  1.
         11    1    1    2    0    0  0.10892067274E+02 -0.10887231142E+02 -0.49839925320E+02  0.52164998680E+02  0.00000000000E+00 0. -1.
</event>
<event>
 7    1  0.2732144E-009  0.1086166E+03  0.7561462E-02  0.1263153E+00
          1   -1    0    0  501    0  0.00000000000E+00  0.00000000000E+00  0.46155977025E+03  0.46155977025E+03  0.00000000000E+00 0. -1.
         -1   -1    0    0    0  501 -0.00000000000E+00 -0.00000000000E+00 -0.44717920546E+02  0.44717920546E+02  0.00000000000E+00 0.  1.
         25    2    1    2    0    0  0.32558793536E+02 -0.33608041741E+02  0.36892624261E+03  0.39235716035E+03  0.12509193933E+03 0.  0.
          5    1    3    3  502    0 -0.31932452479E+02  0.12442274471E+02  0.35120152444E+02  0.49248240812E+02  0.41800000000E+01 0.  1.
         -5    1    3    3    0  502  0.64491246015E+02 -0.46050316211E+02  0.33380609017E+03  0.34310891954E+03  0.41800000000E+01 0.  1.
        -11    1    1    2    0    0  0.16073835634E+02  0.49615360319E+02  0.24308945370E+02  0.57541089637E+02  0.00000000000E+00 0.  1.
         11    1    1    2    0    0 -0.48632629170E+02 -0.16007318578E+02  0.23606661723E+02  0.56379440807E+02  0.00000000000E+00 0. -1.
</event>
<event>
 7    1  0.2732144E-009  0.1089202E+03  0.7561462E-02  0.1262583E+00
         -1   -1    0    0    0  501 -0.00000000000E+00  0.00000000000E+00  0.72866729677E+02  0.72866729677E+02  0.00000000000E+00 0.  1.
          1   -1    0    0  501    0  0.00000000000E+00 -0.00000000000E+00 -0.20835855391E+03  0.20835855391E+03  0.00000000000E+00 0. -1.
         25    2    1    2    0    0 -0.63490016981E+02  0.82973346995E+01 -0.80641313796E+02  0.16201903838E+03  0.12508924529E+03 0.  0.
          5    1    3    3  502    0  0.23136610951E+02 -0.10107612070E+02 -0.67756962473E+02  0.72428895833E+02  0.41800000000E+01 0. -1.
         -5    1    3    3    0  502 -0.86626627932E+02  0.18404946769E+02 -0.12884351324E+02  0.89590142546E+02  0.41800000000E+01 0. -1.
        -11    1    1    2    0    0  0.36291161080E+02  0.36314795616E+02 -0.14976843738E+02  0.53480076678E+02  0.00000000000E+00 0.  1.
         11    1    1    2    0    0  0.27198855901E+02 -0.44612130316E+02 -0.39873666699E+02  0.65726168530E+02  0.00000000000E+00 0. -1.
</event>
<event>
 7    1  0.2732144E-009  0.8679447E+02  0.7561462E-02  0.1310805E+00
          1   -1    0    0  501    0  0.00000000000E+00  0.00000000000E+00  0.37042871854E+03  0.37042871854E+03  0.00000000000E+00 0. -1.
         -1   -1    0    0    0  501 -0.00000000000E+00 -0.00000000000E+00 -0.32557975324E+02  0.32557975324E+02  0.00000000000E+00 0.  1.
         25    2    1    2    0    0 -0.28214902258E+01 -0.19819947226E+02  0.19339011394E+03  0.23118668733E+03  0.12508699818E+03 0.  0.
          5    1    3    3  502    0  0.42609660981E+02  0.34610671314E+02  0.73392793483E+02  0.91746696469E+02  0.41800000000E+01 0.  1.
         -5    1    3    3    0  502 -0.45431151207E+02 -0.54430618540E+02  0.11999732045E+03  0.13943999086E+03  0.41800000000E+01 0.  1.
        -11    1    1    2    0    0  0.20597768461E+02  0.21355334654E+02  0.15016954009E+03  0.15307256173E+03  0.00000000000E+00 0. -1.
         11    1    1    2    0    0 -0.17776278235E+02 -0.15353874279E+01 -0.56889108165E+01  0.18727444800E+02  0.00000000000E+00 0.  1.
</event>
<event>
 6    1  0.4154911E-009  0.1138592E+03  0.7561462E-02  0.1253586E+00
          1   -1    0    0  501    0  0.00000000000E+00  0.00000000000E+00  0.22598810776E+03  0.22598810776E+03  0.00000000000E+00 0. -1.
         -1   -1    0    0    0  501 -0.00000000000E+00 -0.00000000000E+00 -0.99357527501E+02  0.99357527501E+02  0.00000000000E+00 0.  1.
          5    1    1    2  502    0 -0.36174777611E+02  0.83313978810E+01  0.11559560840E+03  0.12148186617E+03  0.41800000000E+01 0. -1.
         -5    1    1    2    0  502 -0.70052339446E+00  0.74624952780E+02  0.57806366231E+01  0.74968409815E+02  0.41800000000E+01 0. -1.
        -11    1    1    2    0    0  0.70377208164E-01 -0.78548961272E+02 -0.23492514328E+02  0.81986843453E+02  0.00000000000E+00 0.  1.
         11    1    1    2    0    0  0.36804923797E+02 -0.44073893884E+01  0.28746849555E+02  0.46908515818E+02  0.00000000000E+00 0. -1.
</event>
<event>
 7    1  0.2732144E-009  0.1899402E+03  0.7561462E-02  0.1158515E+00
          2   -1    0    0  501    0  0.00000000000E+00  0.00000000000E+00  0.11415031440E+03  0.11415031440E+03  0.00000000000E+00 0.  1.
         -2   -1    0    0    0  501 -0.00000000000E+00 -0.00000000000E+00 -0.34911679122E+03  0.34911679122E+03  0.00000000000E+00 0. -1.
         25    2    1    2    0    0  0.18948241821E+02 -0.16640383536E+03 -0.13609177627E+03  0.24944392850E+03  0.12510807170E+03 0.  0.
          5    1    3    3  502    0 -0.23836167376E+02 -0.16075519436E+03 -0.12391630601E+03  0.20440919422E+03  0.41800000000E+01 0. -1.
         -5    1    3    3    0  502  0.42784409197E+02 -0.56486410059E+01 -0.12175470268E+02  0.45034734281E+02  0.41800000000E+01 0. -1.
        -11    1    1    2    0    0 -0.44196102108E+01  0.15605765949E+03 -0.11160559687E+03  0.19190970609E+03  0.00000000000E+00 0. -1.
         11    1    1    2    0    0 -0.14528631610E+02  0.10346175868E+02  0.12730896319E+02  0.21913471031E+02  0.00000000000E+00 0.  1.
</event>
<event>
 7    1  0.2732144E-009  0.1373483E+03  0.7561462E-02  0.1216942E+00
         -1   -1    0    0    0  501 -0.00000000000E+00  0.00000000000E+00  0.17635892863E+03  0.17635892863E+03  0.00000000000E+00 0.  1.
          1   -1    0    0  501    0  0.00000000000E+00 -0.00000000000E+00 -0.14761822190E+03  0.14761822190E+03  0.00000000000E+00 0. -1.
         25    2    1    2    0    0  0.10547202638E+03  0.56275264763E+02 -0.10634736545E+01  0.17303421546E+03  0.12509378470E+03 0.  0.
          5    1    3    3  502    0  0.75531128647E+02 -0.73503887855E+01  0.45510736935E+02  0.88587127656E+02  0.41800000000E+01 0. -1.
         -5    1    3    3    0  502  0.29940897732E+02  0.63625653549E+02 -0.46574210589E+02  0.84447087804E+02  0.41800000000E+01 0. -1.
        -11    1    1    2    0    0 -0.81657121045E+02 -0.18710236889E+02 -0.17959722608E+02  0.85676776421E+02  0.00000000000E+00 0. -1.
         11    1    1    2    0    0 -0.23814905334E+02 -0.37565027875E+02  0.47763902996E+02  0.65266158648E+02  0.00000000000E+00 0.  1.
</event>
<event>
 7    1  0.2732144E-009  0.1174341E+03  0.7561462E-02  0.1247391E+00
          1   -1    0    0  501    0  0.00000000000E+00  0.00000000000E+00  0.74580319293E+03  0.74580319293E+03  0.00000000000E+00 0. -1.
         -1   -1    0    0    0  501 -0.00000000000E+00 -0.00000000000E+00 -0.21729981251E+02  0.21729981251E+02  0.00000000000E+00 0.  1.
         25    2    1    2    0    0  0.67677669056E+01 -0.20386872531E+02  0.43978444506E+03  0.45773187156E+03  0.12508669346E+03 0.  0.
          5    1    3    3  502    0 -0.55764684976E+02 -0.71400902788E+01  0.27935839491E+03  0.28498994050E+03  0.41800000000E+01 0. -1.
         -5    1    3    3    0  502  0.62532451882E+02 -0.13246782252E+02  0.16042605015E+03  0.17274193106E+03  0.41800000000E+01 0. -1.
        -11    1    1    2    0    0  0.12893795006E+02  0.64692044847E+02  0.10437623765E+03  0.12347351781E+03  0.00000000000E+00 0. -1.
         11    1    1    2    0    0 -0.19661561912E+02 -0.44305172316E+02  0.17991252898E+03  0.18632778481E+03  0.00000000000E+00 0.  1.
</event>
<event>
 7    1  0.2732144E-009  0.8104754E+02  0.7561462E-02  0.1326105E+00
          2   -1    0    0  501    0  0.00000000000E+00  0.00000000000E+00  0.56882588805E+03  0.56882588805E+03  0.00000000000E+00 0. -1.
         -2   -1    0    0    0  501 -0.00000000000E+00 -0.00000000000E+00 -0.26597783214E+02  0.26597783214E+02  0.00000000000E+00 0.  1.
         25    2    1    2    0    0 -0.15702050359E+02  0.33841688229E+02  0.39230182840E+03  0.41344793523E+03  0.12508659536E+03 0.  0.
          5    1    3    3  502    0 -0.41840917343E+02 -0.20698743263E+00  0.38453861666E+02  0.56981374895E+02  0.41800000000E+01 0. -1.
         -5    1    3    3    0  502  0.26138866984E+02  0.34048675661E+02  0.35384796673E+03  0.35646656034E+03  0.41800000000E+01 0. -1.
        -11    1    1    2    0    0  0.38867627928E+02 -0.39034547487E+01  0.15006902442E+02  0.41846583858E+02  0.00000000000E+00 0.  1.
         11    1    1    2    0    0 -0.23165577569E+02 -0.29938233480E+02  0.13491937399E+03  0.14012915217E+03  0.00000000000E+00 0. -1.
</event>
<event>
 7    1  0.2732144E-009  0.1293453E+03  0.7561462E-02  0.1228430E+00
          1   -1    0    0  501    0  0.00000000000E+00  0.00000000000E+00  0.51274005482E+02  0.51274005482E+02  0.00000000000E+00 0. -1.
         -1   -1    0    0    0  501 -0.00000000000E+00 -0.00000000000E+00 -0.48480262817E+03  0.48480262817E+03  0.00000000000E+00 0.  1.
         25    2    1    2    0    0  0.98812368210E+02  0.39615960092E+02 -0.28724785957E+03  0.33089569918E+03  0.12508925813E+03 0.  0.
          5    1    3    3  502    0 -0.18694760076E+01  0.34608774521E+02 -0.18115638793E+03  0.18448948887E+03  0.41800000000E+01 0. -1.
         -5    1    3    3    0  502  0.10068184422E+03  0.50071855704E+01 -0.10609147164E+03  0.14640621031E+03  0.41800000000E+01 0. -1.
        -11    1    1    2    0    0 -0.12549288242E+02  0.15936312786E+02 -0.81161139572E+02  0.83657523734E+02  0.00000000000E+00 0.  1.
         11    1    1    2    0    0 -0.86263079967E+02 -0.55552272877E+02 -0.65119623542E+02  0.12152341074E+03  0.00000000000E+00 0. -1.
</event>
<event>
 7    1  0.2732144E-009  0.1410126E+03  0.7561462E-02  0.1211973E+00
         -1   -1    0    0    0  501 -0.00000000000E+00  0.00000000000E+00  0.74092932057E+02  0.74092932057E+02  0.00000000000E+00 0.  1.
          1   -1    0    0  501    0  0.00000000000E+00 -0.00000000000E+00 -0.29289369035E+03  0.29289369035E+03  0.00000000000E+00 0. -1.
         25    2    1    2    0    0 -0.81281598111E+02  0.56250641968E+02 -0.10354377850E+03  0.19010196171E+03  0.12508640561E+03 0.  0.
          5    1    3    3  502    0 -0.19987566867E+02  0.85841888170E+02 -0.76365365536E+02  0.11669393321E+03  0.41800000000E+01 0. -1.
         -5    1    3    3    0  502 -0.61294031244E+02 -0.29591246202E+02 -0.27178412965E+02  0.73408028507E+02  0.41800000000E+01 0. -1.
        -11    1    1    2    0    0  0.86385886730E+02 -0.69836134976E+02 -0.11805947646E+03  0.16210381599E+03  0.00000000000E+00 0. -1.
         11    1    1    2    0    0 -0.51042886189E+01  0.13585493008E+02  0.28024966746E+01  0.14780844705E+02  0.00000000000E+00 0.  1.
</event>
<event>
 7    1  0.2732144E-009  0.7977065E+02  0.7561462E-02  0.1329704E+00
          1   -1    0    0  501    0  0.00000000000E+00  0.00000000000E+00  0.28402216612E+02  0.28402216612E+02  0.00000000000E+00 0. -1.
         -1   -1    0    0    0  501 -0.00000000000E+00 -0.00000000000E+00 -0.48487434396E+03  0.48487434396E+03  0.00000000000E+00 0.  1.
         25    2    1    2    0    0 -0.14608218676E+02  0.43616233452E+02 -0.22790874767E+03  0.26401729900E+03  0.12508781328E+03 0.  0.
          5    1    3    3  502    0 -0.36769738679E+02  0.48386731261E+02 -0.23264199599E+03  0.24048505181E+03  0.41800000000E+01 0. -1.
         -5    1    3    3    0  502  0.22161520003E+02 -0.47704978091E+01  0.47332483195E+01  0.23532247191E+02  0.41800000000E+01 0. -1.
        -11    1    1    2    0    0 -0.41948924073E+00  0.15028531061E+02 -0.25134961632E+01  0.15243043660E+02  0.00000000000E+00 0. -1.
         11    1    1    2    0    0  0.15027707917E+02 -0.58644764513E+02 -0.22604988351E+03  0.23401621791E+03  0.00000000000E+00 0.  1.
</event>
<event>
 7    1  0.2732144E-009  0.1261347E+03  0.7561462E-02  0.1233307E+00
          1   -1    0    0  501    0  0.00000000000E+00  0.00000000000E+00  0.60335857268E+03  0.60335857268E+03  0.00000000000E+00 0. -1.
         -1   -1    0    0    0  501 -0.00000000000E+00 -0.00000000000E+00 -0.32487838498E+02  0.32487838498E+02  0.00000000000E+00 0.  1.
         25    2    1    2    0    0 -0.57764733116E+02  0.63836339743E+02  0.27871856469E+03  0.31740216919E+03  0.12509298957E+03 0.  0.
          5    1    3    3  502    0 -0.74684975792E+02 -0.24280949342E+01  0.92543495062E+02  0.11901895703E+03  0.41800000000E+01 0. -1.
         -5    1    3    3    0  502  0.16920242676E+02  0.66264434677E+02  0.18617506963E+03  0.19838321216E+03  0.41800000000E+01 0. -1.
        -11    1    1    2    0    0  0.10838516684E+01 -0.50719551022E+02  0.21992199267E+03  0.22569743120E+03  0.00000000000E+00 0. -1.
         11    1    1    2    0    0  0.56680881447E+02 -0.13116788722E+02  0.72230176824E+02  0.92746810791E+02  0.00000000000E+00 0.  1.
</event>
<event>
 7    1  0.2732144E-009  0.8657135E+02  0.7561462E-02  0.1311374E+00
         -2   -1    0    0    0  501 -0.00000000000E+00  0.00000000000E+00  0.25317392297E+02  0.25317392297E+02  0.00000000000E+00 0.  1.
          2   -1    0    0  501    0  0.00000000000E+00 -0.00000000000E+00 -0.10221520155E+04  0.10221520155E+04  0.00000000000E+00 0. -1.
         25    2    1    2    0    0 -0.66183968028E+02 -0.18300572536E+02 -0.84729705950E+03  0.85922927794E+03  0.12508963370E+03 0.  0.
          5    1    3    3  502    0 -0.70435727223E+02 -0.35626627053E+02 -0.26243759494E+03  0.27408285584E+03  0.41800000000E+01 0. -1.
         -5    1    3    3    0  502  0.42517591943E+01  0.17326054517E+02 -0.58485946456E+03  0.58514642211E+03  0.41800000000E+01 0. -1.
        -11    1    1    2    0    0  0.48237812797E+02 -0.25009573520E+01 -0.15309827910E+03  0.16053729920E+03  0.00000000000E+00 0. -1.
         11    1    1    2    0    0  0.17946155231E+02  0.20801529888E+02  0.35607153779E+01  0.27702830672E+02  0.00000000000E+00 0.  1.
</event>
<event>
 6    1  0.2732144E-009  0.1153943E+03  0.7561462E-02  0.1250894E+00
          1   -1    0    0  501    0  0.00000000000E+00  0.00000000000E+00  0.12071930890E+03  0.12071930890E+03  0.00000000000E+00 0. -1.
         -1   -1    0    0    0  501 -0.00000000000E+00 -0.00000000000E+00 -0.26624972646E+03  0.26624972646E+03  0.00000000000E+00 0.  1.
          5    1    1    2  502    0 -0.83837718384E+02 -0.21757624825E+02  0.78779770793E+02  0.11715750914E+03  0.41800000000E+01 0.  1.
         -5    1    1    2    0  502  0.14862840392E+02 -0.21324632611E+02 -0.29746598578E+02  0.39723752435E+02  0.41800000000E+01 0.  1.
        -11    1    1    2    0    0  0.44390251167E+01  0.52358666366E+02 -0.12023490484E+03  0.13121572783E+03  0.00000000000E+00 0.  1.
         11    1    1    2    0    0  0.64535852875E+02 -0.92764089305E+01 -0.74328684937E+02  0.98872045965E+02  0.00000000000E+00 0. -1.
</event>
<event>
 7    1  0.3751226E-009  0.6830917E+02  0.7561462E-02  0.1365939E+00
         -2   -1    0    0    0  501 -0.00000000000E+00  0.00000000000E+00  0.75932168933E+02  0.75932168933E+02  0.00000000000E+00 0.  1.
          2   -1    0    0  501    0  0.00000000000E+00 -0.00000000000E+00 -0.20752584097E+03  0.20752584097E+03  0.00000000000E+00 0. -1.
         25    2    1    2    0    0 -0.31676379263E+02  0.37126370511E+02 -0.29303557088E+02  0.13743836606E+03  0.12509534610E+03 0.  0.
          5    1    3    3  502    0  0.19880357931E+02 -0.51750393804E+01  0.37493611110E+02  0.42956407416E+02  0.41800000000E+01 0. -1.
         -5    1    3    3    0  502 -0.51556737194E+02  0.42301409892E+02 -0.66797168198E+02  0.94481958639E+02  0.41800000000E+01 0. -1.
        -11    1    1    2    0    0  0.14761745970E+02 -0.18635356776E+02  0.13642139991E+02  0.27409736404E+02  0.00000000000E+00 0.  1.
         11    1    1    2    0    0  0.16914633293E+02 -0.18491013736E+02 -0.11593225494E+03  0.11860990744E+03  0.00000000000E+00 0. -1.
</event>
<event>
 7    1  0.2732144E-009  0.2633839E+03  0.7561462E-02  0.1105127E+00
         -2   -1    0    0    0  501 -0.00000000000E+00  0.00000000000E+00  0.12617950247E+03  0.12617950247E+03  0.00000000000E+00 0.  1.
          2   -1    0    0  501    0  0.00000000000E+00 -0.00000000000E+00 -0.62651431949E+03  0.62651431949E+03  0.00000000000E+00 0. -1.
         25    2    1    2    0    0 -0.24817826309E+03  0.72684758887E+02 -0.29500232394E+03  0.41176269023E+03  0.12508644007E+03 0.  0.
          5    1    3    3  502    0 -0.85933048269E+02  0.52590692831E+02 -0.19646943160E+03  0.22083473394E+03  0.41800000000E+01 0.  1.
         -5    1    3    3    0  502 -0.16224521482E+03  0.20094066056E+02 -0.98532892339E+02  0.19092795630E+03  0.41800000000E+01 0.  1.
        -11    1    1    2    0    0  0.50420685923E+02 -0.34204201661E+02 -0.90313809259E+02  0.10894382554E+03  0.00000000000E+00 0. -1.
         11    1    1    2    0    0  0.19775757716E+03 -0.38480557227E+02 -0.11501868382E+03  0.23198730620E+03  0.00000000000E+00 0.  1.
</event>
<event>
 7    1  0.2732144E-009  0.1033214E+03  0.7561462E-02  0.1273463E+00
          1   -1    0    0  501    0  0.00000000000E+00  0.00000000000E+00  0.12247731521E+02  0.12247731521E+02  0.00000000000E+00 0. -1.
         -1   -1    0    0    0  501 -0.00000000000E+00 -0.00000000000E+00 -0.15086585949E+04  0.15086585949E+04  0.00000000000E+00 0.  1.
         25    2    1    2    0    0  0.20755886665E+01 -0.31920850552E+01 -0.12724506003E+04  0.12785899781E+04  0.12508918659E+03 0.  0.
          5    1    3    3  502    0 -0.47663841779E+02 -0.34578868777E+02 -0.84956404079E+03  0.85161263013E+03  0.41800000000E+01 0.  1.
         -5    1    3    3    0  502  0.49739430446E+02  0.31386783722E+02 -0.42288655946E+03  0.42697734800E+03  0.41800000000E+01 0.  1.
        -11    1    1    2    0    0 -0.14372287748E+02  0.43862559176E+02 -0.81590651583E+02  0.93741779257E+02  0.00000000000E+00 0. -1.
         11    1    1    2    0    0  0.12296699081E+02 -0.40670474121E+02 -0.14236961151E+03  0.14857456900E+03  0.00000000000E+00 0.  1.
</event>
<event>
 7    1  0.2732144E-009  0.1872053E+03  0.7561462E-02  0.1161006E+00
          2   -1    0    0  501    0  0.00000000000E+00  0.00000000000E+00  0.56427109441E+03  0.56427109441E+03  0.00000000000E+00 0. -1.
         -2   -1    0    0    0  501 -0.00000000000E+00 -0.00000000000E+00 -0.67746841011E+02  0.67746841011E+02  0.00000000000E+00 0.  1.
         25    2    1    2    0    0  0.32367386964E+02  0.15268021052E+03  0.19432439070E+03  0.27887214300E+03  0.12509519935E+03 0.  0.
          5    1    3    3  502    0 -0.30142035497E+02  0.12723586488E+03  0.11104830903E+03  0.17160042819E+03  0.41800000000E+01 0. -1.
         -5    1    3    3    0  502  0.62509422461E+02  0.25444345640E+02  0.83276081666E+02  0.10727171481E+03  0.41800000000E+01 0. -1.
        -11    1    1    2    0    0  0.27541063151E+02 -0.45835146914E+02  0.14017302744E+03  0.15002615930E+03  0.00000000000E+00 0. -1.
         11    1    1    2    0    0 -0.59908450116E+02 -0.10684506361E+03  0.16202683526E+03  0.20311963312E+03  0.00000000000E+00 0.  1.
</event>
<event>
 7    1  0.2732144E-009  0.8529502E+02  0.7561462E-02  0.1314663E+00
          4   -1    0    0  501    0  0.00000000000E+00  0.00000000000E+00  0.33154056859E+03  0.33154056859E+03  0.00000000000E+00 0.  1.
         -4   -1    0    0    0  501 -0.00000000000E+00 -0.00000000000E+00 -0.49532695648E+02  0.49532695648E+02  0.00000000000E+00 0. -1.
         25    2    1    2    0    0  0.25994843097E+02 -0.12506966311E+02  0.24285729235E+03  0.27470667682E+03  0.12510770466E+03 0.  0.
          5    1    3    3  502    0 -0.19807858730E+02  0.74273818660E+01  0.21743458232E+03  0.21850122942E+03  0.41800000000E+01 0.  1.
         -5    1    3    3    0  502  0.45802701827E+02 -0.19934348177E+02  0.25422710033E+02  0.56205447399E+02  0.41800000000E+01 0.  1.
        -11    1    1    2    0    0 -0.56047218066E+02  0.30563993382E+02  0.25183028505E+02  0.68626767876E+02  0.00000000000E+00 0.  1.
         11    1    1    2    0    0  0.30052374969E+02 -0.18057027071E+02  0.13967552083E+02  0.37739819543E+02  0.00000000000E+00 0. -1.
</event>
<event>
 7    1  0.2732144E-009  0.1194653E+03  0.7561462E-02  0.1243982E+00
         -1   -1    0    0    0  501 -0.00000000000E+00  0.00000000000E+00  0.84739976953E+02  0.84739976953E+02  0.00000000000E+00 0.  1.
          1   -1    0    0  501    0  0.00000000000E+00 -0.00000000000E+00 -0.46667203753E+03  0.46667203753E+03  0.00000000000E+00 0. -1.
         25    2    1    2    0    0 -0.24942372315E+02  0.92009130474E+02 -0.39040816983E+03  0.42089559978E+03  0.12508702899E+03 0.  0.
          5    1    3    3  502    0  0.19874911958E+01  0.78232118901E+02 -0.38095016745E+03  0.38892765012E+03  0.41800000000E+01 0. -1.
         -5    1    3    3    0  502 -0.26929863511E+02  0.13777011573E+02 -0.94580023787E+01  0.31967949662E+02  0.41800000000E+01 0. -1.
        -11    1    1    2    0    0 -0.23487458097E+02  0.27094637492E+01 -0.13511514254E+01  0.23681796634E+02  0.00000000000E+00 0.  1.
         11    1    1    2    0    0  0.48429830412E+02 -0.94718594223E+02  0.98272606748E+01  0.10683461807E+03  0.00000000000E+00 0. -1.
</event>
<event>
 7    1  0.2732144E-009  0.2946473E+03  0.7561462E-02  0.1087947E+00
          1   -1    0    0  501    0  0.00000000000E+00  0.00000000000E+00  0.12497311339E+04  0.12497311339E+04  0.00000000000E+00 0. -1.
         -1   -1    0    0    0  501 -0.00000000000E+00 -0.00000000000E+00 -0.73820367187E+02  0.73820367187E+02  0.00000000000E+00 0.  1.
         25    2    1    2    0    0 -0.84302287619E+00 -0.28136750571E+03  0.68215839877E+03  0.74843510666E+03  0.12508654569E+03 0.  0.
          5    1    3    3  502    0  0.61973043153E+02 -0.14248155662E+03  0.34484222238E+03  0.37825293494E+03  0.41800000000E+01 0.  1.
         -5    1    3    3    0  502 -0.62816066029E+02 -0.13888594908E+03  0.33731617638E+03  0.37018217171E+03  0.41800000000E+01 0.  1.
        -11    1    1    2    0    0  0.13909668136E+00  0.24500991350E+03  0.47437467393E+03  0.53391123637E+03  0.00000000000E+00 0. -1.
         11    1    1    2    0    0  0.70392619483E+00  0.36357592203E+02  0.19377693972E+02  0.41205158009E+02  0.00000000000E+00 0.  1.
</event>
<event>
 7    1  0.2732144E-009  0.1258013E+03  0.7561462E-02  0.1233822E+00
         -2   -1    0    0    0  501 -0.00000000000E+00  0.00000000000E+00  0.39316911730E+03  0.39316911730E+03  0.00000000000E+00 0.  1.
          2   -1    0    0  501    0  0.00000000000E+00 -0.00000000000E+00 -0.44835390456E+02  0.44835390456E+02  0.00000000000E+00 0. -1.
         25    2    1    2    0    0 -0.77150080903E+02 -0.27246873891E+01  0.20507768089E+03  0.25231486488E+03  0.12508547852E+03 0.  0.
          5    1    3    3  502    0 -0.79719047741E+02 -0.53062879495E+02  0.14444766201E+03  0.17335915093E+03  0.41800000000E+01 0. -1.
         -5    1    3    3    0  502  0.25689668385E+01  0.50338192106E+02  0.60630018885E+02  0.78955713949E+02  0.41800000000E+01 0. -1.
        -11    1    1    2    0    0  0.91140224288E+02  0.20215684653E+01  0.81232085511E+02  0.12210355826E+03  0.00000000000E+00 0. -1.
         11    1    1    2    0    0 -0.13990143385E+02  0.70311892377E+00  0.62023960439E+02  0.63586084615E+02  0.00000000000E+00 0.  1.
</event>
<event>
 7    1  0.2732144E-009  0.1133774E+03  0.7561462E-02  0.1254440E+00
         -2   -1    0    0    0  501 -0.00000000000E+00  0.00000000000E+00  0.59034689649E+02  0.59034689649E+02  0.00000000000E+00 0.  1.
          2   -1    0    0  501    0  0.00000000000E+00 -0.00000000000E+00 -0.46684994203E+03  0.46684994203E+03  0.00000000000E+00 0. -1.
         25    2    1    2    0    0  0.44127888238E+02 -0.31683647102E+02 -0.39685974013E+03  0.41963542905E+03  0.12508043797E+03 0.  0.
          5    1    3    3  502    0  0.67967521856E+02 -0.55010838289E+02 -0.17968769173E+03  0.19987725062E+03  0.41800000000E+01 0. -1.
         -5    1    3    3    0  502 -0.23839633617E+02  0.23327191187E+02 -0.21717204840E+03  0.21975817843E+03  0.41800000000E+01 0. -1.
        -11    1    1    2    0    0 -0.67953874208E+02  0.26007854489E+01 -0.90665909913E+01  0.68605365512E+02  0.00000000000E+00 0. -1.
         11    1    1    2    0    0  0.23825985969E+02  0.29082861653E+02 -0.18889212583E+01  0.37643837116E+02  0.00000000000E+00 0.  1.
</event>
<event>
 7    1  0.2732144E-009  0.8284059E+02  0.7561462E-02  0.1321178E+00
          3   -1    0    0  501    0  0.00000000000E+00  0.00000000000E+00  0.15056510029E+02  0.15056510029E+02  0.00000000000E+00 0. -1.
         -3   -1    0    0    0  501 -0.00000000000E+00 -0.00000000000E+00 -0.10221068747E+04  0.10221068747E+04  0.00000000000E+00 0.  1.
         25    2    1    2    0    0  0.54403773501E+02  0.19235230722E+02 -0.47280227052E+03  0.49246359510E+03  0.12509452753E+03 0.  0.
          5    1    3    3  502    0  0.32782790328E+02  0.18707357994E+02 -0.46847902975E+03  0.47001569155E+03  0.41800000000E+01 0.  1.
         -5    1    3    3    0  502  0.21620983173E+02  0.52787272792E+00 -0.43232407638E+01  0.22447903548E+02  0.41800000000E+01 0.  1.
        -11    1    1    2    0    0 -0.67249153001E+02  0.15182063737E+02 -0.32222543658E+03  0.32951809604E+03  0.00000000000E+00 0.  1.
         11    1    1    2    0    0  0.12845379500E+02 -0.34417294459E+02 -0.21202265759E+03  0.21518169360E+03  0.00000000000E+00 0. -1.
</event>
<event>
 7    1  0.2732144E-009  0.2034450E+03  0.7561462E-02  0.1146865E+00
         -1   -1    0    0    0  501 -0.00000000000E+00  0.00000000000E+00  0.19319123320E+03  0.19319123320E+03  0.00000000000E+00 0.  1.
          1   -1    0    0  501    0  0.00000000000E+00 -0.00000000000E+00 -0.26831565950E+03  0.26831565950E+03  0.00000000000E+00 0. -1.
         25    2    1    2    0    0  0.93494994685E+02  0.15155719090E+03 -0.13057868272E+03  0.25378674078E+03  0.12508405681E+03 0.  0.
          5    1    3    3  502    0  0.10191988901E+03  0.66622529815E+02 -0.37602140053E+02  0.12750536691E+03  0.41800000000E+01 0. -1.
         -5    1    3    3    0  502 -0.84248943262E+01  0.84934661084E+02 -0.92976542670E+02  0.12628137386E+03  0.41800000000E+01 0. -1.
        -11    1    1    2    0    0 -0.40624971606E+02 -0.16657147437E+01  0.50195374913E+01  0.40967776120E+02  0.00000000000E+00 0. -1.
         11    1    1    2    0    0 -0.52870023079E+02 -0.14989147616E+03  0.50434718933E+02  0.16675237581E+03  0.00000000000E+00 0.  1.
</event>
<event>
 7    1  0.2732144E-009  0.1856187E+03  0.7561462E-02  0.1162473E+00
         -2   -1    0    0    0  501 -0.00000000000E+00  0.00000000000E+00  0.71855660172E+02  0.71855660172E+02  0.00000000000E+00 0. -1.
          2   -1    0    0  501    0  0.00000000000E+00 -0.00000000000E+00 -0.89686257265E+03  0.89686257265E+03  0.00000000000E+00 0.  1.
         25    2    1    2    0    0 -0.12942215135E+02  0.15535203917E+03 -0.10395656868E+03  0.22528863491E+03  0.12508494649E+03 0.  0.
          5    1    3    3  502    0 -0.60226616898E+02  0.34251573278E+02 -0.42912778560E+02  0.81605113926E+02  0.41800000000E+01 0.  1.
         -5    1    3    3    0  502  0.47284401763E+02  0.12110046589E+03 -0.61043790119E+02  0.14368352098E+03  0.41800000000E+01 0.  1.
        -11    1    1    2    0    0  0.34359927751E+02 -0.14291624316E+03 -0.67811994610E+03  0.69386765200E+03  0.00000000000E+00 0. -1.
         11    1    1    2    0    0 -0.21417712616E+02 -0.12435796016E+02 -0.42930397698E+02  0.49561945914E+02  0.00000000000E+00 0.  1.
</event>
<event>
 7    1  0.2732144E-009  0.8274677E+02  0.7561462E-02  0.1321432E+00
         -2   -1    0    0    0  501 -0.00000000000E+00  0.00000000000E+00  0.67375911415E+02  0.67375911415E+02  0.00000000000E+00 0.  1.
          2   -1    0    0  501    0  0.00000000000E+00 -0.00000000000E+00 -0.23639518969E+03  0.23639518969E+03  0.00000000000E+00 0. -1.
         25    2    1    2    0    0  0.15879614412E+02 -0.54550279439E+01 -0.16979023579E+03  0.21156179739E+03  0.12509096875E+03 0.  0.
          5    1    3    3  502    0  0.23956325765E+02  0.44544500089E+02 -0.22064893131E+02  0.55339406766E+02  0.41800000000E+01 0.  1.
         -5    1    3    3    0  502 -0.80767113533E+01 -0.49999528033E+02 -0.14772534265E+03  0.15622239062E+03  0.41800000000E+01 0.  1.
        -11    1    1    2    0    0 -0.38699032307E+02  0.11398268770E+02  0.33107177505E+02  0.52188320866E+02  0.00000000000E+00 0.  1.
         11    1    1    2    0    0  0.22819417895E+02 -0.59432408258E+01 -0.32336219993E+02  0.40020982847E+02  0.00000000000E+00 0. -1.
</event>
<event>
 7    1  0.2732144E-009  0.1044739E+03  0.7561462E-02  0.1271160E+00
          2   -1    0    0  501    0  0.00000000000E+00  0.00000000000E+00  0.13217246995E+04  0.13217246995E+04  0.00000000000E+00 0. -1.
         -2   -1    0    0    0  501 -0.00000000000E+00 -0.00000000000E+00 -0.14761763442E+02  0.14761763442E+02  0.00000000000E+00 0.  1.
         25    2    1    2    0    0  0.55376877128E+02 -0.19758803361E+02  0.98638751091E+03  0.99602442698E+03  0.12508928267E+03 0.  0.
          5    1    3    3  502    0  0.22022464989E+02  0.43126313320E+02  0.17858564546E+03  0.18508153076E+03  0.41800000000E+01 0.  1.
         -5    1    3    3    0  502  0.33354412139E+02 -0.62885116680E+02  0.80780186545E+03  0.81094289622E+03  0.41800000000E+01 0.  1.
        -11    1    1    2    0    0 -0.83107079551E+01 -0.23614544140E+02  0.17115190888E+02  0.30325638011E+02  0.00000000000E+00 0.  1.
         11    1    1    2    0    0 -0.47066169173E+02  0.43373347501E+02  0.30346023423E+03  0.31013639791E+03  0.00000000000E+00 0. -1.
</event>
<event>
 7    1  0.2732144E-009  0.1020521E+03  0.7561462E-02  0.1276039E+00
         -2   -1    0    0    0  501 -0.00000000000E+00  0.00000000000E+00  0.20512810619E+02  0.20512810619E+02  0.00000000000E+00 0.  1.
          2   -1    0    0  501    0  0.00000000000E+00 -0.00000000000E+00 -0.82421935247E+03  0.82421935247E+03  0.00000000000E+00 0. -1.
         25    2    1    2    0    0 -0.54031518925E+02  0.22532699592E+02 -0.57893564975E+03  0.59518279475E+03  0.12509574345E+03 0.  0.
          5    1    3    3  502    0 -0.34729189309E+02 -0.28434355817E+02 -0.48033062420E+03  0.48244130226E+03  0.41800000000E+01 0. -1.
         -5    1    3    3    0  502 -0.19302329616E+02  0.50967055409E+02 -0.98605025548E+02  0.11274149249E+03  0.41800000000E+01 0. -1.
        -11    1    1    2    0    0  0.25402760066E+02  0.33144273836E+02 -0.58443558971E+02  0.71829608744E+02  0.00000000000E+00 0.  1.
         11    1    1    2    0    0  0.28628758858E+02 -0.55676973428E+02 -0.16632733313E+03  0.17771975959E+03  0.00000000000E+00 0. -1.
</event>
<event>
 7    1  0.2732144E-009  0.1092394E+03  0.7561462E-02  0.1261985E+00
         -1   -1    0    0    0  501 -0.00000000000E+00  0.00000000000E+00  0.25839248800E+03  0.25839248800E+03  0.00000000000E+00 0.  1.
          1   -1    0    0  501    0  0.00000000000E+00 -0.00000000000E+00 -0.53052861294E+02  0.53052861294E+02  0.00000000000E+00 0. -1.
         25    2    1    2    0    0 -0.38721190243E+02 -0.20380671064E+02  0.11512807227E+03  0.17554948350E+03  0.12509374807E+03 0.  0.
          5    1    3    3  502    0 -0.12326235915E+02 -0.72628557917E+02  0.61613737410E+02  0.96127876053E+02  0.41800000000E+01 0.  1.
         -5    1    3    3    0  502 -0.26394954328E+02  0.52247886853E+02  0.53514334857E+02  0.79421607448E+02  0.41800000000E+01 0.  1.
        -11    1    1    2    0    0 -0.22293239420E+02  0.25350603374E+01  0.62762186441E+02  0.66652135011E+02  0.00000000000E+00 0. -1.
         11    1    1    2    0    0  0.61014429663E+02  0.17845610727E+02  0.27449368001E+02  0.69243730785E+02  0.00000000000E+00 0.  1.
</event>
<event>
 7    1  0.2732144E-009  0.1107381E+03  0.7561462E-02  0.1259209E+00
         -1   -1    0    0    0  501 -0.00000000000E+00  0.00000000000E+00  0.26305116515E+03  0.26305116515E+03  0.00000000000E+00 0.  1.
          1   -1    0    0  501    0  0.00000000000E+00 -0.00000000000E+00 -0.54164819595E+02  0.54164819595E+02  0.00000000000E+00 0. -1.
         25    2    1    2    0    0 -0.27848352532E+02 -0.47619165280E+01  0.16786530654E+03  0.21124355115E+03  0.12508745010E+03 0.  0.
          5    1    3    3  502    0  0.30481025932E+01  0.56220791224E+02  0.99924256699E+02  0.11477106679E+03  0.41800000000E+01 0.  1.
         -5    1    3    3    0  502 -0.30896455126E+02 -0.60982707752E+02  0.67941049846E+02  0.96472484358E+02  0.41800000000E+01 0.  1.
        -11    1    1    2    0    0  0.13501560779E+01 -0.42405157256E+02  0.26253020770E+02  0.49892297831E+02  0.00000000000E+00 0. -1.
         11    1    1    2    0    0  0.26498196454E+02  0.47167073784E+02  0.14768018239E+02  0.56080135764E+02  0.00000000000E+00 0.  1.
</event>
<event>
 7    1  0.2732144E-009  0.1098096E+03  0.7561462E-02  0.1260923E+00
         -1   -1    0    0    0  501 -0.00000000000E+00  0.00000000000E+00  0.63380122800E+02  0.63380122800E+02  0.00000000000E+00 0.  1.
          1   -1    0    0  501    0  0.00000000000E+00 -0.00000000000E+00 -0.33406464301E+03  0.33406464301E+03  0.00000000000E+00 0. -1.
         25    2    1    2    0    0  0.63682664262E+02  0.58776428412E+02 -0.21935017062E+03  0.26696800726E+03  0.12508904542E+03 0.  0.
          5    1    3    3  502    0 -0.10477935117E+02  0.63831806480E+01 -0.15513614092E+03  0.15567667372E+03  0.41800000000E+01 0.  1.
         -5    1    3    3    0  502  0.74160599379E+02  0.52393247764E+02 -0.64214029695E+02  0.11129133354E+03  0.41800000000E+01 0.  1.
        -11    1    1    2    0    0 -0.50011114505E+02  0.52541651585E+01 -0.55690912087E+01  0.50593800040E+02  0.00000000000E+00 0.  1.
         11    1    1    2    0    0 -0.13671549757E+02 -0.64030593571E+02 -0.45765258384E+02  0.79882958513E+02  0.00000000000E+00 0. -1.
</event>
<event>
 7    1  0.2732144E-009  0.8629626E+02  0.7561462E-02  0.1312077E+00
         -2   -1    0    0    0  501 -0.00000000000E+00  0.00000000000E+00  0.76291667733E+02  0.76291667733E+02  0.00000000000E+00 0. -1.
          2   -1    0    0  501    0  0.00000000000E+00 -0.00000000000E+00 -0.24424031856E+03  0.24424031856E+03  0.00000000000E+00 0.  1.
         25    2    1    2    0    0  0.60988406399E+02 -0.54575597112E+02 -0.79455347439E+02  0.16929525142E+03  0.12509855475E+03 0.  0.
          5    1    3    3  502    0  0.28231623290E+02 -0.72919330949E+01 -0.10290421774E+03  0.10703713033E+03  0.41800000000E+01 0.  1.
         -5    1    3    3    0  502  0.32756783109E+02 -0.47283664017E+02  0.23448870299E+02  0.62258121083E+02  0.41800000000E+01 0.  1.
        -11    1    1    2    0    0 -0.17896951570E+02  0.28218424943E+01 -0.81546017741E+02  0.83534523881E+02  0.00000000000E+00 0.  1.
         11    1    1    2    0    0 -0.43091454828E+02  0.51753754617E+02 -0.69472856501E+01  0.67702210999E+02  0.00000000000E+00 0. -1.
</event>
<event>
 7    1  0.2732144E-009  0.2187154E+03  0.7561462E-02  0.1134844E+00
         -3   -1    0    0    0  501 -0.00000000000E+00  0.00000000000E+00  0.16496790015E+03  0.16496790015E+03  0.00000000000E+00 0.  1.
          3   -1    0    0  501    0  0.00000000000E+00 -0.00000000000E+00 -0.33959123170E+03  0.33959123170E+03  0.00000000000E+00 0. -1.
         25    2    1    2    0    0  0.17250273153E+03  0.11818242593E+03 -0.69519146374E+02  0.25338542570E+03  0.12508790533E+03 0.  0.
          5    1    3    3  502    0  0.33713986396E+02  0.24290386439E+02 -0.74817884963E+02  0.85684561401E+02  0.41800000000E+01 0. -1.
         -5    1    3    3    0  502  0.13878874513E+03  0.93892039494E+02  0.52987385891E+01  0.16770086430E+03  0.41800000000E+01 0. -1.
        -11    1    1    2    0    0 -0.14290655458E+03 -0.13276159970E+03 -0.92136336476E+02  0.21572443115E+03  0.00000000000E+00 0.  1.
         11    1    1    2    0    0 -0.29596176953E+02  0.14579173772E+02 -0.12967848693E+02  0.35449274997E+02  0.00000000000E+00 0. -1.
</event>
<event>
 7    1  0.2732144E-009  0.1229166E+03  0.7561462E-02  0.1238362E+00
         -3   -1    0    0    0  501 -0.00000000000E+00  0.00000000000E+00  0.10349812082E+03  0.10349812082E+03  0.00000000000E+00 0.  1.
          3   -1    0    0  501    0  0.00000000000E+00 -0.00000000000E+00 -0.15575075722E+03  0.15575075722E+03  0.00000000000E+00 0. -1.
         25    2    1    2    0    0  0.53251738682E+02  0.21458740173E+02 -0.47102902124E+01  0.13772729808E+03  0.12510154516E+03 0.  0.
          5    1    3    3  502    0  0.33991159590E+02 -0.51156540291E+02 -0.96920976552E+01  0.62320138813E+02  0.41800000000E+01 0.  1.
         -5    1    3    3    0  502  0.19260579092E+02  0.72615280464E+02  0.49818074427E+01  0.75407159270E+02  0.41800000000E+01 0.  1.
        -11    1    1    2    0    0 -0.21684901542E+02  0.36830968103E+02 -0.32115407476E+02  0.53461711193E+02  0.00000000000E+00 0. -1.
         11    1    1    2    0    0 -0.31566837140E+02 -0.58289708276E+02 -0.15426938720E+02  0.68059868764E+02  0.00000000000E+00 0.  1.
</event>
<event>
 7    1  0.2732144E-009  0.1208034E+03  0.7561462E-02  0.1241777E+00
         -2   -1    0    0    0  501 -0.00000000000E+00  0.00000000000E+00  0.26797759159E+02  0.26797759159E+02  0.00000000000E+00 0.  1.
          2   -1    0    0  501    0  0.00000000000E+00 -0.00000000000E+00 -0.61627144896E+03  0.61627144896E+03  0.00000000000E+00 0. -1.
         25    2    1    2    0    0  0.54362571067E+02  0.92493130474E+00 -0.39681813321E+03  0.41960335531E+03  0.12508477251E+03 0.  0.
          5    1    3    3  502    0 -0.33632343795E+02  0.25917339622E+02 -0.93715420811E+02  0.10297036244E+03  0.41800000000E+01 0. -1.
         -5    1    3    3    0  502  0.87994914862E+02 -0.24992408318E+02 -0.30310271240E+03  0.31663299288E+03  0.41800000000E+01 0. -1.
        -11    1    1    2    0    0 -0.60677072298E+02 -0.36786717706E+02 -0.15797748531E+03  0.17318156821E+03  0.00000000000E+00 0.  1.
         11    1    1    2    0    0  0.63145012309E+01  0.35861786402E+02 -0.34678071284E+02  0.50284284600E+02  0.00000000000E+00 0. -1.
</event>
<event>
 7    1  0.2732144E-009  0.7846357E+02  0.7561462E-02  0.1333469E+00
         -1   -1    0    0    0  501 -0.00000000000E+00  0.00000000000E+00  0.34872281195E+02  0.34872281195E+02  0.00000000000E+00 0.  1.
          1   -1    0    0  501    0  0.00000000000E+00 -0.00000000000E+00 -0.42452275080E+03  0.42452275080E+03  0.00000000000E+00 0. -1.
         25    2    1    2    0    0  0.21405553143E+02 -0.28438951104E+02 -0.30522198275E+03  0.33177424110E+03  0.12508683647E+03 0.  0.
          5    1    3    3  502    0  0.13714959473E+02 -0.47587092266E+02 -0.30666938883E+03  0.31067059389E+03  0.41800000000E+01 0.  1.
         -5    1    3    3    0  502  0.76905936698E+01  0.19148141162E+02  0.14474060835E+01  0.21103647204E+02  0.41800000000E+01 0.  1.
        -11    1    1    2    0    0 -0.10761906996E+02  0.55792870535E+02 -0.79714195897E+02  0.97892880600E+02  0.00000000000E+00 0.  1.
         11    1    1    2    0    0 -0.10643646147E+02 -0.27353919432E+02 -0.47142909643E+01  0.29727910301E+02  0.00000000000E+00 0. -1.
</event>
<event>
 7    1  0.2732144E-009  0.2802073E+03  0.7561462E-02  0.1095576E+00
          2   -1    0    0  501    0  0.00000000000E+00  0.00000000000E+00  0.80547684326E+02  0.80547684326E+02  0.00000000000E+00 0. -1.
         -2   -1    0    0    0  501 -0.00000000000E+00 -0.00000000000E+00 -0.10747656863E+04  0.10747656863E+04  0.00000000000E+00 0.  1.
         25    2    1    2    0    0  0.24978700901E+03 -0.10374020946E+03 -0.43304217630E+03  0.52566884998E+03  0.12508649990E+03 0.  0.
          5    1    3    3  502    0  0.25851496658E+02 -0.31255831691E+02 -0.10712532374E+02  0.42159905645E+02  0.41800000000E+01 0. -1.
         -5    1    3    3    0  502  0.22393551235E+03 -0.72484377765E+02 -0.42232964393E+03  0.48350894434E+03  0.41800000000E+01 0. -1.
        -11    1    1    2    0    0 -0.10507919836E+03  0.90917680266E+02 -0.30457096855E+03  0.33477027556E+03  0.00000000000E+00 0. -1.
         11    1    1    2    0    0 -0.14470781065E+03  0.12822529189E+02 -0.25660485715E+03  0.29487424511E+03  0.00000000000E+00 0.  1.
</event>
<event>
 7    1  0.2732144E-009  0.8968836E+02  0.7561462E-02  0.1303608E+00
         -1   -1    0    0    0  501 -0.00000000000E+00  0.00000000000E+00  0.21766862868E+02  0.21766862868E+02  0.00000000000E+00 0.  1.
          1   -1    0    0  501    0  0.00000000000E+00 -0.00000000000E+00 -0.55638493093E+03  0.55638493093E+03  0.00000000000E+00 0. -1.
         25    2    1    2    0    0 -0.20052017052E+02 -0.16111127222E+02 -0.32026587965E+03  0.34478918378E+03  0.12509075015E+03 0.  0.
          5    1    3    3  502    0  0.50250394520E+02 -0.89945912727E+01 -0.86354957571E+02  0.10040246968E+03  0.41800000000E+01 0. -1.
         -5    1    3    3    0  502 -0.70302411571E+02 -0.71165359490E+01 -0.23391092208E+03  0.24438671409E+03  0.41800000000E+01 0. -1.
        -11    1    1    2    0    0  0.26541923256E+02  0.31190413999E+02 -0.21298757093E+03  0.21688942110E+03  0.00000000000E+00 0. -1.
         11    1    1    2    0    0 -0.64899062039E+01 -0.15079286778E+02 -0.13646174797E+01  0.16473188918E+02  0.00000000000E+00 0.  1.
</event>
<event>
 7    1  0.2732144E-009  0.9273080E+02  0.7561462E-02  0.1296370E+00
          1   -1    0    0  501    0  0.00000000000E+00  0.00000000000E+00  0.49230745731E+03  0.49230745731E+03  0.00000000000E+00 0. -1.
         -1   -1    0    0    0  501 -0.00000000000E+00 -0.00000000000E+00 -0.25566329657E+02  0.25566329657E+02  0.00000000000E+00 0.  1.
         25    2    1    2    0    0  0.51332983883E+01 -0.18677487873E+02  0.21710534794E+03  0.25131133623E+03  0.12508979298E+03 0.  0.
          5    1    3    3  502    0  0.41542403703E+02 -0.46015346493E+02  0.18576198876E+03  0.19587795253E+03  0.41800000000E+01 0.  1.
         -5    1    3    3    0  502 -0.36409105315E+02  0.27337858621E+02  0.31343359178E+02  0.55433383699E+02  0.41800000000E+01 0.  1.
        -11    1    1    2    0    0  0.33400390887E+02 -0.27533669628E+01  0.39274736649E+02  0.51630147007E+02  0.00000000000E+00 0.  1.
         11    1    1    2    0    0 -0.38533689276E+02  0.21430854836E+02  0.21036104306E+03  0.21493230373E+03  0.00000000000E+00 0. -1.
</event>
<event>
 7    1  0.2732144E-009  0.1270570E+03  0.7561462E-02  0.1231889E+00
         -1   -1    0    0    0  501 -0.00000000000E+00  0.00000000000E+00  0.64358235560E+02  0.64358235560E+02  0.00000000000E+00 0.  1.
          1   -1    0    0  501    0  0.00000000000E+00 -0.00000000000E+00 -0.29231546464E+03  0.29231546464E+03  0.00000000000E+00 0. -1.
         25    2    1    2    0    0 -0.38186220402E+02  0.61810242524E+02 -0.71826176841E+02  0.16150998401E+03  0.12509109379E+03 0.  0.
          5    1    3    3  502    0 -0.40316164169E+02 -0.27397192485E+02 -0.35064628918E+01  0.49048618038E+02  0.41800000000E+01 0. -1.
         -5    1    3    3    0  502  0.21299437673E+01  0.89207435009E+02 -0.68319713949E+02  0.11246136597E+03  0.41800000000E+01 0. -1.
        -11    1    1    2    0    0  0.64604443812E+02 -0.22326643574E+02 -0.10574218669E+03  0.12591117194E+03  0.00000000000E+00 0.  1.
         11    1    1    2    0    0 -0.26418223410E+02 -0.39483598950E+02 -0.50388865546E+02  0.69252544251E+02  0.00000000000E+00 0. -1.
</event>
<event>
 7    1  0.2732144E-009  0.1186636E+03  0.7561462E-02  0.1245318E+00
         -1   -1    0    0    0  501 -0.00000000000E+00  0.00000000000E+00  0.33139160507E+03  0.33139160507E+03  0.00000000000E+00 0.  1.
          1   -1    0    0  501    0  0.00000000000E+00 -0.00000000000E+00 -0.44823752287E+02  0.44823752287E+02  0.00000000000E+00 0. -1.
         25    2    1    2    0    0  0.48279390609E+02  0.26793955724E+01  0.19755366570E+03  0.23878049363E+03  0.12510233645E+03 0.  0.
          5    1    3    3  502    0  0.80523073375E+02 -0.31772648515E+02  0.12364460781E+03  0.15099313885E+03  0.41800000000E+01 0. -1.
         -5    1    3    3    0  502 -0.32243682766E+02  0.34452044087E+02  0.73909057895E+02  0.87787354779E+02  0.41800000000E+01 0. -1.
        -11    1    1    2    0    0 -0.13331602573E+02  0.43431594793E+02  0.50508229366E+02  0.67934647177E+02  0.00000000000E+00 0. -1.
         11    1    1    2    0    0 -0.34947788036E+02 -0.46110990365E+02  0.38505957708E+02  0.69500216547E+02  0.00000000000E+00 0.  1.
</event>
<event>
 7    1  0.2732144E-009  0.9860628E+02  0.7561462E-02  0.1283254E+00
          1   -1    0    0  501    0  0.00000000000E+00  0.00000000000E+00  0.10394841484E+03  0.10394841484E+03  0.00000000000E+00 0. -1.
         -1   -1    0    0    0  501 -0.00000000000E+00 -0.00000000000E+00 -0.14244924533E+03  0.14244924533E+03  0.00000000000E+00 0.  1.
         25    2    1    2    0    0  0.36270045708E+02 -0.39489279195E+02 -0.39039600900E+02  0.14158527286E+03  0.12508948663E+03 0.  0.
          5    1    3    3  502    0  0.28799814304E+02 -0.84094298598E+02 -0.36228321702E+02  0.96079363309E+02  0.41800000000E+01 0.  1.
         -5    1    3    3    0  502  0.74702314043E+01  0.44605019403E+02 -0.28112791982E+01  0.45505909549E+02  0.41800000000E+01 0.  1.
        -11    1    1    2    0    0 -0.37677637135E+02  0.18869824861E+02  0.41367740294E+02  0.59050525548E+02  0.00000000000E+00 0. -1.
         11    1    1    2    0    0  0.14075914271E+01  0.20619454334E+02 -0.40828969881E+02  0.45761861765E+02  0.00000000000E+00 0.  1.
</event>
<event>
 7    1  0.2732144E-009  0.4972545E+02  0.7561462E-02  0.1446828E+00
         -1   -1    0    0    0  501 -0.00000000000E+00  0.00000000000E+00  0.63418524684E+02  0.63418524684E+02  0.00000000000E+00 0.  1.
          1   -1    0    0  501    0  0.00000000000E+00 -0.00000000000E+00 -0.31666395858E+03  0.31666395858E+03  0.00000000000E+00 0. -1.
         25    2    1    2    0    0 -0.41072630626E+01 -0.22242599158E+01 -0.25785231027E+03  0.28663163696E+03  0.12509222378E+03 0.  0.
          5    1    3    3  502    0 -0.17256423175E+02 -0.29173505306E+02 -0.25379791290E+03  0.25608539698E+03  0.41800000000E+01 0. -1.
         -5    1    3    3    0  502  0.13149160112E+02  0.26949245390E+02 -0.40543973679E+01  0.30546239978E+02  0.41800000000E+01 0. -1.
        -11    1    1    2    0    0  0.56836535223E+01 -0.15871641553E+02 -0.41015667887E+02  0.44345213216E+02  0.00000000000E+00 0. -1.
         11    1    1    2    0    0 -0.15763904597E+01  0.18095901468E+02  0.45622544259E+02  0.49105633093E+02  0.00000000000E+00 0.  1.
</event>
<event>
 7    1  0.2732144E-009  0.1014773E+03  0.7561462E-02  0.1277220E+00
          2   -1    0    0  501    0  0.00000000000E+00  0.00000000000E+00  0.10256182434E+04  0.10256182434E+04  0.00000000000E+00 0. -1.
         -2   -1    0    0    0  501 -0.00000000000E+00 -0.00000000000E+00 -0.16881022309E+02  0.16881022309E+02  0.00000000000E+00 0.  1.
         25    2    1    2    0    0 -0.32860946743E+02 -0.57483566894E+02  0.69375002321E+03  0.70804074180E+03  0.12509354523E+03 0.  0.
          5    1    3    3  502    0  0.18465679037E+02 -0.17372461241E+02  0.24138239585E+02  0.35254938975E+02  0.41800000000E+01 0.  1.
         -5    1    3    3    0  502 -0.51326625780E+02 -0.40111105653E+02  0.66961178363E+03  0.67278580282E+03  0.41800000000E+01 0.  1.
        -11    1    1    2    0    0  0.64292249203E+02  0.43212830833E+02  0.23147815008E+03  0.24409624336E+03  0.00000000000E+00 0.  1.
         11    1    1    2    0    0 -0.31431302460E+02  0.14270736061E+02  0.83509047775E+02  0.90362280528E+02  0.00000000000E+00 0. -1.
</event>
<event>
 7    1  0.2732144E-009  0.1124125E+03  0.7561462E-02  0.1256166E+00
          2   -1    0    0  501    0  0.00000000000E+00  0.00000000000E+00  0.14544425994E+03  0.14544425994E+03  0.00000000000E+00 0. -1.
         -2   -1    0    0    0  501 -0.00000000000E+00 -0.00000000000E+00 -0.13808127973E+03  0.13808127973E+03  0.00000000000E+00 0.  1.
         25    2    1    2    0    0 -0.79122588352E+02  0.45774522303E+02  0.20752373243E+01  0.15494426175E+03  0.12509087401E+03 0.  0.
          5    1    3    3  502    0 -0.50559482240E+02 -0.24023023116E+02 -0.39584097998E+02  0.68685807110E+02  0.41800000000E+01 0. -1.
         -5    1    3    3    0  502 -0.28563106112E+02  0.69797545420E+02  0.41659335322E+02  0.86258454640E+02  0.41800000000E+01 0. -1.
        -11    1    1    2    0    0  0.27044132381E+02 -0.61827506980E+01  0.44405355327E+02  0.52358830050E+02  0.00000000000E+00 0. -1.
         11    1    1    2    0    0  0.52078455971E+02 -0.39591771605E+02 -0.39117612447E+02  0.76222447867E+02  0.00000000000E+00 0.  1.
</event>
<event>
 7    1  0.2732144E-009  0.1211920E+03  0.7561462E-02  0.1241144E+00
          1   -1    0    0  501    0  0.00000000000E+00  0.00000000000E+00  0.15459306277E+04  0.15459306277E+04  0.00000000000E+00 0. -1.
         -1   -1    0    0    0  501 -0.00000000000E+00 -0.00000000000E+00 -0.14558281559E+02  0.14558281559E+02  0.00000000000E+00 0.  1.
         25    2    1    2    0    0  0.75215725161E+02 -0.29184202394E+02  0.11560256218E+04  0.11655691469E+04  0.12508826843E+03 0.  0.
          5    1    3    3  502    0  0.44102943959E+02  0.32603956037E+02  0.21256778152E+03  0.21956917305E+03  0.41800000000E+01 0.  1.
         -5    1    3    3    0  502  0.31112781202E+02 -0.61788158431E+02  0.94345784031E+03  0.94599997385E+03  0.41800000000E+01 0.  1.
        -11    1    1    2    0    0  0.18865763833E+02 -0.19686917162E+01  0.28837687806E+02  0.34516735507E+02  0.00000000000E+00 0.  1.
         11    1    1    2    0    0 -0.94081488994E+02  0.31152894110E+02  0.34650903648E+03  0.36040302682E+03  0.00000000000E+00 0. -1.
</event>
<event>
 7    1  0.2732144E-009  0.2559936E+03  0.7561462E-02  0.1109575E+00
         -1   -1    0    0    0  501 -0.00000000000E+00  0.00000000000E+00  0.60786253300E+03  0.60786253300E+03  0.00000000000E+00 0.  1.
          1   -1    0    0  501    0  0.00000000000E+00 -0.00000000000E+00 -0.15559020058E+03  0.15559020058E+03  0.00000000000E+00 0. -1.
         25    2    1    2    0    0  0.23342809112E+03 -0.62836614630E+02  0.36819832590E+02  0.27466321913E+03  0.12508824888E+03 0.  0.
          5    1    3    3  502    0  0.20284330733E+03 -0.67986842307E+01  0.46515962719E+01  0.20305353772E+03  0.41800000000E+01 0.  1.
         -5    1    3    3    0  502  0.30584783793E+02 -0.56037930399E+02  0.32168236318E+02  0.71609681405E+02  0.41800000000E+01 0.  1.
        -11    1    1    2    0    0 -0.41045110631E+02  0.27504820225E+02  0.33588587336E+02  0.59744534826E+02  0.00000000000E+00 0.  1.
         11    1    1    2    0    0 -0.19238298049E+03  0.35331794405E+02  0.38186391250E+03  0.42904497963E+03  0.00000000000E+00 0. -1.
</event>
<event>
 7    1  0.2732144E-009  0.9754462E+02  0.7561462E-02  0.1285546E+00
         -2   -1    0    0    0  501 -0.00000000000E+00  0.00000000000E+00  0.39506353067E+02  0.39506353067E+02  0.00000000000E+00 0.  1.
          2   -1    0    0  501    0  0.00000000000E+00 -0.00000000000E+00 -0.36676774263E+03  0.36676774263E+03  0.00000000000E+00 0. -1.
         25    2    1    2    0    0  0.28693275477E+02 -0.44690387961E+02 -0.16982231496E+03  0.21750467680E+03  0.12509248954E+03 0.  0.
          5    1    3    3  502    0  0.57601630472E+02 -0.53756707706E+02 -0.16945027795E+03  0.18691870038E+03  0.41800000000E+01 0.  1.
         -5    1    3    3    0  502 -0.28908354995E+02  0.90663197444E+01 -0.37203701902E+00  0.30585976424E+02  0.41800000000E+01 0.  1.
        -11    1    1    2    0    0  0.22158619249E+02  0.13166148751E+02 -0.67605376197E+01  0.26646890041E+02  0.00000000000E+00 0.  1.
         11    1    1    2    0    0 -0.50851894726E+02  0.31524239210E+02 -0.15067853698E+03  0.16212252885E+03  0.00000000000E+00 0. -1.
</event>
<event>
 7    1  0.2899492E-009  0.1488065E+03  0.7561462E-02  0.1201947E+00
         -2   -1    0    0    0  501 -0.00000000000E+00  0.00000000000E+00  0.26012225066E+03  0.26012225066E+03  0.00000000000E+00 0.  1.
          2   -1    0    0  501    0  0.00000000000E+00 -0.00000000000E+00 -0.13024536136E+03  0.13024536136E+03  0.00000000000E+00 0. -1.
         25    2    1    2    0    0 -0.50139966202E+02 -0.11505674992E+03  0.15195387774E+03  0.23345107003E+03  0.12512932999E+03 0.  0.
          5    1    3    3  502    0  0.18447845343E+02  0.15536362913E+02  0.44908339379E+02  0.51146191610E+02  0.41800000000E+01 0. -1.
         -5    1    3    3    0  502 -0.68587811546E+02 -0.13059311284E+03  0.10704553836E+03  0.18230487842E+03  0.41800000000E+01 0. -1.
        -11    1    1    2    0    0  0.33428279120E+02  0.72040138024E+02 -0.58076273049E+02  0.98387422076E+02  0.00000000000E+00 0. -1.
         11    1    1    2    0    0  0.16711687082E+02  0.43016611901E+02  0.35999284610E+02  0.58529119906E+02  0.00000000000E+00 0.  1.
</event>
<event>
 7    1  0.2732144E-009  0.1991038E+03  0.7561462E-02  0.1150497E+00
          1   -1    0    0  501    0  0.00000000000E+00  0.00000000000E+00  0.31996776934E+03  0.31996776934E+03  0.00000000000E+00 0. -1.
         -1   -1    0    0    0  501 -0.00000000000E+00 -0.00000000000E+00 -0.13035536953E+03  0.13035536953E+03  0.00000000000E+00 0.  1.
         25    2    1    2    0    0 -0.66284371020E+02 -0.15473988711E+03  0.14560664350E+03  0.25532004344E+03  0.12509588101E+03 0.  0.
          5    1    3    3  502    0 -0.15244616026E+02 -0.15646761636E+03  0.97494758669E+02  0.18503300694E+03  0.41800000000E+01 0. -1.
         -5    1    3    3    0  502 -0.51039754994E+02  0.17277292505E+01  0.48111884832E+02  0.70287036503E+02  0.41800000000E+01 0. -1.
        -11    1    1    2    0    0 -0.15215637627E+02  0.71906123311E+02  0.22119476846E+02  0.76754657539E+02  0.00000000000E+00 0.  1.
         11    1    1    2    0    0  0.81500008647E+02  0.82833763800E+02  0.21886279460E+02  0.11824843789E+03  0.00000000000E+00 0. -1.
</event>
<event>
 7    1  0.2732144E-009  0.1136895E+03  0.7561462E-02  0.1253886E+00
         -2   -1    0    0    0  501 -0.00000000000E+00  0.00000000000E+00  0.69566737773E+02  0.69566737773E+02  0.00000000000E+00 0.  1.
          2   -1    0    0  501    0  0.00000000000E+00 -0.00000000000E+00 -0.23938137452E+03  0.23938137452E+03  0.00000000000E+00 0. -1.
         25    2    1    2    0    0 -0.47624446685E+02  0.48765520525E+02 -0.77750026081E+02  0.16230308138E+03  0.12510419560E+03 0.  0.
          5    1    3    3  502    0 -0.89958694620E+02  0.27558812061E+02 -0.43640406864E+02  0.10379794011E+03  0.41800000000E+01 0. -1.
         -5    1    3    3    0  502  0.42334247936E+02  0.21206708464E+02 -0.34109619218E+02  0.58505141272E+02  0.41800000000E+01 0. -1.
        -11    1    1    2    0    0  0.38975737201E+02 -0.29985212784E+01  0.45838662435E+01  0.39358748074E+02  0.00000000000E+00 0.  1.
         11    1    1    2    0    0  0.86487094838E+01 -0.45766999246E+02 -0.96648476905E+02  0.10728628283E+03  0.00000000000E+00 0. -1.
</event>
<event>
 7    1  0.2732144E-009  0.8569842E+02  0.7561462E-02  0.1313616E+00
         -4   -1    0    0    0  501 -0.00000000000E+00  0.00000000000E+00  0.85715977020E+02  0.85715977020E+02  0.00000000000E+00 0.  1.
          4   -1    0    0  501    0  0.00000000000E+00 -0.00000000000E+00 -0.34744376452E+03  0.34744376452E+03  0.00000000000E+00 0. -1.
         25    2    1    2    0    0 -0.38189382035E+02 -0.11557479321E+02  0.22014955222E+02  0.13313627338E+03  0.12509438359E+03 0.  0.
          5    1    3    3  502    0 -0.30359250898E+02 -0.39653451509E+02  0.64346444920E+02  0.81559902559E+02  0.41800000000E+01 0. -1.
         -5    1    3    3    0  502 -0.78301311372E+01  0.28095972188E+02 -0.42331489697E+02  0.51576370819E+02  0.41800000000E+01 0. -1.
        -11    1    1    2    0    0  0.28505695332E+02  0.47058417654E+02 -0.21637956541E+03  0.22326483303E+03  0.00000000000E+00 0. -1.
         11    1    1    2    0    0  0.96836867030E+01 -0.35500938333E+02 -0.67363177313E+02  0.76758635139E+02  0.00000000000E+00 0.  1.
</event>
<event>
 7    1  0.2732144E-009  0.8176691E+02  0.7561462E-02  0.1324111E+00
         -2   -1    0    0    0  501 -0.00000000000E+00  0.00000000000E+00  0.15557719392E+02  0.15557719392E+02  0.00000000000E+00 0.  1.
          2   -1    0    0  501    0  0.00000000000E+00 -0.00000000000E+00 -0.10560376712E+04  0.10560376712E+04  0.00000000000E+00 0. -1.
         25    2    1    2    0    0 -0.52246911453E+02 -0.18416848004E+02 -0.40826350932E+03  0.43056981091E+03  0.12506937664E+03 0.  0.
          5    1    3    3  502    0 -0.46824638776E+02 -0.12654986437E+02 -0.41594028223E+03  0.41877975866E+03  0.41800000000E+01 0. -1.
         -5    1    3    3    0  502 -0.54222726776E+01 -0.57618615669E+01  0.76767729094E+01  0.11790052248E+02  0.41800000000E+01 0. -1.
        -11    1    1    2    0    0  0.67072193308E+02 -0.15540126519E+02 -0.41406008383E+03  0.41974507462E+03  0.00000000000E+00 0. -1.
         11    1    1    2    0    0 -0.14825281855E+02  0.33956974523E+02 -0.21815635870E+03  0.22128050511E+03  0.00000000000E+00 0.  1.
</event>
<event>
 7    1  0.2732144E-009  0.1123746E+03  0.7561462E-02  0.1256235E+00
          2   -1    0    0  501    0  0.00000000000E+00  0.00000000000E+00  0.46978153684E+02  0.46978153684E+02  0.00000000000E+00 0. -1.
         -2   -1    0    0    0  501 -0.00000000000E+00 -0.00000000000E+00 -0.35676115232E+03  0.35676115232E+03  0.00000000000E+00 0.  1.
         25    2    1    2    0    0 -0.71925203004E+02 -0.15949328263E+01 -0.18231044478E+03  0.23253001834E+03  0.12512926323E+03 0.  0.
          5    1    3    3  502    0 -0.38112262183E+02 -0.43288908062E+02 -0.19466938973E+02  0.61015639002E+02  0.41800000000E+01 0.  1.
         -5    1    3    3    0  502 -0.33812940821E+02  0.41693975235E+02 -0.16284350581E+03  0.17151437934E+03  0.41800000000E+01 0.  1.
        -11    1    1    2    0    0  0.25879475904E+01 -0.34713505738E+02 -0.28237591702E+02  0.44822835011E+02  0.00000000000E+00 0. -1.
         11    1    1    2    0    0  0.69337255414E+02  0.36308438564E+02 -0.99234962159E+02  0.12638645265E+03  0.00000000000E+00 0.  1.
</event>
<event>
 7    1  0.2732144E-009  0.1206678E+03  0.7561462E-02  0.1242000E+00
          1   -1    0    0  501    0  0.00000000000E+00  0.00000000000E+00  0.36093813553E+03  0.36093813553E+03  0.00000000000E+00 0. -1.
         -1   -1    0    0    0  501 -0.00000000000E+00 -0.00000000000E+00 -0.41506641698E+02  0.41506641698E+02  0.00000000000E+00 0.  1.
         25    2    1    2    0    0 -0.31277765479E+02 -0.46757621530E+02  0.19793577903E+03  0.24081264948E+03  0.12509031036E+03 0.  0.
          5    1    3    3  502    0 -0.63883874639E+02 -0.71262956736E+02  0.14638222044E+03  0.17494223419E+03  0.41800000000E+01 0.  1.
         -5    1    3    3    0  502  0.32606109160E+02  0.24505335206E+02  0.51553558583E+02  0.65870415291E+02  0.41800000000E+01 0.  1.
        -11    1    1    2    0    0  0.42103072852E+02 -0.12798213654E+02  0.35878058402E+02  0.56777619632E+02  0.00000000000E+00 0.  1.
         11    1    1    2    0    0 -0.10825307374E+02  0.59555835184E+02  0.85617656404E+02  0.10485450812E+03  0.00000000000E+00 0. -1.
</event>
<event>
 7    1  0.2732144E-009  0.9836682E+02  0.7561462E-02  0.1283768E+00
          1   -1    0    0  501    0  0.00000000000E+00  0.00000000000E+00  0.67110705754E+02  0.67110705754E+02  0.00000000000E+00 0. -1.
         -1   -1    0    0    0  501 -0.00000000000E+00 -0.00000000000E+00 -0.20514381934E+03  0.20514381934E+03  0.00000000000E+00 0.  1.
         25    2    1    2    0    0  0.31453776598E+02 -0.49581234560E+02 -0.87188956819E+02  0.16339313711E+03  0.12509102358E+03 0.  0.
          5    1    3    3  502    0  0.40370579558E+02  0.33304433147E+02 -0.48182209239E+02  0.71259852990E+02  0.41800000000E+01 0.  1.
         -5    1    3    3    0  502 -0.89168029602E+01 -0.82885667707E+02 -0.39006747580E+02  0.92133284122E+02  0.41800000000E+01 0.  1.
        -11    1    1    2    0    0 -0.23167371364E+02  0.21943486249E+02 -0.68125673724E+02  0.75228658801E+02  0.00000000000E+00 0.  1.
         11    1    1    2    0    0 -0.82864052336E+01  0.27637748311E+02  0.17281516961E+02  0.33632729177E+02  0.00000000000E+00 0. -1.
</event>
<event>
 7    1  0.2732144E-009  0.8522008E+02  0.7561462E-02  0.1314858E+00
         -1   -1    0    0    0  501 -0.00000000000E+00  0.00000000000E+00  0.27624637999E+03  0.27624637999E+03  0.00000000000E+00 0.  1.
          1   -1    0    0  501    0  0.00000000000E+00 -0.00000000000E+00 -0.49783048608E+02  0.49783048608E+02  0.00000000000E+00 0. -1.
         25    2    1    2    0    0  0.23404762814E+02  0.34537126004E+02  0.13543937050E+03  0.18902837015E+03  0.12508919076E+03 0.  0.
          5    1    3    3  502    0 -0.37725268197E+02 -0.17521773977E+02  0.83296124001E+02  0.93198310594E+02  0.41800000000E+01 0. -1.
         -5    1    3    3    0  502  0.61130031011E+02  0.52058899981E+02  0.52143246500E+02  0.95830059555E+02  0.41800000000E+01 0. -1.
        -11    1    1    2    0    0 -0.13454799604E+02 -0.35760569870E+02  0.10950327135E+03  0.11597765486E+03  0.00000000000E+00 0.  1.
         11    1    1    2    0    0 -0.99499632096E+01  0.12234438656E+01 -0.18479310475E+02  0.21023403587E+02  0.00000000000E+00 0. -1.
</event>
<event>
 7    1  0.2732144E-009  0.1208779E+03  0.7561462E-02  0.1241656E+00
         -2   -1    0    0    0  501 -0.00000000000E+00  0.00000000000E+00  0.45944159834E+02  0.45944159834E+02  0.00000000000E+00 0.  1.
          2   -1    0    0  501    0  0.00000000000E+00 -0.00000000000E+00 -0.36567030921E+03  0.36567030921E+03  0.00000000000E+00 0. -1.
         25    2    1    2    0    0 -0.43570777717E+02  0.56052777946E+02 -0.19337376489E+03  0.24100042992E+03  0.12508983846E+03 0.  0.
          5    1    3    3  502    0  0.20666357947E+02  0.66440623892E+02 -0.14128073086E+03  0.15754101741E+03  0.41800000000E+01 0.  1.
         -5    1    3    3    0  502 -0.64237135664E+02 -0.10387845946E+02 -0.52093034032E+02  0.83459412509E+02  0.41800000000E+01 0.  1.
        -11    1    1    2    0    0  0.61731074409E+02 -0.17398211938E+02 -0.10457100894E+03  0.12267240617E+03  0.00000000000E+00 0.  1.
         11    1    1    2    0    0 -0.18160296692E+02 -0.38654566008E+02 -0.21781375544E+02  0.47941632949E+02  0.00000000000E+00 0. -1.
</event>
<event>
 7    1  0.2732144E-009  0.1650502E+03  0.7561462E-02  0.1183110E+00
         -1   -1    0    0    0  501 -0.00000000000E+00  0.00000000000E+00  0.12532564089E+03  0.12532564089E+03  0.00000000000E+00 0.  1.
          1   -1    0    0  501    0  0.00000000000E+00 -0.00000000000E+00 -0.25786092264E+03  0.25786092264E+03  0.00000000000E+00 0. -1.
         25    2    1    2    0    0  0.12567386223E+03 -0.64330335399E+02 -0.76074998109E+02  0.20338936281E+03  0.12509003103E+03 0.  0.
          5    1    3    3  502    0  0.31660394833E+02 -0.73222709197E+02  0.33079031229E+01  0.79952238031E+02  0.41800000000E+01 0.  1.
         -5    1    3    3    0  502  0.94013467401E+02  0.88923737980E+01 -0.79382901232E+02  0.12343712477E+03  0.41800000000E+01 0.  1.
        -11    1    1    2    0    0 -0.11581590905E+03  0.29529851917E+02 -0.86324877033E+01  0.11983261988E+03  0.00000000000E+00 0.  1.
         11    1    1    2    0    0 -0.98579531820E+01  0.34800483482E+02 -0.47827795941E+02  0.59964580846E+02  0.00000000000E+00 0. -1.
</event>
<event>
 7    1  0.2732144E-009  0.8486559E+02  0.7561462E-02  0.1315784E+00
          2   -1    0    0  501    0  0.00000000000E+00  0.00000000000E+00  0.41448941014E+02  0.41448941014E+02  0.00000000000E+00 0. -1.
         -2   -1    0    0    0  501 -0.00000000000E+00 -0.00000000000E+00 -0.28227504265E+03  0.28227504265E+03  0.00000000000E+00 0.  1.
         25    2    1    2    0    0  0.13062489169E+02 -0.11724182342E+02 -0.14972315991E+03  0.19588788130E+03  0.12508777858E+03 0.  0.
          5    1    3    3  502    0 -0.39438296703E+02  0.24609725225E+02 -0.19091429653E+02  0.50427898119E+02  0.41800000000E+01 0.  1.
         -5    1    3    3    0  502  0.52500785872E+02 -0.36333907567E+02 -0.13063173026E+03  0.14545998318E+03  0.41800000000E+01 0.  1.
        -11    1    1    2    0    0 -0.11667713538E+01 -0.22659499462E+02  0.65578260949E+01  0.23618199643E+02  0.00000000000E+00 0. -1.
         11    1    1    2    0    0 -0.11895717815E+02  0.34383681804E+02 -0.97660767826E+02  0.10421790273E+03  0.00000000000E+00 0.  1.
</event>
<event>
 7    1  0.2732144E-009  0.1431871E+03  0.7561462E-02  0.1209104E+00
          2   -1    0    0  501    0  0.00000000000E+00  0.00000000000E+00  0.15505046834E+03  0.15505046834E+03  0.00000000000E+00 0. -1.
         -2   -1    0    0    0  501 -0.00000000000E+00 -0.00000000000E+00 -0.14541674965E+03  0.14541674965E+03  0.00000000000E+00 0.  1.
         25    2    1    2    0    0  0.62541412809E+02 -0.80508950758E+02  0.20899249425E+02  0.16271789866E+03  0.12508883423E+03 0.  0.
          5    1    3    3  502    0  0.70013133808E+02 -0.10688599946E+03 -0.24710072880E+00  0.12784361246E+03  0.41800000000E+01 0.  1.
         -5    1    3    3    0  502 -0.74717209995E+01  0.26377048706E+02  0.21146350154E+02  0.34874286200E+02  0.41800000000E+01 0.  1.
        -11    1    1    2    0    0 -0.65805152788E+02  0.18023803083E+02 -0.26760157608E+02  0.73289028143E+02  0.00000000000E+00 0.  1.
         11    1    1    2    0    0  0.32637399792E+01  0.62485147675E+02  0.15494626868E+02  0.64460291191E+02  0.00000000000E+00 0. -1.
</event>
<event>
 7    1  0.2732144E-009  0.1356081E+03  0.7561462E-02  0.1219364E+00
          2   -1    0    0  501    0  0.00000000000E+00  0.00000000000E+00  0.46283304444E+02  0.46283304444E+02  0.00000000000E+00 0. -1.
         -2   -1    0    0    0  501 -0.00000000000E+00 -0.00000000000E+00 -0.50683425408E+03  0.50683425408E+03  0.00000000000E+00 0.  1.
         25    2    1    2    0    0 -0.89161137410E+02  0.30677038497E+02 -0.15189466267E+03  0.21819800654E+03  0.12509033695E+03 0.  0.
          5    1    3    3  502    0 -0.50681386867E+02 -0.44089229791E+02 -0.95615934819E+02  0.11692879265E+03  0.41800000000E+01 0.  1.
         -5    1    3    3    0  502 -0.38479750543E+02  0.74766268288E+02 -0.56278727849E+02  0.10126921390E+03  0.41800000000E+01 0.  1.
        -11    1    1    2    0    0  0.22448758665E+01  0.19319947160E+02 -0.11712509137E+03  0.11872904806E+03  0.00000000000E+00 0.  1.
         11    1    1    2    0    0  0.86916261544E+02 -0.49996985657E+02 -0.19153119560E+03  0.21619050391E+03  0.00000000000E+00 0. -1.
</event>
<event>
 7    1  0.2769683E-009  0.1223155E+03  0.7561462E-02  0.1239325E+00
          2   -1    0    0  501    0  0.00000000000E+00  0.00000000000E+00  0.53481328765E+03  0.53481328765E+03  0.00000000000E+00 0. -1.
         -2   -1    0    0    0  501 -0.00000000000E+00 -0.00000000000E+00 -0.38997273611E+02  0.38997273611E+02  0.00000000000E+00 0.  1.
         25    2    1    2    0    0  0.27602962609E+02  0.67364519075E+02  0.14779914004E+03  0.20683439131E+03  0.12504390292E+03 0.  0.
          5    1    3    3  502    0  0.67572990902E+02  0.52539410113E+02  0.13870705170E+03  0.16304483219E+03  0.41800000000E+01 0.  1.
         -5    1    3    3    0  502 -0.39970028292E+02  0.14825108962E+02  0.90920883434E+01  0.43789559119E+02  0.41800000000E+01 0.  1.
        -11    1    1    2    0    0 -0.57963704555E+02 -0.23043797459E+02  0.20068152633E+03  0.21015204652E+03  0.00000000000E+00 0.  1.
         11    1    1    2    0    0  0.30360741945E+02 -0.44320721616E+02  0.14733534767E+03  0.15682412343E+03  0.00000000000E+00 0. -1.
</event>
<event>
 7    1  0.2732144E-009  0.9206305E+02  0.7561462E-02  0.1297931E+00
          1   -1    0    0  501    0  0.00000000000E+00  0.00000000000E+00  0.26249033788E+02  0.26249033788E+02  0.00000000000E+00 0. -1.
         -1   -1    0    0    0  501 -0.00000000000E+00 -0.00000000000E+00 -0.47257067825E+03  0.47257067825E+03  0.00000000000E+00 0.  1.
         25    2    1    2    0    0  0.97089016825E+01  0.11539544259E+02 -0.30144025582E+03  0.32671170916E+03  0.12508752625E+03 0.  0.
          5    1    3    3  502    0  0.57832401532E+02 -0.18183494485E+02 -0.21422173164E+03  0.22267386206E+03  0.41800000000E+01 0.  1.
         -5    1    3    3    0  502 -0.48123499849E+02  0.29723038744E+02 -0.87218524180E+02  0.10403784710E+03  0.41800000000E+01 0.  1.
        -11    1    1    2    0    0  0.24113671388E+02 -0.20502588647E+02 -0.10656454464E+02  0.33397384789E+02  0.00000000000E+00 0. -1.
         11    1    1    2    0    0 -0.33822573070E+02  0.89630443882E+01 -0.13422493418E+03  0.13871061809E+03  0.00000000000E+00 0.  1.
</event>
<event>
 7    1  0.2732144E-009  0.1572194E+03  0.7561462E-02  0.1191872E+00
          2   -1    0    0  501    0  0.00000000000E+00  0.00000000000E+00  0.24548797769E+03  0.24548797769E+03  0.00000000000E+00 0. -1.
         -2   -1    0    0    0  501 -0.00000000000E+00 -0.00000000000E+00 -0.13830282258E+03  0.13830282258E+03  0.00000000000E+00 0.  1.
         25    2    1    2    0    0 -0.11192147860E+03  0.27158675172E+02 -0.42325898643E+02  0.17522243124E+03  0.12508959871E+03 0.  0.
          5    1    3    3  502    0  0.27745278170E+02  0.62716673127E+01 -0.73855566200E+01  0.29684223389E+02  0.41800000000E+01 0. -1.
         -5    1    3    3    0  502 -0.13966675677E+03  0.20887007859E+02 -0.34940342023E+02  0.14553820785E+03  0.41800000000E+01 0. -1.
        -11    1    1    2    0    0  0.37842778568E+02 -0.53718885909E+02  0.80374639355E+02  0.10381655573E+03  0.00000000000E+00 0. -1.
         11    1    1    2    0    0  0.74078700034E+02  0.26560210738E+02  0.69136414399E+02  0.10475181330E+03  0.00000000000E+00 0.  1.
</event>
<event>
 7    1  0.2732144E-009  0.6012615E+02  0.7561462E-02  0.1397303E+00
         -2   -1    0    0    0  501 -0.00000000000E+00  0.00000000000E+00  0.72334754340E+03  0.72334754340E+03  0.00000000000E+00 0.  1.
          2   -1    0    0  501    0  0.00000000000E+00 -0.00000000000E+00 -0.20696081922E+02  0.20696081922E+02  0.00000000000E+00 0. -1.
         25    2    1    2    0    0  0.17397022711E+02 -0.45425034523E+02  0.46906523182E+03  0.48788889917E+03  0.12508915250E+03 0.  0.
          5    1    3    3  502    0  0.15865760549E+02 -0.39210074485E+02  0.47580357891E+03  0.47769830480E+03  0.41800000000E+01 0. -1.
         -5    1    3    3    0  502  0.15312621617E+01 -0.62149600381E+01 -0.67383470963E+01  0.10190594373E+02  0.41800000000E+01 0. -1.
        -11    1    1    2    0    0 -0.34374591309E+02  0.38908004014E+02  0.23218130333E+03  0.23791511705E+03  0.00000000000E+00 0.  1.
         11    1    1    2    0    0  0.16977568598E+02  0.65170305086E+01  0.14049263267E+01  0.18239609101E+02  0.00000000000E+00 0. -1.
</event>
<event>
 7    1  0.2732144E-009  0.9455970E+02  0.7561462E-02  0.1292171E+00
         -2   -1    0    0    0  501 -0.00000000000E+00  0.00000000000E+00  0.72100579549E+02  0.72100579549E+02  0.00000000000E+00 0.  1.
          2   -1    0    0  501    0  0.00000000000E+00 -0.00000000000E+00 -0.28332619399E+03  0.28332619399E+03  0.00000000000E+00 0. -1.
         25    2    1    2    0    0 -0.61353049232E+02  0.32091614420E+01 -0.20341313764E+03  0.24657587243E+03  0.12509300912E+03 0.  0.
          5    1    3    3  502    0  0.21737296538E+02 -0.47112512994E+00 -0.14042756052E+03  0.14216224595E+03  0.41800000000E+01 0. -1.
         -5    1    3    3    0  502 -0.83090345769E+02  0.36802865719E+01 -0.62985577122E+02  0.10441362648E+03  0.41800000000E+01 0. -1.
        -11    1    1    2    0    0  0.20215888426E+01  0.19919586126E+02 -0.34432617119E+02  0.39830664751E+02  0.00000000000E+00 0. -1.
         11    1    1    2    0    0  0.59331460389E+02 -0.23128747568E+02  0.26620140322E+02  0.69020236357E+02  0.00000000000E+00 0.  1.
</event>
<event>
 7    1  0.2732144E-009  0.1842676E+03  0.7561462E-02  0.1163736E+00
          1   -1    0    0  501    0  0.00000000000E+00  0.00000000000E+00  0.22810253717E+03  0.22810253717E+03  0.00000000000E+00 0. -1.
         -1   -1    0    0    0  501 -0.00000000000E+00 -0.00000000000E+00 -0.16851998122E+03  0.16851998122E+03  0.00000000000E+00 0.  1.
         25    2    1    2    0    0 -0.11137920370E+03  0.11579308676E+03  0.55132991537E+02  0.21094972686E+03  0.12508706787E+03 0.  0.
          5    1    3    3  502    0 -0.12405051775E+03  0.63814848851E+02  0.84463504278E+01  0.13982016708E+03  0.41800000000E+01 0.  1.
         -5    1    3    3    0  502  0.12671314046E+02  0.51978237911E+02  0.46686641109E+02  0.71129559777E+02  0.41800000000E+01 0.  1.
        -11    1    1    2    0    0  0.22699304317E+02 -0.73752186348E+02  0.32305177287E+02  0.83655650658E+02  0.00000000000E+00 0.  1.
         11    1    1    2    0    0  0.88679899386E+02 -0.42040900415E+02 -0.27855612876E+02  0.10201714087E+03  0.00000000000E+00 0. -1.
</event>
<event>
 7    1  0.2732144E-009  0.1108992E+03  0.7561462E-02  0.1258914E+00
          1   -1    0    0  501    0  0.00000000000E+00  0.00000000000E+00  0.17071693432E+03  0.17071693432E+03  0.00000000000E+00 0. -1.
         -1   -1    0    0    0  501 -0.00000000000E+00 -0.00000000000E+00 -0.13284343046E+03  0.13284343046E+03  0.00000000000E+00 0.  1.
         25    2    1    2    0    0 -0.81586045158E+02  0.36640371672E+02  0.74043463584E+02  0.17067306640E+03  0.12509221196E+03 0.  0.
          5    1    3    3  502    0 -0.83801966395E+02  0.48336345586E+02  0.12981474655E+01  0.96841775402E+02  0.41800000000E+01 0. -1.
         -5    1    3    3    0  502  0.22159212366E+01 -0.11695973914E+02  0.72745316119E+02  0.73831290994E+02  0.41800000000E+01 0. -1.
        -11    1    1    2    0    0  0.60800301661E+01 -0.36336921178E+02 -0.43523898609E+02  0.57023401842E+02  0.00000000000E+00 0.  1.
         11    1    1    2    0    0  0.75506014992E+02 -0.30345049353E+00  0.73539388803E+01  0.75863896547E+02  0.00000000000E+00 0. -1.
</event>
<event>
 7    1  0.2732144E-009  0.9726566E+02  0.7561462E-02  0.1286153E+00
         -3   -1    0    0    0  501 -0.00000000000E+00  0.00000000000E+00  0.15582666197E+03  0.15582666197E+03  0.00000000000E+00 0.  1.
          3   -1    0    0  501    0  0.00000000000E+00 -0.00000000000E+00 -0.76640661670E+02  0.76640661670E+02  0.00000000000E+00 0. -1.
         25    2    1    2    0    0 -0.36908601819E+01  0.10774159550E+02  0.70804916909E+02  0.14418849661E+03  0.12508909359E+03 0.  0.
          5    1    3    3  502    0  0.50361617601E+02 -0.58256589072E+01  0.71180157129E+02  0.87488959292E+02  0.41800000000E+01 0. -1.
         -5    1    3    3    0  502 -0.54052477783E+02  0.16599818457E+02 -0.37524022032E+00  0.56699537322E+02  0.41800000000E+01 0. -1.
        -11    1    1    2    0    0  0.38772873523E+02 -0.28053066864E+02  0.10930050330E+02  0.49089472210E+02  0.00000000000E+00 0. -1.
         11    1    1    2    0    0 -0.35082013341E+02  0.17278907314E+02 -0.25489669439E+01  0.39189354811E+02  0.00000000000E+00 0.  1.
</event>
<event>
 7    1  0.2732144E-009  0.1283993E+03  0.7561462E-02  0.1229850E+00
         -1   -1    0    0    0  501 -0.00000000000E+00  0.00000000000E+00  0.87320963297E+02  0.87320963297E+02  0.00000000000E+00 0.  1.
          1   -1    0    0  501    0  0.00000000000E+00 -0.00000000000E+00 -0.38435244414E+03  0.38435244414E+03  0.00000000000E+00 0. -1.
         25    2    1    2    0    0 -0.71101696128E+02 -0.23221678367E+02  0.58037027149E+01  0.14585833414E+03  0.12508506360E+03 0.  0.
          5    1    3    3  502    0  0.49690913303E+01 -0.54601164890E+02  0.26300742320E+02  0.60952280700E+02  0.41800000000E+01 0.  1.
         -5    1    3    3    0  502 -0.76070787458E+02  0.31379486522E+02 -0.20497039605E+02  0.84906053444E+02  0.41800000000E+01 0.  1.
        -11    1    1    2    0    0  0.81974297122E+02 -0.11734465132E+02 -0.19219721989E+03  0.20927793576E+03  0.00000000000E+00 0. -1.
         11    1    1    2    0    0 -0.10872600994E+02  0.34956143499E+02 -0.11063796367E+03  0.11653713754E+03  0.00000000000E+00 0.  1.
</event>
<event>
 7    1  0.2732144E-009  0.1110185E+03  0.7561462E-02  0.1258695E+00
          2   -1    0    0  501    0  0.00000000000E+00  0.00000000000E+00  0.51551720081E+03  0.51551720081E+03  0.00000000000E+00 0. -1.
         -2   -1    0    0    0  501 -0.00000000000E+00 -0.00000000000E+00 -0.36801817628E+02  0.36801817628E+02  0.00000000000E+00 0.  1.
         25    2    1    2    0    0  0.65517429260E+02 -0.50508880959E+02  0.28319477633E+03  0.32045370475E+03  0.12509042711E+03 0.  0.
          5    1    3    3  502    0  0.83360608836E+01 -0.54072682501E+02  0.24593880521E+03  0.25198554168E+03  0.41800000000E+01 0. -1.
         -5    1    3    3    0  502  0.57181368376E+02  0.35638015419E+01  0.37255971112E+02  0.68468163071E+02  0.41800000000E+01 0. -1.
        -11    1    1    2    0    0 -0.68411604613E+02  0.10034243482E+02  0.63962812649E+02  0.94191693317E+02  0.00000000000E+00 0.  1.
         11    1    1    2    0    0  0.28941753531E+01  0.40474637477E+02  0.13155779421E+03  0.13767362037E+03  0.00000000000E+00 0. -1.
</event>
<event>
 7    1  0.2732144E-009  0.2777827E+03  0.7561462E-02  0.1096906E+00
         -3   -1    0    0    0  501 -0.00000000000E+00  0.00000000000E+00  0.17713218113E+03  0.17713218113E+03  0.00000000000E+00 0.  1.
          3   -1    0    0  501    0  0.00000000000E+00 -0.00000000000E+00 -0.46470839018E+03  0.46470839018E+03  0.00000000000E+00 0. -1.
         25    2    1    2    0    0 -0.26387769542E+03  0.22503413946E+02 -0.13684285534E+03  0.32328191447E+03  0.12508951751E+03 0.  0.
          5    1    3    3  502    0 -0.85728017238E+02  0.47733177941E+02 -0.98842703529E+02  0.13933808401E+03  0.41800000000E+01 0.  1.
         -5    1    3    3    0  502 -0.17814967818E+03 -0.25229763994E+02 -0.38000151811E+02  0.18394383046E+03  0.41800000000E+01 0.  1.
        -11    1    1    2    0    0  0.89615652492E+02 -0.47348584334E+02 -0.78885649448E+02  0.12843597354E+03  0.00000000000E+00 0. -1.
         11    1    1    2    0    0  0.17426204292E+03  0.24845170388E+02 -0.71847704267E+02  0.19012268330E+03  0.00000000000E+00 0.  1.
</event>
<event>
 7    1  0.2732144E-009  0.1999605E+03  0.7561462E-02  0.1149772E+00
         -3   -1    0    0    0  501 -0.00000000000E+00  0.00000000000E+00  0.87519221066E+02  0.87519221066E+02  0.00000000000E+00 0.  1.
          3   -1    0    0  501    0  0.00000000000E+00 -0.00000000000E+00 -0.54523745774E+03  0.54523745774E+03  0.00000000000E+00 0. -1.
         25    2    1    2    0    0 -0.17918985864E+03 -0.28676059729E+02 -0.16582593194E+03  0.27582120771E+03  0.12509107514E+03 0.  0.
          5    1    3    3  502    0 -0.17219797089E+03  0.10172880934E+02 -0.16071150965E+03  0.23579925873E+03  0.41800000000E+01 0.  1.
         -5    1    3    3    0  502 -0.69918877439E+01 -0.38848940663E+02 -0.51144222947E+01  0.40021948981E+02  0.41800000000E+01 0.  1.
        -11    1    1    2    0    0  0.13935366357E+03  0.42209664019E+02 -0.15046121492E+03  0.20937926469E+03  0.00000000000E+00 0.  1.
         11    1    1    2    0    0  0.39836195064E+02 -0.13533604290E+02 -0.14143108981E+03  0.14755620640E+03  0.00000000000E+00 0. -1.
</event>
<event>
 7    1  0.2732144E-009  0.1039627E+03  0.7561462E-02  0.1272177E+00
          2   -1    0    0  501    0  0.00000000000E+00  0.00000000000E+00  0.25158636905E+03  0.25158636905E+03  0.00000000000E+00 0. -1.
         -2   -1    0    0    0  501 -0.00000000000E+00 -0.00000000000E+00 -0.72594435016E+02  0.72594435016E+02  0.00000000000E+00 0.  1.
         25    2    1    2    0    0  0.31298041730E+01 -0.37683717726E+02  0.18296061923E+03  0.22483802855E+03  0.12509073762E+03 0.  0.
          5    1    3    3  502    0 -0.32593899828E+02  0.35173307648E+02  0.53259038602E+02  0.71788031521E+02  0.41800000000E+01 0.  1.
         -5    1    3    3    0  502  0.35723704001E+02 -0.72857025374E+02  0.12970158063E+03  0.15304999703E+03  0.41800000000E+01 0.  1.
        -11    1    1    2    0    0 -0.35954325508E+02  0.22093366463E+02 -0.32400034940E+02  0.53203314075E+02  0.00000000000E+00 0.  1.
         11    1    1    2    0    0  0.32824521335E+02  0.15590351264E+02  0.28431349741E+02  0.46139461435E+02  0.00000000000E+00 0. -1.
</event>
<event>
 7    1  0.2732144E-009  0.1929168E+03  0.7561462E-02  0.1155857E+00
          2   -1    0    0  501    0  0.00000000000E+00  0.00000000000E+00  0.28943917026E+03  0.28943917026E+03  0.00000000000E+00 0. -1.
         -2   -1    0    0    0  501 -0.00000000000E+00 -0.00000000000E+00 -0.13209490298E+03  0.13209490298E+03  0.00000000000E+00 0.  1.
         25    2    1    2    0    0  0.27915216204E+02  0.15896356448E+03  0.78805690568E+02  0.21887699057E+03  0.12509246983E+03 0.  0.
          5    1    3    3  502    0 -0.66807405373E+01 -0.19841306973E+02  0.29749529990E+01  0.21555335810E+02  0.41800000000E+01 0.  1.
         -5    1    3    3    0  502  0.34595956741E+02  0.17880487145E+03  0.75830737569E+02  0.19732165476E+03  0.41800000000E+01 0.  1.
        -11    1    1    2    0    0 -0.58182041891E+02 -0.11583899548E+03  0.75206036670E+02  0.14986584275E+03  0.00000000000E+00 0. -1.
         11    1    1    2    0    0  0.30266825687E+02 -0.43124568999E+02  0.33325400432E+01  0.52791239914E+02  0.00000000000E+00 0.  1.
</event>
<event>
 7    1  0.2732144E-009  0.2185940E+03  0.7561462E-02  0.1134936E+00
         -1   -1    0    0    0  501 -0.00000000000E+00  0.00000000000E+00  0.59216903315E+02  0.59216903315E+02  0.00000000000E+00 0.  1.
          1   -1    0    0  501    0  0.00000000000E+00 -0.00000000000E+00 -0.92991618775E+03  0.92991618775E+03  0.00000000000E+00 0. -1.
         25    2    1    2    0    0 -0.16548983536E+03  0.10636844840E+03 -0.30316258599E+03  0.38244189387E+03  0.12511241434E+03 0.  0.
          5    1    3    3  502    0 -0.15655591320E+03  0.46895622712E+02 -0.26410914113E+03  0.31061240191E+03  0.41800000000E+01 0.  1.
         -5    1    3    3    0  502 -0.89339221541E+01  0.59472825691E+02 -0.39053444859E+02  0.71829491966E+02  0.41800000000E+01 0.  1.
        -11    1    1    2    0    0  0.40188839073E+02  0.11072402298E+02 -0.89194087778E+02  0.98454690966E+02  0.00000000000E+00 0.  1.
         11    1    1    2    0    0  0.12530099628E+03 -0.11744085070E+03 -0.47834261066E+03  0.50823650623E+03  0.00000000000E+00 0. -1.
</event>
<event>
 7    1  0.2732144E-009  0.7681416E+02  0.7561462E-02  0.1338343E+00
         -1   -1    0    0    0  501 -0.00000000000E+00  0.00000000000E+00  0.49928823187E+02  0.49928823187E+02  0.00000000000E+00 0.  1.
          1   -1    0    0  501    0  0.00000000000E+00 -0.00000000000E+00 -0.26371149829E+03  0.26371149829E+03  0.00000000000E+00 0. -1.
         25    2    1    2    0    0 -0.28519234329E+02 -0.23617187535E+02 -0.12824113651E+03  0.18293297382E+03  0.12509022961E+03 0.  0.
          5    1    3    3  502    0 -0.41981322034E+02  0.10190951950E+02  0.59720079027E+01  0.43811233488E+02  0.41800000000E+01 0.  1.
         -5    1    3    3    0  502  0.13462087705E+02 -0.33808139484E+02 -0.13421314441E+03  0.13912174033E+03  0.41800000000E+01 0.  1.
        -11    1    1    2    0    0 -0.74106857848E+01  0.35102296172E+02  0.14336430590E+01  0.35904662550E+02  0.00000000000E+00 0.  1.
         11    1    1    2    0    0  0.35929920113E+02 -0.11485108638E+02 -0.86975181658E+02  0.94802685110E+02  0.00000000000E+00 0. -1.
</event>
<event>
 7    1  0.2732144E-009  0.4402227E+03  0.7561462E-02  0.1030678E+00
          1   -1    0    0  501    0  0.00000000000E+00  0.00000000000E+00  0.41855504356E+03  0.41855504356E+03  0.00000000000E+00 0. -1.
         -1   -1    0    0    0  501 -0.00000000000E+00 -0.00000000000E+00 -0.60017216853E+03  0.60017216853E+03  0.00000000000E+00 0.  1.
         25    2    1    2    0    0 -0.21713641546E+03  0.38266641948E+03 -0.30881064054E+03  0.55190344984E+03  0.12510633365E+03 0.  0.
          5    1    3    3  502    0 -0.42863893646E+02  0.62719691291E+02 -0.11855025360E+03  0.14086414761E+03  0.41800000000E+01 0.  1.
         -5    1    3    3    0  502 -0.17427252182E+03  0.31994672819E+03 -0.19026038694E+03  0.41103930223E+03  0.41800000000E+01 0.  1.
        -11    1    1    2    0    0  0.17018909776E+03 -0.29565432954E+03  0.13667780280E+03  0.36750052156E+03  0.00000000000E+00 0.  1.
         11    1    1    2    0    0  0.46947317704E+02 -0.87012089946E+02 -0.94842872231E+01  0.99323240687E+02  0.00000000000E+00 0. -1.
</event>
<event>
 7    1  0.2732144E-009  0.1331485E+03  0.7561462E-02  0.1222857E+00
         -1   -1    0    0    0  501 -0.00000000000E+00  0.00000000000E+00  0.67177244347E+02  0.67177244347E+02  0.00000000000E+00 0. -1.
          1   -1    0    0  501    0  0.00000000000E+00 -0.00000000000E+00 -0.37031292374E+03  0.37031292374E+03  0.00000000000E+00 0.  1.
         25    2    1    2    0    0 -0.98855216897E+02 -0.53459740460E+02 -0.14052932057E+03  0.21914631688E+03  0.12508525294E+03 0.  0.
          5    1    3    3  502    0 -0.60745333591E+02 -0.36750667447E+01 -0.14382286568E+03  0.15622416830E+03  0.41800000000E+01 0. -1.
         -5    1    3    3    0  502 -0.38109883307E+02 -0.49784673716E+02  0.32935451060E+01  0.62922148580E+02  0.41800000000E+01 0. -1.
        -11    1    1    2    0    0  0.10521845581E+02  0.53094646964E+02 -0.84948064792E+02  0.10072697991E+03  0.00000000000E+00 0.  1.
         11    1    1    2    0    0  0.88333371317E+02  0.36509349628E+00 -0.77658294028E+02  0.11761687129E+03  0.00000000000E+00 0. -1.
</event>
<event>
 7    1  0.2732144E-009  0.8992186E+02  0.7561462E-02  0.1303041E+00
          2   -1    0    0  501    0  0.00000000000E+00  0.00000000000E+00  0.38973479348E+02  0.38973479348E+02  0.00000000000E+00 0. -1.
         -2   -1    0    0    0  501 -0.00000000000E+00 -0.00000000000E+00 -0.37487662666E+03  0.37487662666E+03  0.00000000000E+00 0.  1.
         25    2    1    2    0    0 -0.45547716656E+01 -0.35631444290E+02 -0.12032760646E+03  0.17725481758E+03  0.12510072627E+03 0.  0.
          5    1    3    3  502    0  0.34855688423E+02  0.23306593731E+02 -0.58598760906E+01  0.42543235357E+02  0.41800000000E+01 0.  1.
         -5    1    3    3    0  502 -0.39410460089E+02 -0.58938038021E+02 -0.11446773036E+03  0.13471158222E+03  0.41800000000E+01 0.  1.
        -11    1    1    2    0    0 -0.19771347452E+02  0.37387059377E+02 -0.20615698545E+03  0.21045047170E+03  0.00000000000E+00 0.  1.
         11    1    1    2    0    0  0.24326119117E+02 -0.17556150869E+01 -0.94185554025E+01  0.26144816724E+02  0.00000000000E+00 0. -1.
</event>
<event>
 7    1  0.2732144E-009  0.1161148E+03  0.7561462E-02  0.1249648E+00
         -3   -1    0    0    0  501 -0.00000000000E+00  0.00000000000E+00  0.23748201538E+03  0.23748201538E+03  0.00000000000E+00 0.  1.
          3   -1    0    0  501    0  0.00000000000E+00 -0.00000000000E+00 -0.75380728018E+02  0.75380728018E+02  0.00000000000E+00 0. -1.
         25    2    1    2    0    0 -0.24867803058E+02  0.42350217798E+02  0.15927018229E+03  0.20838939703E+03  0.12508877348E+03 0.  0.
          5    1    3    3  502    0 -0.34513061309E+02  0.82467405138E+02  0.12917536735E+03  0.15714888558E+03  0.41800000000E+01 0. -1.
         -5    1    3    3    0  502  0.96452582510E+01 -0.40117187340E+02  0.30094814943E+02  0.51240511446E+02  0.41800000000E+01 0. -1.
        -11    1    1    2    0    0 -0.29804964098E+02  0.33661527546E+01 -0.10864612367E+02  0.31901515186E+02  0.00000000000E+00 0. -1.
         11    1    1    2    0    0  0.54672767156E+02 -0.45716370552E+02  0.13695717438E+02  0.72571831182E+02  0.00000000000E+00 0.  1.
</event>
<event>
 7    1  0.2732144E-009  0.1613117E+03  0.7561462E-02  0.1187224E+00
          2   -1    0    0  501    0  0.00000000000E+00  0.00000000000E+00  0.13350376929E+03  0.13350376929E+03  0.00000000000E+00 0. -1.
         -2   -1    0    0    0  501 -0.00000000000E+00 -0.00000000000E+00 -0.38628460082E+03  0.38628460082E+03  0.00000000000E+00 0.  1.
         25    2    1    2    0    0  0.44623204733E+02 -0.12855135074E+03 -0.30202369733E+03  0.35409475034E+03  0.12509235906E+03 0.  0.
          5    1    3    3  502    0  0.39649022175E+02 -0.15317144246E+03 -0.27228217956E+03  0.31494220652E+03  0.41800000000E+01 0.  1.
         -5    1    3    3    0  502  0.49741825579E+01  0.24620091719E+02 -0.29741517770E+02  0.39152543820E+02  0.41800000000E+01 0.  1.
        -11    1    1    2    0    0  0.30502498684E+01  0.21278949230E+02  0.43077301046E+02  0.48143032414E+02  0.00000000000E+00 0. -1.
         11    1    1    2    0    0 -0.47673454601E+02  0.10727240151E+03  0.61655647497E+01  0.11755058735E+03  0.00000000000E+00 0.  1.
</event>
<event>
 7    1  0.2732144E-009  0.8595403E+02  0.7561462E-02  0.1312956E+00
          2   -1    0    0  501    0  0.00000000000E+00  0.00000000000E+00  0.34958033019E+03  0.34958033019E+03  0.00000000000E+00 0. -1.
         -2   -1    0    0    0  501 -0.00000000000E+00 -0.00000000000E+00 -0.36233247052E+02  0.36233247052E+02  0.00000000000E+00 0.  1.
         25    2    1    2    0    0  0.24785268828E+02 -0.11938921602E+02  0.19300321831E+03  0.23164855778E+03  0.12511580493E+03 0.  0.
          5    1    3    3  502    0  0.51079389336E+02 -0.52725994119E+02  0.14833853694E+03  0.16556246075E+03  0.41800000000E+01 0.  1.
         -5    1    3    3    0  502 -0.26294120508E+02  0.40787072516E+02  0.44664681372E+02  0.66086097024E+02  0.41800000000E+01 0.  1.
        -11    1    1    2    0    0 -0.15587520126E+02  0.27490864158E+02  0.12992528235E+03  0.13371348993E+03  0.00000000000E+00 0. -1.
         11    1    1    2    0    0 -0.91977487023E+01 -0.15551942556E+02 -0.95814175218E+01  0.20451529531E+02  0.00000000000E+00 0.  1.
</event>
<event>
 6    1  0.2732144E-009  0.1170584E+03  0.7561462E-02  0.1248030E+00
          1   -1    0    0  501    0  0.00000000000E+00  0.00000000000E+00  0.40332480707E+03  0.40332480707E+03  0.00000000000E+00 0. -1.
         -1   -1    0    0    0  501 -0.00000000000E+00 -0.00000000000E+00 -0.37590082146E+02  0.37590082146E+02  0.00000000000E+00 0.  1.
          5    1    1    2  502    0 -0.57258884757E+02  0.66953151800E+02  0.17624748651E+03  0.19708362013E+03  0.41800000000E+01 0. -1.
         -5    1    1    2    0  502  0.34928293192E+02 -0.28276856574E+02  0.97071407145E+02  0.10705090737E+03  0.41800000000E+01 0. -1.
        -11    1    1    2    0    0  0.46056126647E+02  0.95532002249E+01  0.40949814692E+02  0.62364394967E+02  0.00000000000E+00 0. -1.
         11    1    1    2    0    0 -0.23725535082E+02 -0.48229495452E+02  0.51466016579E+02  0.74415966761E+02  0.00000000000E+00 0.  1.
</event>
<event>
 7    1  0.2732144E-009  0.1877630E+03  0.7561462E-02  0.1160495E+00
         -1   -1    0    0    0  501 -0.00000000000E+00  0.00000000000E+00  0.14257692355E+03  0.14257692355E+03  0.00000000000E+00 0.  1.
          1   -1    0    0  501    0  0.00000000000E+00 -0.00000000000E+00 -0.35088918511E+03  0.35088918511E+03  0.00000000000E+00 0. -1.
         25    2    1    2    0    0 -0.17031435797E+03 -0.22005140420E+01 -0.21287722101E+03  0.29996104905E+03  0.12509235359E+03 0.  0.
          5    1    3    3  502    0 -0.28693573354E+02 -0.48138427221E+02 -0.28719534013E+02  0.63110326897E+02  0.41800000000E+01 0.  1.
         -5    1    3    3    0  502 -0.14162078462E+03  0.45937913179E+02 -0.18415768700E+03  0.23685072215E+03  0.41800000000E+01 0.  1.
        -11    1    1    2    0    0  0.13334196078E+03  0.35353564002E+01  0.43008571215E+02  0.14015104155E+03  0.00000000000E+00 0.  1.
         11    1    1    2    0    0  0.36972397189E+02 -0.13348423582E+01 -0.38443611769E+02  0.53354018067E+02  0.00000000000E+00 0. -1.
</event>
<event>
 6    1  0.2732144E-009  0.1264657E+03  0.7561462E-02  0.1232796E+00
         -4   -1    0    0    0  501 -0.00000000000E+00  0.00000000000E+00  0.20073955930E+03  0.20073955930E+03  0.00000000000E+00 0.  1.
          4   -1    0    0  501    0  0.00000000000E+00 -0.00000000000E+00 -0.13739653120E+03  0.13739653120E+03  0.00000000000E+00 0. -1.
          5    1    1    2  502    0  0.22179325029E+02 -0.10753489700E+00  0.24945864131E+02  0.33640787145E+02  0.41800000000E+01 0. -1.
         -5    1    1    2    0  502 -0.67070589582E+02  0.83356250507E+02 -0.75679544836E+02  0.13111672049E+03  0.41800000000E+01 0. -1.
        -11    1    1    2    0    0  0.45521759550E+01 -0.82824127885E+02  0.10158176414E+03  0.13114653359E+03  0.00000000000E+00 0.  1.
         11    1    1    2    0    0  0.40339088598E+02 -0.42458772535E+00  0.12494944662E+02  0.42232049272E+02  0.00000000000E+00 0. -1.
</event>
<event>
 7    1  0.2732144E-009  0.7805698E+02  0.7561462E-02  0.1334658E+00
         -1   -1    0    0    0  501 -0.00000000000E+00  0.00000000000E+00  0.57626574019E+03  0.57626574019E+03  0.00000000000E+00 0.  1.
          1   -1    0    0  501    0  0.00000000000E+00 -0.00000000000E+00 -0.29482029424E+02  0.29482029424E+02  0.00000000000E+00 0. -1.
         25    2    1    2    0    0 -0.25165708114E+02  0.52859301866E+02  0.40776725342E+03  0.43052187095E+03  0.12509008653E+03 0.  0.
          5    1    3    3  502    0 -0.69141897828E+01  0.22605068765E+01  0.35485374586E+03  0.35495291133E+03  0.41800000000E+01 0. -1.
         -5    1    3    3    0  502 -0.18251518331E+02  0.50598794990E+02  0.52913507557E+02  0.75568959618E+02  0.41800000000E+01 0. -1.
        -11    1    1    2    0    0 -0.21820805059E+02  0.15581942554E+01  0.77741955879E+02  0.80761297703E+02  0.00000000000E+00 0.  1.
         11    1    1    2    0    0  0.46986513173E+02 -0.54417496122E+02  0.61274501466E+02  0.94464600959E+02  0.00000000000E+00 0. -1.
</event>
<event>
 7    1  0.2732144E-009  0.6621440E+02  0.7561462E-02  0.1373461E+00
         -2   -1    0    0    0  501 -0.00000000000E+00  0.00000000000E+00  0.10579875580E+03  0.10579875580E+03  0.00000000000E+00 0.  1.
          2   -1    0    0  501    0  0.00000000000E+00 -0.00000000000E+00 -0.12197747358E+03  0.12197747358E+03  0.00000000000E+00 0. -1.
         25    2    1    2    0    0  0.31280435819E+02 -0.99734248559E+01  0.65860326226E+00  0.12932735690E+03  0.12508875496E+03 0.  0.
          5    1    3    3  502    0  0.28288120865E+02 -0.41387880808E+01 -0.60833047976E+02  0.67345968512E+02  0.41800000000E+01 0. -1.
         -5    1    3    3    0  502  0.29923149538E+01 -0.58346367751E+01  0.61491651238E+02  0.61981388392E+02  0.41800000000E+01 0. -1.
        -11    1    1    2    0    0  0.16624653356E+02  0.37137429133E+02  0.56957358139E+00  0.40692654815E+02  0.00000000000E+00 0.  1.
         11    1    1    2    0    0 -0.47905089175E+02 -0.27164004277E+02 -0.17406894627E+02  0.57756217655E+02  0.00000000000E+00 0. -1.
</event>
<event>
 7    1  0.2732144E-009  0.1958863E+03  0.7561462E-02  0.1153257E+00
         -1   -1    0    0    0  501 -0.00000000000E+00  0.00000000000E+00  0.48171972948E+03  0.48171972948E+03  0.00000000000E+00 0.  1.
          1   -1    0    0  501    0  0.00000000000E+00 -0.00000000000E+00 -0.98550638833E+02  0.98550638833E+02  0.00000000000E+00 0. -1.
         25    2    1    2    0    0 -0.13827393241E+03 -0.92744326452E+02  0.80719991150E+02  0.22334812557E+03  0.12508987868E+03 0.  0.
          5    1    3    3  502    0 -0.16159485316E+02  0.26846970606E+02  0.33313056399E+02  0.45925166554E+02  0.41800000000E+01 0. -1.
         -5    1    3    3    0  502 -0.12211444710E+03 -0.11959129706E+03  0.47406934751E+02  0.17742295901E+03  0.41800000000E+01 0. -1.
        -11    1    1    2    0    0 -0.17168931914E+01  0.39307244836E+02  0.54621668346E+02  0.67316668602E+02  0.00000000000E+00 0.  1.
         11    1    1    2    0    0  0.13999082561E+03  0.53437081616E+02  0.24782743115E+03  0.28960557415E+03  0.00000000000E+00 0. -1.
</event>
<event>
 7    1  0.2732144E-009  0.1142816E+03  0.7561462E-02  0.1252840E+00
         -1   -1    0    0    0  501 -0.00000000000E+00  0.00000000000E+00  0.43089348376E+02  0.43089348376E+02  0.00000000000E+00 0.  1.
          1   -1    0    0  501    0  0.00000000000E+00 -0.00000000000E+00 -0.40569529841E+03  0.40569529841E+03  0.00000000000E+00 0. -1.
         25    2    1    2    0    0 -0.19452895614E+02  0.73405360455E+02 -0.21783591316E+03  0.26242409334E+03  0.12508859904E+03 0.  0.
          5    1    3    3  502    0  0.48987543808E+02  0.17294482592E+02 -0.11767180301E+03  0.12869733564E+03  0.41800000000E+01 0.  1.
         -5    1    3    3    0  502 -0.68440439423E+02  0.56110877863E+02 -0.10016411014E+03  0.13372675770E+03  0.41800000000E+01 0.  1.
        -11    1    1    2    0    0 -0.98347601173E+01 -0.48233263942E+02 -0.13881598560E+03  0.14728560050E+03  0.00000000000E+00 0. -1.
         11    1    1    2    0    0  0.29287655731E+02 -0.25172096513E+02 -0.59540512743E+01  0.39074952945E+02  0.00000000000E+00 0.  1.
</event>
<event>
 7    1  0.2732144E-009  0.1199467E+03  0.7561462E-02  0.1243185E+00
          2   -1    0    0  501    0  0.00000000000E+00  0.00000000000E+00  0.14814759962E+04  0.14814759962E+04  0.00000000000E+00 0. -1.
         -2   -1    0    0    0  501 -0.00000000000E+00 -0.00000000000E+00 -0.11623988649E+02  0.11623988649E+02  0.00000000000E+00 0.  1.
         25    2    1    2    0    0 -0.55930251578E+02  0.40949108832E+02  0.97221775738E+03  0.98267926229E+03  0.12508454027E+03 0.  0.
          5    1    3    3  502    0  0.19378423219E+02 -0.23946764601E+02  0.97884711513E+02  0.10270277489E+03  0.41800000000E+01 0.  1.
         -5    1    3    3    0  502 -0.75308674797E+02  0.64895873433E+02  0.87433304587E+03  0.87997648741E+03  0.41800000000E+01 0.  1.
        -11    1    1    2    0    0  0.53710503603E+02  0.13039832938E+02  0.18244306686E+03  0.19063139323E+03  0.00000000000E+00 0.  1.
         11    1    1    2    0    0  0.22197479752E+01 -0.53988941770E+02  0.31519118328E+03  0.31978932930E+03  0.00000000000E+00 0. -1.
</event>
<event>
 7    1  0.2732144E-009  0.1166807E+03  0.7561462E-02  0.1248676E+00
          1   -1    0    0  501    0  0.00000000000E+00  0.00000000000E+00  0.85454073317E+03  0.85454073317E+03  0.00000000000E+00 0. -1.
         -1   -1    0    0    0  501 -0.00000000000E+00 -0.00000000000E+00 -0.20045827632E+02  0.20045827632E+02  0.00000000000E+00 0.  1.
         25    2    1    2    0    0  0.55692530022E+02 -0.47796033466E+02  0.47126067329E+03  0.49307162214E+03  0.12508750401E+03 0.  0.
          5    1    3    3  502    0 -0.21678757268E+02  0.24653432502E+02  0.61917195269E+02  0.70206635875E+02  0.41800000000E+01 0. -1.
         -5    1    3    3    0  502  0.77371287290E+02 -0.72449465968E+02  0.40934347802E+03  0.42286498627E+03  0.41800000000E+01 0. -1.
        -11    1    1    2    0    0  0.11635503418E+02  0.15858945588E+02  0.13323485608E+02  0.23757238133E+02  0.00000000000E+00 0.  1.
         11    1    1    2    0    0 -0.67328033440E+02  0.31937087877E+02  0.34991074664E+03  0.35775770052E+03  0.00000000000E+00 0. -1.
</event>
<event>
 7    1  0.2732144E-009  0.1114345E+03  0.7561462E-02  0.1257936E+00
          1   -1    0    0  501    0  0.00000000000E+00  0.00000000000E+00  0.12502239292E+03  0.12502239292E+03  0.00000000000E+00 0.  1.
         -1   -1    0    0    0  501 -0.00000000000E+00 -0.00000000000E+00 -0.11494607861E+03  0.11494607861E+03  0.00000000000E+00 0. -1.
         25    2    1    2    0    0 -0.12327709361E+02  0.41662703655E+02 -0.25128632936E+02  0.13478458522E+03  0.12509069880E+03 0.  0.
          5    1    3    3  502    0 -0.62887842239E+02  0.89825666262E+01  0.10768527659E+02  0.64567799967E+02  0.41800000000E+01 0. -1.
         -5    1    3    3    0  502  0.50560132878E+02  0.32680137029E+02 -0.35897160595E+02  0.70216785256E+02  0.41800000000E+01 0. -1.
        -11    1    1    2    0    0 -0.24874670041E+02 -0.54171215636E+02  0.24928439849E+02  0.64611894621E+02  0.00000000000E+00 0.  1.
         11    1    1    2    0    0  0.37202379402E+02  0.12508511981E+02  0.10276507402E+02  0.40571991688E+02  0.00000000000E+00 0. -1.
</event>
<event>
 7    1  0.2732144E-009  0.1002086E+03  0.7561462E-02  0.1279858E+00
          1   -1    0    0  501    0  0.00000000000E+00  0.00000000000E+00  0.13346541625E+04  0.13346541625E+04  0.00000000000E+00 0. -1.
         -1   -1    0    0    0  501 -0.00000000000E+00 -0.00000000000E+00 -0.12861376147E+02  0.12861376147E+02  0.00000000000E+00 0.  1.
         25    2    1    2    0    0  0.20229318557E+02  0.66716357615E+02  0.86188285378E+03  0.87369833730E+03  0.12508570364E+03 0.  0.
          5    1    3    3  502    0 -0.17177243741E+02  0.64762393746E+02  0.78707020157E+03  0.78992797137E+03  0.41800000000E+01 0. -1.
         -5    1    3    3    0  502  0.37406562297E+02  0.19539638694E+01  0.74812652207E+02  0.83770365930E+02  0.41800000000E+01 0. -1.
        -11    1    1    2    0    0 -0.14758800126E+02  0.10545972940E+02  0.19438803788E+02  0.26587719329E+02  0.00000000000E+00 0.  1.
         11    1    1    2    0    0 -0.54705184303E+01 -0.77262330555E+02  0.44047112879E+03  0.44722948203E+03  0.00000000000E+00 0. -1.
</event>
<event>
 7    1  0.2732144E-009  0.8469677E+02  0.7561462E-02  0.1316227E+00
         -2   -1    0    0    0  501 -0.00000000000E+00  0.00000000000E+00  0.11845770754E+03  0.11845770754E+03  0.00000000000E+00 0.  1.
          2   -1    0    0  501    0  0.00000000000E+00 -0.00000000000E+00 -0.11239836728E+03  0.11239836728E+03  0.00000000000E+00 0. -1.
         25    2    1    2    0    0  0.24155430933E+02 -0.26380174899E+02  0.17361472269E+02  0.13125824419E+03  0.12509159635E+03 0.  0.
          5    1    3    3  502    0 -0.23918750830E+02 -0.49867996109E+02 -0.26945271569E+02  0.61663958170E+02  0.41800000000E+01 0. -1.
         -5    1    3    3    0  502  0.48074181763E+02  0.23487821210E+02  0.44306743838E+02  0.69594286022E+02  0.41800000000E+01 0. -1.
        -11    1    1    2    0    0 -0.32167293188E+02 -0.54115035877E+00 -0.45259693912E+02  0.55528978810E+02  0.00000000000E+00 0. -1.
         11    1    1    2    0    0  0.80118622546E+01  0.26921325258E+02  0.33957561896E+02  0.44068851816E+02  0.00000000000E+00 0.  1.
</event>
<event>
 7    1  0.2732144E-009  0.1790083E+03  0.7561462E-02  0.1168766E+00
          1   -1    0    0  501    0  0.00000000000E+00  0.00000000000E+00  0.10868326999E+04  0.10868326999E+04  0.00000000000E+00 0. -1.
         -1   -1    0    0    0  501 -0.00000000000E+00 -0.00000000000E+00 -0.38501097429E+02  0.38501097429E+02  0.00000000000E+00 0.  1.
         25    2    1    2    0    0  0.15890979418E+03  0.64431115928E+02  0.62258337226E+03  0.65776977865E+03  0.12508930774E+03 0.  0.
          5    1    3    3  502    0  0.32266875261E+02  0.52253194292E+01  0.18674591271E+02  0.37877010988E+02  0.41800000000E+01 0. -1.
         -5    1    3    3    0  502  0.12664291892E+03  0.59205796499E+02  0.60390878099E+03  0.61989276767E+03  0.41800000000E+01 0. -1.
        -11    1    1    2    0    0 -0.12739239332E+03 -0.79607769700E+02  0.38817134161E+03  0.41622495038E+03  0.00000000000E+00 0.  1.
         11    1    1    2    0    0 -0.31517400862E+02  0.15176653772E+02  0.37576888613E+02  0.51339068308E+02  0.00000000000E+00 0. -1.
</event>
<event>
 7    1  0.2732144E-009  0.9241044E+02  0.7561462E-02  0.1297117E+00
          1   -1    0    0  501    0  0.00000000000E+00  0.00000000000E+00  0.59058551010E+03  0.59058551010E+03  0.00000000000E+00 0. -1.
         -1   -1    0    0    0  501 -0.00000000000E+00 -0.00000000000E+00 -0.26569679280E+02  0.26569679280E+02  0.00000000000E+00 0.  1.
         25    2    1    2    0    0  0.37475222665E+02  0.54766306905E+02  0.33006608774E+03  0.35914678561E+03  0.12505618998E+03 0.  0.
          5    1    3    3  502    0 -0.27770019104E+02  0.25089895022E+02  0.24479040616E+03  0.24767012767E+03  0.41800000000E+01 0. -1.
         -5    1    3    3    0  502  0.65245241769E+02  0.29676411883E+02  0.85275681580E+02  0.11147665794E+03  0.41800000000E+01 0. -1.
        -11    1    1    2    0    0 -0.29021279254E+02 -0.11398659420E+02  0.14917951496E+02  0.34564568028E+02  0.00000000000E+00 0.  1.
         11    1    1    2    0    0 -0.84539434106E+01 -0.43367647485E+02  0.21903179158E+03  0.22344383574E+03  0.00000000000E+00 0. -1.
</event>
<event>
 7    1  0.2732144E-009  0.1032487E+03  0.7561462E-02  0.1273609E+00
         -1   -1    0    0    0  501 -0.00000000000E+00  0.00000000000E+00  0.64307529936E+03  0.64307529936E+03  0.00000000000E+00 0.  1.
          1   -1    0    0  501    0  0.00000000000E+00 -0.00000000000E+00 -0.29600831723E+02  0.29600831723E+02  0.00000000000E+00 0. -1.
         25    2    1    2    0    0  0.39103332610E+01 -0.41104447297E+02  0.15176045923E+03  0.20095704554E+03  0.12509049074E+03 0.  0.
          5    1    3    3  502    0  0.49268382874E+02 -0.91909810931E+00  0.12529034868E+03  0.13469729829E+03  0.41800000000E+01 0. -1.
         -5    1    3    3    0  502 -0.45358049613E+02 -0.40185349188E+02  0.26470110549E+02  0.66259747257E+02  0.41800000000E+01 0. -1.
        -11    1    1    2    0    0  0.20469174213E+02  0.61309782031E+02  0.32788147787E+03  0.33419177129E+03  0.00000000000E+00 0.  1.
         11    1    1    2    0    0 -0.24379507474E+02 -0.20205334734E+02  0.13383253054E+03  0.13752731426E+03  0.00000000000E+00 0. -1.
</event>
<event>
 7    1  0.2732144E-009  0.2037988E+03  0.7561462E-02  0.1146573E+00
          3   -1    0    0  501    0  0.00000000000E+00  0.00000000000E+00  0.27164878379E+03  0.27164878379E+03  0.00000000000E+00 0. -1.
         -3   -1    0    0    0  501 -0.00000000000E+00 -0.00000000000E+00 -0.17887035523E+03  0.17887035523E+03  0.00000000000E+00 0.  1.
         25    2    1    2    0    0 -0.77653970005E+02  0.17102545418E+03  0.82663174711E+02  0.24034457984E+03  0.12510983803E+03 0.  0.
          5    1    3    3  502    0 -0.32833449634E+02 -0.45667060242E+01  0.43570470890E+02  0.54906725930E+02  0.41800000000E+01 0. -1.
         -5    1    3    3    0  502 -0.44820520371E+02  0.17559216020E+03  0.39092703821E+02  0.18543785391E+03  0.41800000000E+01 0. -1.
        -11    1    1    2    0    0  0.38754006146E+02 -0.13294640303E+03 -0.31060311267E+02  0.14192026637E+03  0.00000000000E+00 0.  1.
         11    1    1    2    0    0  0.38899963859E+02 -0.38079051147E+02  0.41175565112E+02  0.68254292808E+02  0.00000000000E+00 0. -1.
</event>
<event>
 7    1  0.2732144E-009  0.2483197E+03  0.7561462E-02  0.1114371E+00
         -1   -1    0    0    0  501 -0.00000000000E+00  0.00000000000E+00  0.10612793117E+03  0.10612793117E+03  0.00000000000E+00 0.  1.
          1   -1    0    0  501    0  0.00000000000E+00 -0.00000000000E+00 -0.83838412288E+03  0.83838412288E+03  0.00000000000E+00 0. -1.
         25    2    1    2    0    0  0.12880787023E+03 -0.18955544392E+03 -0.62050422547E+03  0.67319819842E+03  0.12509031448E+03 0.  0.
          5    1    3    3  502    0  0.12213122543E+03 -0.20199113198E+03 -0.61254367097E+03  0.65646300343E+03  0.41800000000E+01 0.  1.
         -5    1    3    3    0  502  0.66766448062E+01  0.12435688065E+02 -0.79605545001E+01  0.16735194993E+02  0.41800000000E+01 0.  1.
        -11    1    1    2    0    0 -0.48889809884E+01  0.80847697435E+02 -0.23511435692E+02  0.84338839949E+02  0.00000000000E+00 0.  1.
         11    1    1    2    0    0 -0.12391888924E+03  0.10870774648E+03 -0.88240530554E+02  0.18697501568E+03  0.00000000000E+00 0. -1.
</event>
<event>
 7    1  0.2732144E-009  0.1808930E+03  0.7561462E-02  0.1166942E+00
          2   -1    0    0  501    0  0.00000000000E+00  0.00000000000E+00  0.62961782654E+03  0.62961782654E+03  0.00000000000E+00 0. -1.
         -2   -1    0    0    0  501 -0.00000000000E+00 -0.00000000000E+00 -0.69910903961E+02  0.69910903961E+02  0.00000000000E+00 0.  1.
         25    2    1    2    0    0 -0.12097940116E+03  0.10872739041E+03  0.41867328854E+03  0.46625400139E+03  0.12509120810E+03 0.  0.
          5    1    3    3  502    0 -0.11545497663E+02  0.83092664891E+02  0.11490411214E+03  0.14233101160E+03  0.41800000000E+01 0.  1.
         -5    1    3    3    0  502 -0.10943390349E+03  0.25634725515E+02  0.30376917640E+03  0.32392298979E+03  0.41800000000E+01 0.  1.
        -11    1    1    2    0    0  0.57249041555E+02 -0.32040607502E+02  0.11134805906E+03  0.12923793385E+03  0.00000000000E+00 0. -1.
         11    1    1    2    0    0  0.63730359603E+02 -0.76686782904E+02  0.29685574973E+02  0.10403679526E+03  0.00000000000E+00 0.  1.
</event>
<event>
 7    1  0.2732144E-009  0.1348510E+03  0.7561462E-02  0.1220430E+00
         -1   -1    0    0    0  501 -0.00000000000E+00  0.00000000000E+00  0.18284995456E+03  0.18284995456E+03  0.00000000000E+00 0.  1.
          1   -1    0    0  501    0  0.00000000000E+00 -0.00000000000E+00 -0.12195259629E+03  0.12195259629E+03  0.00000000000E+00 0. -1.
         25    2    1    2    0    0  0.16030998074E+02  0.10045596173E+03  0.19195207431E+02  0.16237187166E+03  0.12509106911E+03 0.  0.
          5    1    3    3  502    0  0.64598085504E+02  0.89597037781E+02  0.20467901100E+02  0.11241418596E+03  0.41800000000E+01 0. -1.
         -5    1    3    3    0  502 -0.48567087430E+02  0.10858923950E+02 -0.12726936695E+01  0.49957685695E+02  0.41800000000E+01 0. -1.
        -11    1    1    2    0    0 -0.15787910171E+02 -0.98276012722E+01 -0.24094248961E+02  0.30436371126E+02  0.00000000000E+00 0. -1.
         11    1    1    2    0    0 -0.24308790313E+00 -0.90628360459E+02  0.65796399807E+02  0.11199430806E+03  0.00000000000E+00 0.  1.
</event>
<event>
 7    1  0.2732144E-009  0.1273546E+03  0.7561462E-02  0.1231435E+00
          4   -1    0    0  501    0  0.00000000000E+00  0.00000000000E+00  0.10190135788E+03  0.10190135788E+03  0.00000000000E+00 0. -1.
         -4   -1    0    0    0  501 -0.00000000000E+00 -0.00000000000E+00 -0.18999477386E+03  0.18999477386E+03  0.00000000000E+00 0.  1.
         25    2    1    2    0    0 -0.59774627685E+02  0.58599614620E+02 -0.65320254566E+02  0.16407653030E+03  0.12508977252E+03 0.  0.
          5    1    3    3  502    0 -0.74924479597E+02 -0.11972639706E+02 -0.19406603143E+02  0.78429014975E+02  0.41800000000E+01 0.  1.
         -5    1    3    3    0  502  0.15149851912E+02  0.70572254326E+02 -0.45913651423E+02  0.85647515321E+02  0.41800000000E+01 0.  1.
        -11    1    1    2    0    0  0.12415818644E+01 -0.46663955839E+02 -0.44267659944E+02  0.64332666795E+02  0.00000000000E+00 0. -1.
         11    1    1    2    0    0  0.58533045820E+02 -0.11935658782E+02  0.21494498530E+02  0.63486934645E+02  0.00000000000E+00 0.  1.
</event>
<event>
 7    1  0.2732144E-009  0.1046014E+03  0.7561462E-02  0.1270907E+00
         -3   -1    0    0    0  501 -0.00000000000E+00  0.00000000000E+00  0.87877300989E+02  0.87877300989E+02  0.00000000000E+00 0.  1.
          3   -1    0    0  501    0  0.00000000000E+00 -0.00000000000E+00 -0.13641969256E+03  0.13641969256E+03  0.00000000000E+00 0. -1.
         25    2    1    2    0    0 -0.21326579090E+02  0.58485218950E+01 -0.11770213497E+02  0.12757495096E+03  0.12509117476E+03 0.  0.
          5    1    3    3  502    0 -0.46548487264E+02  0.50305767637E+02 -0.27448002052E+02  0.73947935338E+02  0.41800000000E+01 0. -1.
         -5    1    3    3    0  502  0.25221908173E+02 -0.44457245742E+02  0.15677788554E+02  0.53627015625E+02  0.41800000000E+01 0. -1.
        -11    1    1    2    0    0 -0.24204635722E+02  0.24574835039E+02 -0.17423917796E+02  0.38644272784E+02  0.00000000000E+00 0. -1.
         11    1    1    2    0    0  0.45531214812E+02 -0.30423356934E+02 -0.19348260279E+02  0.58077769802E+02  0.00000000000E+00 0.  1.
</event>
<event>
 7    1  0.2732144E-009  0.9909027E+02  0.7561462E-02  0.1282221E+00
         -2   -1    0    0    0  501 -0.00000000000E+00  0.00000000000E+00  0.66293049821E+02  0.66293049821E+02  0.00000000000E+00 0.  1.
          2   -1    0    0  501    0  0.00000000000E+00 -0.00000000000E+00 -0.19258378062E+03  0.19258378062E+03  0.00000000000E+00 0. -1.
         25    2    1    2    0    0  0.23176373451E+02  0.17252573112E+02 -0.61750744629E+02  0.14247783450E+03  0.12510788662E+03 0.  0.
          5    1    3    3  502    0  0.63361565525E+02 -0.26254839919E+02 -0.28147335190E+02  0.74254626005E+02  0.41800000000E+01 0. -1.
         -5    1    3    3    0  502 -0.40185192074E+02  0.43507413031E+02 -0.33603409439E+02  0.68223208490E+02  0.41800000000E+01 0. -1.
        -11    1    1    2    0    0  0.62028541171E+01 -0.35149649768E+02 -0.72747780578E+02  0.81032171740E+02  0.00000000000E+00 0. -1.
         11    1    1    2    0    0 -0.29379227568E+02  0.17897076655E+02  0.82077944076E+01  0.35366824205E+02  0.00000000000E+00 0.  1.
</event>
<event>
 7    1  0.2732144E-009  0.7217482E+02  0.7561462E-02  0.1352850E+00
         -1   -1    0    0    0  501 -0.00000000000E+00  0.00000000000E+00  0.12879260379E+03  0.12879260379E+03  0.00000000000E+00 0.  1.
          1   -1    0    0  501    0  0.00000000000E+00 -0.00000000000E+00 -0.99159231338E+02  0.99159231338E+02  0.00000000000E+00 0. -1.
         25    2    1    2    0    0  0.13547927629E+02  0.87193087546E+01  0.45958170331E+02  0.13422320257E+03  0.12507654456E+03 0.  0.
          5    1    3    3  502    0 -0.32301125681E+02  0.37773986096E+02  0.59977472421E+02  0.78006450655E+02  0.41800000000E+01 0.  1.
         -5    1    3    3    0  502  0.45849053310E+02 -0.29054677342E+02 -0.14019302090E+02  0.56216751916E+02  0.41800000000E+01 0.  1.
        -11    1    1    2    0    0  0.99422699829E+01  0.66494546847E+01  0.34033952649E+02  0.36074560468E+02  0.00000000000E+00 0.  1.
         11    1    1    2    0    0 -0.23490197612E+02 -0.15368763439E+02 -0.50358750530E+02  0.57654072089E+02  0.00000000000E+00 0. -1.
</event>
<event>
 7    1  0.2732144E-009  0.6573940E+02  0.7561462E-02  0.1375212E+00
          2   -1    0    0  501    0  0.00000000000E+00  0.00000000000E+00  0.13004847863E+03  0.13004847863E+03  0.00000000000E+00 0. -1.
         -2   -1    0    0    0  501 -0.00000000000E+00 -0.00000000000E+00 -0.11602060091E+03  0.11602060091E+03  0.00000000000E+00 0.  1.
         25    2    1    2    0    0  0.11301179366E+02  0.16341287365E+02  0.62123752236E+02  0.14107536632E+03  0.12509254200E+03 0.  0.
          5    1    3    3  502    0  0.32682366930E+02  0.63806960874E+01 -0.30533274042E+02  0.45371837239E+02  0.41800000000E+01 0. -1.
         -5    1    3    3    0  502 -0.21381187564E+02  0.99605912773E+01  0.92657026279E+02  0.95703529084E+02  0.41800000000E+01 0. -1.
        -11    1    1    2    0    0 -0.40315089370E+02 -0.19489502629E+02 -0.58799197812E+02  0.73908678834E+02  0.00000000000E+00 0.  1.
         11    1    1    2    0    0  0.29013910004E+02  0.31482152642E+01  0.10703323302E+02  0.31085034386E+02  0.00000000000E+00 0. -1.
</event>
<event>
 7    1  0.2732144E-009  0.1110058E+03  0.7561462E-02  0.1258719E+00
          4   -1    0    0  501    0  0.00000000000E+00  0.00000000000E+00  0.23319835510E+03  0.23319835510E+03  0.00000000000E+00 0. -1.
         -4   -1    0    0    0  501 -0.00000000000E+00 -0.00000000000E+00 -0.11227232281E+03  0.11227232281E+03  0.00000000000E+00 0.  1.
         25    2    1    2    0    0  0.23647811121E+02 -0.97078696646E+02  0.13414481027E+03  0.20885267764E+03  0.12506445747E+03 0.  0.
          5    1    3    3  502    0  0.35416335707E+02 -0.35951581051E+02  0.13734286964E+03  0.14638090469E+03  0.41800000000E+01 0. -1.
         -5    1    3    3    0  502 -0.11768524586E+02 -0.61127115595E+02 -0.31980593750E+01  0.62471772951E+02  0.41800000000E+01 0. -1.
        -11    1    1    2    0    0  0.12021329321E+02  0.13303797682E+02 -0.38201775409E+02  0.42200462507E+02  0.00000000000E+00 0.  1.
         11    1    1    2    0    0 -0.35669140442E+02  0.83774898964E+02  0.24982997435E+02  0.94417537763E+02  0.00000000000E+00 0. -1.
</event>
<event>
 7    1  0.2732144E-009  0.1498981E+03  0.7561462E-02  0.1200598E+00
         -2   -1    0    0    0  501 -0.00000000000E+00  0.00000000000E+00  0.15499355972E+03  0.15499355972E+03  0.00000000000E+00 0.  1.
          2   -1    0    0  501    0  0.00000000000E+00 -0.00000000000E+00 -0.22745709135E+03  0.22745709135E+03  0.00000000000E+00 0. -1.
         25    2    1    2    0    0 -0.69344952352E+02 -0.10051389012E+03  0.55376107936E+02  0.18337323082E+03  0.12508982343E+03 0.  0.
          5    1    3    3  502    0 -0.54105887426E+02 -0.11904610695E+03  0.91834738453E+01  0.13115346440E+03  0.41800000000E+01 0. -1.
         -5    1    3    3    0  502 -0.15239064926E+02  0.18532216824E+02  0.46192634091E+02  0.52219766416E+02  0.41800000000E+01 0. -1.
        -11    1    1    2    0    0  0.51131335831E+02  0.11197067234E+03 -0.80503997384E+02  0.14708072125E+03  0.00000000000E+00 0.  1.
         11    1    1    2    0    0  0.18213616521E+02 -0.11456782215E+02 -0.47335642186E+02  0.51996698997E+02  0.00000000000E+00 0. -1.
</event>
<event>
 7    1  0.2732144E-009  0.1861096E+03  0.7561462E-02  0.1162018E+00
          3   -1    0    0  501    0  0.00000000000E+00  0.00000000000E+00  0.31303537577E+02  0.31303537577E+02  0.00000000000E+00 0. -1.
         -3   -1    0    0    0  501 -0.00000000000E+00 -0.00000000000E+00 -0.13815271658E+04  0.13815271658E+04  0.00000000000E+00 0.  1.
         25    2    1    2    0    0  0.56862782173E+02  0.16666194970E+03 -0.64129261586E+03  0.67669289807E+03  0.12508987835E+03 0.  0.
          5    1    3    3  502    0  0.13214020003E+02  0.71443620011E+02 -0.91085391725E+02  0.11658825906E+03  0.41800000000E+01 0. -1.
         -5    1    3    3    0  502  0.43648762170E+02  0.95218329691E+02 -0.55020722413E+03  0.56010463901E+03  0.41800000000E+01 0. -1.
        -11    1    1    2    0    0 -0.62780539354E+02 -0.57010894428E+02 -0.38049117600E+03  0.38982710683E+03  0.00000000000E+00 0.  1.
         11    1    1    2    0    0  0.59177571811E+01 -0.10965105527E+03 -0.32843983639E+03  0.34631069851E+03  0.00000000000E+00 0. -1.
</event>
<event>
 7    1  0.2732144E-009  0.1393466E+03  0.7561462E-02  0.1214211E+00
          2   -1    0    0  501    0  0.00000000000E+00  0.00000000000E+00  0.11371329913E+04  0.11371329913E+04  0.00000000000E+00 0. -1.
         -2   -1    0    0    0  501 -0.00000000000E+00 -0.00000000000E+00 -0.17473043371E+02  0.17473043371E+02  0.00000000000E+00 0.  1.
         25    2    1    2    0    0 -0.88948406045E+02 -0.66350463120E+01  0.65612761555E+03  0.67387473146E+03  0.12509141875E+03 0.  0.
          5    1    3    3  502    0 -0.60127532810E+00  0.48022521125E+02  0.25322772676E+03  0.25777563513E+03  0.41800000000E+01 0. -1.
         -5    1    3    3    0  502 -0.88347130717E+02 -0.54657567437E+02  0.40289988879E+03  0.41609909633E+03  0.41800000000E+01 0. -1.
        -11    1    1    2    0    0  0.80436404467E+02 -0.32284850847E+02  0.34319655348E+03  0.35397203432E+03  0.00000000000E+00 0. -1.
         11    1    1    2    0    0  0.85120015780E+01  0.38919897159E+02  0.12033577892E+03  0.12675926890E+03  0.00000000000E+00 0.  1.
</event>
<event>
 7    1  0.2732144E-009  0.2072329E+03  0.7561462E-02  0.1143776E+00
          1   -1    0    0  501    0  0.00000000000E+00  0.00000000000E+00  0.12224324466E+04  0.12224324466E+04  0.00000000000E+00 0. -1.
         -1   -1    0    0    0  501 -0.00000000000E+00 -0.00000000000E+00 -0.41708298523E+02  0.41708298523E+02  0.00000000000E+00 0.  1.
         25    2    1    2    0    0  0.16941186295E+03  0.10081182383E+03  0.67293914359E+03  0.71229081327E+03  0.12509080129E+03 0.  0.
          5    1    3    3  502    0  0.17691494998E+03  0.10694338124E+03  0.52912858686E+03  0.56809358397E+03  0.41800000000E+01 0.  1.
         -5    1    3    3    0  502 -0.75030870355E+01 -0.61315574072E+01  0.14381055672E+03  0.14419722930E+03  0.41800000000E+01 0.  1.
        -11    1    1    2    0    0 -0.82041276992E+02 -0.47907110184E+02  0.35915139764E+03  0.37150449360E+03  0.00000000000E+00 0. -1.
         11    1    1    2    0    0 -0.87370585955E+02 -0.52904713648E+02  0.14863360690E+03  0.18034543830E+03  0.00000000000E+00 0.  1.
</event>
<event>
 7    1  0.2732144E-009  0.1147906E+03  0.7561462E-02  0.1251947E+00
          1   -1    0    0  501    0  0.00000000000E+00  0.00000000000E+00  0.18254488827E+03  0.18254488827E+03  0.00000000000E+00 0. -1.
         -1   -1    0    0    0  501 -0.00000000000E+00 -0.00000000000E+00 -0.10353507501E+03  0.10353507501E+03  0.00000000000E+00 0.  1.
         25    2    1    2    0    0  0.21638847564E+02  0.77169207094E+02  0.72660622420E+02  0.16537995579E+03  0.12509051714E+03 0.  0.
          5    1    3    3  502    0  0.62737702886E+02  0.36277334953E+01  0.41662714619E+02  0.75514462212E+02  0.41800000000E+01 0.  1.
         -5    1    3    3    0  502 -0.41098855322E+02  0.73541473598E+02  0.30997907800E+02  0.89865493577E+02  0.41800000000E+01 0.  1.
        -11    1    1    2    0    0 -0.17923983642E+02 -0.30088707702E+02  0.46844053809E+02  0.58489015191E+02  0.00000000000E+00 0. -1.
         11    1    1    2    0    0 -0.37148639223E+01 -0.47080499392E+02 -0.40494862969E+02  0.62210992308E+02  0.00000000000E+00 0.  1.
</event>
<event>
 7    1  0.2732144E-009  0.7932737E+02  0.7561462E-02  0.1330971E+00
         -1   -1    0    0    0  501 -0.00000000000E+00  0.00000000000E+00  0.22056313224E+03  0.22056313224E+03  0.00000000000E+00 0.  1.
          1   -1    0    0  501    0  0.00000000000E+00 -0.00000000000E+00 -0.53496723083E+02  0.53496723083E+02  0.00000000000E+00 0. -1.
         25    2    1    2    0    0  0.84592442765E-01 -0.35473338131E+01  0.99015421327E+02  0.15957437882E+03  0.12508932002E+03 0.  0.
          5    1    3    3  502    0  0.39167697663E+02 -0.28693929778E+02 -0.14999687811E+01  0.48756255523E+02  0.41800000000E+01 0.  1.
         -5    1    3    3    0  502 -0.39083105220E+02  0.25146595964E+02  0.10051539011E+03  0.11081812330E+03  0.41800000000E+01 0.  1.
        -11    1    1    2    0    0 -0.19999585466E+02  0.26288475454E+02  0.76307275501E+02  0.83149670203E+02  0.00000000000E+00 0.  1.
         11    1    1    2    0    0  0.19914993023E+02 -0.22741141640E+02 -0.82562876738E+01  0.31335806298E+02  0.00000000000E+00 0. -1.
</event>
<event>
 7    1  0.2732144E-009  0.1795670E+03  0.7561462E-02  0.1168223E+00
         -2   -1    0    0    0  501 -0.00000000000E+00  0.00000000000E+00  0.27129243195E+02  0.27129243195E+02  0.00000000000E+00 0.  1.
          2   -1    0    0  501    0  0.00000000000E+00 -0.00000000000E+00 -0.15087810890E+04  0.15087810890E+04  0.00000000000E+00 0. -1.
         25    2    1    2    0    0  0.14928971978E+03  0.59828408797E+02 -0.98359544848E+03  0.10044771548E+04  0.12508992500E+03 0.  0.
          5    1    3    3  502    0  0.13807050099E+03  0.89916787165E+02 -0.89716790566E+03  0.91218211734E+03  0.41800000000E+01 0. -1.
         -5    1    3    3    0  502  0.11219218785E+02 -0.30088378367E+02 -0.86427542816E+02  0.92295037462E+02  0.41800000000E+01 0. -1.
        -11    1    1    2    0    0 -0.84094975121E+02 -0.23591128227E+02 -0.39301465177E+03  0.40260281007E+03  0.00000000000E+00 0. -1.
         11    1    1    2    0    0 -0.65194744655E+02 -0.36237280570E+02 -0.10504174558E+03  0.12883036734E+03  0.00000000000E+00 0.  1.
</event>
<event>
 7    1  0.2732144E-009  0.1370807E+03  0.7561462E-02  0.1217312E+00
         -2   -1    0    0    0  501 -0.00000000000E+00  0.00000000000E+00  0.17388868455E+02  0.17388868455E+02  0.00000000000E+00 0.  1.
          2   -1    0    0  501    0  0.00000000000E+00 -0.00000000000E+00 -0.11674217815E+04  0.11674217815E+04  0.00000000000E+00 0. -1.
         25    2    1    2    0    0  0.54512462390E+01  0.90933220678E+02 -0.61805036070E+03  0.63712838073E+03  0.12509100071E+03 0.  0.
          5    1    3    3  502    0 -0.17166194068E+02 -0.28247882541E+02 -0.12671568790E+03  0.13102274248E+03  0.41800000000E+01 0. -1.
         -5    1    3    3    0  502  0.22617440307E+02  0.11918110322E+03 -0.49133467280E+03  0.50610563825E+03  0.41800000000E+01 0. -1.
        -11    1    1    2    0    0  0.22235292343E+02 -0.88970762780E+02 -0.48070507740E+03  0.48937467884E+03  0.00000000000E+00 0. -1.
         11    1    1    2    0    0 -0.27686538582E+02 -0.19624578973E+01 -0.51277474951E+02  0.58307590389E+02  0.00000000000E+00 0.  1.
</event>
<event>
 7    1  0.2732144E-009  0.1658171E+03  0.7561462E-02  0.1182282E+00
         -2   -1    0    0    0  501 -0.00000000000E+00  0.00000000000E+00  0.74507340804E+02  0.74507340804E+02  0.00000000000E+00 0.  1.
          2   -1    0    0  501    0  0.00000000000E+00 -0.00000000000E+00 -0.57464417120E+03  0.57464417120E+03  0.00000000000E+00 0. -1.
         25    2    1    2    0    0  0.15625995543E+02 -0.14572804985E+03 -0.41377197582E+03  0.45643759425E+03  0.12508874139E+03 0.  0.
          5    1    3    3  502    0  0.29357247806E+02 -0.15797300451E+03 -0.29291400267E+03  0.33411585343E+03  0.41800000000E+01 0.  1.
         -5    1    3    3    0  502 -0.13731252263E+02  0.12244954663E+02 -0.12085797315E+03  0.12232174082E+03  0.41800000000E+01 0.  1.
        -11    1    1    2    0    0  0.91822477099E+01  0.96240976242E+02 -0.83273945715E+01  0.97035996833E+02  0.00000000000E+00 0.  1.
         11    1    1    2    0    0 -0.24808243253E+02  0.49487073606E+02 -0.78037460001E+02  0.95677920916E+02  0.00000000000E+00 0. -1.
</event>
<event>
 7    1  0.3214827E-009  0.1870043E+03  0.7561462E-02  0.1161191E+00
          2   -1    0    0  501    0  0.00000000000E+00  0.00000000000E+00  0.15638855136E+04  0.15638855136E+04  0.00000000000E+00 0. -1.
         -2   -1    0    0    0  501 -0.00000000000E+00 -0.00000000000E+00 -0.23254939685E+02  0.23254939685E+02  0.00000000000E+00 0.  1.
         25    2    1    2    0    0 -0.56509181878E+02  0.14598647887E+03  0.81934363903E+03  0.84349125159E+03  0.12509257790E+03 0.  0.
          5    1    3    3  502    0 -0.15408471538E+02  0.15684772332E+03  0.64145418324E+03  0.66054490453E+03  0.41800000000E+01 0. -1.
         -5    1    3    3    0  502 -0.41100710340E+02 -0.10861244455E+02  0.17788945578E+03  0.18294634705E+03  0.41800000000E+01 0. -1.
        -11    1    1    2    0    0  0.72230707658E+02 -0.89557658966E+02  0.56832480350E+03  0.57985423313E+03  0.00000000000E+00 0. -1.
         11    1    1    2    0    0 -0.15721525781E+02 -0.56428819901E+02  0.15296213140E+03  0.16379496857E+03  0.00000000000E+00 0.  1.
</event>
<event>
 7    1  0.2732144E-009  0.1152804E+03  0.7561462E-02  0.1251093E+00
          3   -1    0    0  501    0  0.00000000000E+00  0.00000000000E+00  0.13931286908E+03  0.13931286908E+03  0.00000000000E+00 0. -1.
         -3   -1    0    0    0  501 -0.00000000000E+00 -0.00000000000E+00 -0.98986506468E+02  0.98986506468E+02  0.00000000000E+00 0.  1.
         25    2    1    2    0    0  0.19505204479E+02 -0.41455248766E+02  0.14354544832E+02  0.13398705179E+03  0.12508991342E+03 0.  0.
          5    1    3    3  502    0  0.56527839069E+02  0.18563560751E+02 -0.73245093780E+01  0.60092621969E+02  0.41800000000E+01 0.  1.
         -5    1    3    3    0  502 -0.37022634590E+02 -0.60018809517E+02  0.21679054210E+02  0.73894429826E+02  0.41800000000E+01 0.  1.
        -11    1    1    2    0    0 -0.46158257048E+02  0.53810893973E+02  0.24081138057E+02  0.74873882055E+02  0.00000000000E+00 0. -1.
         11    1    1    2    0    0  0.26653052569E+02 -0.12355645207E+02  0.18906797229E+01  0.29438441697E+02  0.00000000000E+00 0.  1.
</event>
<event>
 7    1  0.2732144E-009  0.1012488E+03  0.7561462E-02  0.1277692E+00
         -1   -1    0    0    0  501 -0.00000000000E+00  0.00000000000E+00  0.16194695728E+02  0.16194695728E+02  0.00000000000E+00 0.  1.
          1   -1    0    0  501    0  0.00000000000E+00 -0.00000000000E+00 -0.10453422098E+04  0.10453422098E+04  0.00000000000E+00 0. -1.
         25    2    1    2    0    0  0.53390411248E+01 -0.72850367417E+02 -0.61296217769E+03  0.62984554343E+03  0.12508835236E+03 0.  0.
          5    1    3    3  502    0 -0.21324559253E+02 -0.23169275890E+02 -0.28565228626E+02  0.42719981965E+02  0.41800000000E+01 0. -1.
         -5    1    3    3    0  502  0.26663600378E+02 -0.49681091528E+02 -0.58439694907E+03  0.58712556146E+03  0.41800000000E+01 0. -1.
        -11    1    1    2    0    0 -0.33859589365E+02  0.78163790741E+02 -0.32659412174E+03  0.33752002953E+03  0.00000000000E+00 0. -1.
         11    1    1    2    0    0  0.28520548240E+02 -0.53134233232E+01 -0.89591214646E+02  0.94171332586E+02  0.00000000000E+00 0.  1.
</event>
<event>
 7    1  0.2732144E-009  0.1613263E+03  0.7561462E-02  0.1187207E+00
          1   -1    0    0  501    0  0.00000000000E+00  0.00000000000E+00  0.31859549429E+03  0.31859549429E+03  0.00000000000E+00 0. -1.
         -1   -1    0    0    0  501 -0.00000000000E+00 -0.00000000000E+00 -0.99716014122E+02  0.99716014122E+02  0.00000000000E+00 0.  1.
         25    2    1    2    0    0  0.11994857361E+03  0.63005683691E+02  0.70602939599E+02  0.19745622470E+03  0.12508720600E+03 0.  0.
          5    1    3    3  502    0 -0.28748882510E+01 -0.25947826639E+02 -0.65742656809E+01  0.27244229829E+02  0.41800000000E+01 0. -1.
         -5    1    3    3    0  502  0.12282346186E+03  0.88953510330E+02  0.77177205280E+02  0.17021199487E+03  0.41800000000E+01 0. -1.
        -11    1    1    2    0    0 -0.25980731866E+02  0.74823801489E+01 -0.52531740829E+01  0.27542336119E+02  0.00000000000E+00 0.  1.
         11    1    1    2    0    0 -0.93967841743E+02 -0.70488063840E+02  0.15352971465E+03  0.19331294759E+03  0.00000000000E+00 0. -1.
</event>
<event>
 7    1  0.2732144E-009  0.7627775E+02  0.7561462E-02  0.1339959E+00
         -1   -1    0    0    0  501 -0.00000000000E+00  0.00000000000E+00  0.29670218709E+03  0.29670218709E+03  0.00000000000E+00 0.  1.
          1   -1    0    0  501    0  0.00000000000E+00 -0.00000000000E+00 -0.45176701076E+02  0.45176701076E+02  0.00000000000E+00 0. -1.
         25    2    1    2    0    0 -0.40331317113E+02 -0.29411431413E+01  0.12980913893E+03  0.18475306229E+03  0.12509203018E+03 0.  0.
          5    1    3    3  502    0  0.22655924116E+02  0.18156114030E+02  0.11210748316E+03  0.11588138572E+03  0.41800000000E+01 0.  1.
         -5    1    3    3    0  502 -0.62987241229E+02 -0.21097257171E+02  0.17701655762E+02  0.68871676577E+02  0.41800000000E+01 0.  1.
        -11    1    1    2    0    0  0.72682577537E+01 -0.16696322477E+02 -0.93955928049E+01  0.20490776442E+02  0.00000000000E+00 0. -1.
         11    1    1    2    0    0  0.33063059360E+02  0.19637465619E+02  0.13111193989E+03  0.13663504943E+03  0.00000000000E+00 0.  1.
</event>
<event>
 7    1  0.2732144E-009  0.1229590E+03  0.7561462E-02  0.1238294E+00
         -2   -1    0    0    0  501 -0.00000000000E+00  0.00000000000E+00  0.74359682502E+03  0.74359682502E+03  0.00000000000E+00 0.  1.
          2   -1    0    0  501    0  0.00000000000E+00 -0.00000000000E+00 -0.25295573663E+02  0.25295573663E+02  0.00000000000E+00 0. -1.
         25    2    1    2    0    0 -0.23288860138E+02 -0.73958657967E+02  0.47538531241E+03  0.49764461081E+03  0.12508680714E+03 0.  0.
          5    1    3    3  502    0 -0.54272044114E+02 -0.81793396275E+02  0.43508826444E+03  0.44604359058E+03  0.41800000000E+01 0.  1.
         -5    1    3    3    0  502  0.30983183976E+02  0.78347383075E+01  0.40297047967E+02  0.51601020227E+02  0.41800000000E+01 0.  1.
        -11    1    1    2    0    0 -0.30498423779E+02  0.10511518939E+02  0.10834544398E+03  0.11304592481E+03  0.00000000000E+00 0.  1.
         11    1    1    2    0    0  0.53787283917E+02  0.63447139028E+02  0.13457049497E+03  0.15820186307E+03  0.00000000000E+00 0. -1.
</event>
<event>
 7    1  0.2732144E-009  0.1724277E+03  0.7561462E-02  0.1175340E+00
          2   -1    0    0  501    0  0.00000000000E+00  0.00000000000E+00  0.51146070622E+02  0.51146070622E+02  0.00000000000E+00 0. -1.
         -2   -1    0    0    0  501 -0.00000000000E+00 -0.00000000000E+00 -0.62621407207E+03  0.62621407207E+03  0.00000000000E+00 0.  1.
         25    2    1    2    0    0 -0.14078704951E+03 -0.90350598662E+01 -0.33444359873E+03  0.38393111591E+03  0.12509178796E+03 0.  0.
          5    1    3    3  502    0 -0.13070626223E+02  0.46736912792E+02 -0.98078994756E+02  0.10950863847E+03  0.41800000000E+01 0.  1.
         -5    1    3    3    0  502 -0.12771642329E+03 -0.55771972658E+02 -0.23636460397E+03  0.27442247744E+03  0.41800000000E+01 0.  1.
        -11    1    1    2    0    0  0.78302816815E+02  0.38936859752E+02 -0.18486286473E+03  0.20450351812E+03  0.00000000000E+00 0.  1.
         11    1    1    2    0    0  0.62484232694E+02 -0.29901799886E+02 -0.55761537990E+02  0.88925508662E+02  0.00000000000E+00 0. -1.
</event>
<event>
 7    1  0.2732144E-009  0.1372964E+03  0.7561462E-02  0.1217014E+00
         -2   -1    0    0    0  501 -0.00000000000E+00  0.00000000000E+00  0.10070450234E+02  0.10070450234E+02  0.00000000000E+00 0. -1.
          2   -1    0    0  501    0  0.00000000000E+00 -0.00000000000E+00 -0.20238946473E+04  0.20238946473E+04  0.00000000000E+00 0.  1.
         25    2    1    2    0    0  0.81960353513E+02 -0.20487985657E+02 -0.13226842125E+04  0.13312695376E+04  0.12509116155E+03 0.  0.
          5    1    3    3  502    0 -0.29444096037E+02  0.11228788927E+02 -0.18663115904E+03  0.18931904927E+03  0.41800000000E+01 0. -1.
         -5    1    3    3    0  502  0.11140444955E+03 -0.31716774583E+02 -0.11360530535E+04  0.11419504883E+04  0.41800000000E+01 0. -1.
        -11    1    1    2    0    0 -0.17367961200E+02 -0.36715690130E+02 -0.22613967923E+03  0.22975822619E+03  0.00000000000E+00 0.  1.
         11    1    1    2    0    0 -0.64592392313E+02  0.57203675787E+02 -0.46500030530E+03  0.47293733369E+03  0.00000000000E+00 0. -1.
</event>
<event>
 7    1  0.2732144E-009  0.1788545E+03  0.7561462E-02  0.1168916E+00
         -2   -1    0    0    0  501 -0.00000000000E+00  0.00000000000E+00  0.15327552948E+03  0.15327552948E+03  0.00000000000E+00 0.  1.
          2   -1    0    0  501    0  0.00000000000E+00 -0.00000000000E+00 -0.24376869874E+03  0.24376869874E+03  0.00000000000E+00 0. -1.
         25    2    1    2    0    0  0.13268495152E+03 -0.76120187503E+02 -0.91285562109E+02  0.21767412408E+03  0.12509752651E+03 0.  0.
          5    1    3    3  502    0  0.22993097736E+02 -0.68252491033E+02 -0.78925898017E+02  0.10692920487E+03  0.41800000000E+01 0. -1.
         -5    1    3    3    0  502  0.10969185379E+03 -0.78676964701E+01 -0.12359664092E+02  0.11074491921E+03  0.41800000000E+01 0. -1.
        -11    1    1    2    0    0 -0.57102472938E+02 -0.13096016171E+02  0.17758358206E+02  0.61217296097E+02  0.00000000000E+00 0.  1.
         11    1    1    2    0    0 -0.75582478585E+02  0.89216203674E+02 -0.16965965362E+02  0.11815280804E+03  0.00000000000E+00 0. -1.
</event>
<event>
 7    1  0.2732144E-009  0.9080372E+02  0.7561462E-02  0.1300917E+00
         -1   -1    0    0    0  501 -0.00000000000E+00  0.00000000000E+00  0.39389634438E+02  0.39389634438E+02  0.00000000000E+00 0. -1.
          1   -1    0    0  501    0  0.00000000000E+00 -0.00000000000E+00 -0.31019987202E+03  0.31019987202E+03  0.00000000000E+00 0.  1.
         25    2    1    2    0    0 -0.15214765699E+02 -0.26467653597E+01 -0.14121564336E+03  0.18928133783E+03  0.12508825867E+03 0.  0.
          5    1    3    3  502    0 -0.50967909085E+02 -0.44101300224E+01 -0.14425377014E+03  0.15311368196E+03  0.41800000000E+01 0.  1.
         -5    1    3    3    0  502  0.35753143385E+02  0.17633646627E+01  0.30381267737E+01  0.36167655871E+02  0.41800000000E+01 0.  1.
        -11    1    1    2    0    0  0.47936443277E+02  0.25528536317E+02 -0.78686862629E+02  0.95609785644E+02  0.00000000000E+00 0. -1.
         11    1    1    2    0    0 -0.32721677577E+02 -0.22881770957E+02 -0.50907731591E+02  0.64698382989E+02  0.00000000000E+00 0.  1.
</event>
<event>
 7    1  0.2732144E-009  0.1215482E+03  0.7561462E-02  0.1240565E+00
         -2   -1    0    0    0  501 -0.00000000000E+00  0.00000000000E+00  0.15240280297E+03  0.15240280297E+03  0.00000000000E+00 0.  1.
          2   -1    0    0  501    0  0.00000000000E+00 -0.00000000000E+00 -0.38340201846E+03  0.38340201846E+03  0.00000000000E+00 0. -1.
         25    2    1    2    0    0  0.66013728213E+02  0.69273555417E+01 -0.34659787879E+03  0.37441049481E+03  0.12508928200E+03 0.  0.
          5    1    3    3  502    0 -0.34601854404E+02 -0.82677312502E+01 -0.55929587080E+02  0.66417127453E+02  0.41800000000E+01 0.  1.
         -5    1    3    3    0  502  0.10061558262E+03  0.15195086792E+02 -0.29066829171E+03  0.30799336736E+03  0.41800000000E+01 0.  1.
        -11    1    1    2    0    0 -0.57986761755E+02 -0.40619521445E+02  0.48295712731E+02  0.85702309942E+02  0.00000000000E+00 0. -1.
         11    1    1    2    0    0 -0.80269664580E+01  0.33692165903E+02  0.67302950567E+02  0.75692016678E+02  0.00000000000E+00 0.  1.
</event>
<event>
 7    1  0.2732144E-009  0.9786449E+02  0.7561462E-02  0.1284852E+00
          2   -1    0    0  501    0  0.00000000000E+00  0.00000000000E+00  0.31447337941E+03  0.31447337941E+03  0.00000000000E+00 0. -1.
         -2   -1    0    0    0  501 -0.00000000000E+00 -0.00000000000E+00 -0.57269292080E+02  0.57269292080E+02  0.00000000000E+00 0.  1.
         25    2    1    2    0    0 -0.18539184296E+02 -0.13831506229E+02  0.30584867940E+02  0.13084822150E+03  0.12510320141E+03 0.  0.
          5    1    3    3  502    0 -0.66952553964E+02 -0.16594864248E+02  0.41984382223E+02  0.80859104326E+02  0.41800000000E+01 0.  1.
         -5    1    3    3    0  502  0.48413369668E+02  0.27633580194E+01 -0.11399514284E+02  0.49989117176E+02  0.41800000000E+01 0.  1.
        -11    1    1    2    0    0  0.45926079050E+02  0.19650903321E+02  0.17707623556E+03  0.18398737983E+03  0.00000000000E+00 0. -1.
         11    1    1    2    0    0 -0.27386894754E+02 -0.58193970924E+01  0.49542983830E+02  0.56907070155E+02  0.00000000000E+00 0.  1.
</event>
<event>
 7    1  0.2732144E-009  0.1153786E+03  0.7561462E-02  0.1250922E+00
         -1   -1    0    0    0  501 -0.00000000000E+00  0.00000000000E+00  0.10478545327E+02  0.10478545327E+02  0.00000000000E+00 0.  1.
          1   -1    0    0  501    0  0.00000000000E+00 -0.00000000000E+00 -0.21851439410E+04  0.21851439410E+04  0.00000000000E+00 0. -1.
         25    2    1    2    0    0  0.31699725401E+02  0.35141592212E+02 -0.18517012025E+04  0.18565245600E+04  0.12508514961E+03 0.  0.
          5    1    3    3  502    0  0.49873644175E+02  0.74198683335E+02 -0.11394578543E+04  0.11429674095E+04  0.41800000000E+01 0.  1.
         -5    1    3    3    0  502 -0.18173918774E+02 -0.39057091123E+02 -0.71224334817E+03  0.71355715055E+03  0.41800000000E+01 0.  1.
        -11    1    1    2    0    0 -0.23867424183E+02  0.26600962236E+02 -0.70069270212E+02  0.78657280382E+02  0.00000000000E+00 0.  1.
         11    1    1    2    0    0 -0.78323012178E+01 -0.61742554448E+02 -0.25289492297E+03  0.26044064590E+03  0.00000000000E+00 0. -1.
</event>
<event>
 7    1  0.2732144E-009  0.7007474E+02  0.7561462E-02  0.1359839E+00
         -2   -1    0    0    0  501 -0.00000000000E+00  0.00000000000E+00  0.17500630959E+03  0.17500630959E+03  0.00000000000E+00 0.  1.
          2   -1    0    0  501    0  0.00000000000E+00 -0.00000000000E+00 -0.67982426906E+02  0.67982426906E+02  0.00000000000E+00 0. -1.
         25    2    1    2    0    0 -0.13935026452E+02  0.98699077219E+01  0.56345041611E+02  0.13825203369E+03  0.12508901257E+03 0.  0.
          5    1    3    3  502    0 -0.14792806950E+02 -0.38426626703E+02 -0.21426723909E+02  0.46604824586E+02  0.41800000000E+01 0. -1.
         -5    1    3    3    0  502  0.85778049760E+00  0.48296534425E+02  0.77771765519E+02  0.91647209106E+02  0.41800000000E+01 0. -1.
        -11    1    1    2    0    0 -0.10686074859E+02  0.12893304558E+02 -0.20252391117E+02  0.26279057142E+02  0.00000000000E+00 0. -1.
         11    1    1    2    0    0  0.24621101311E+02 -0.22763212280E+02  0.70931232189E+02  0.78457645663E+02  0.00000000000E+00 0.  1.
</event>
<event>
 7    1  0.2732144E-009  0.8931134E+02  0.7561462E-02  0.1304528E+00
         -2   -1    0    0    0  501 -0.00000000000E+00  0.00000000000E+00  0.98319639651E+02  0.98319639651E+02  0.00000000000E+00 0.  1.
          2   -1    0    0  501    0  0.00000000000E+00 -0.00000000000E+00 -0.30179047025E+03  0.30179047025E+03  0.00000000000E+00 0. -1.
         25    2    1    2    0    0 -0.49908769913E+02  0.46369102964E+02 -0.24392752533E+03  0.28246307066E+03  0.12507505606E+03 0.  0.
          5    1    3    3  502    0 -0.43486515799E+02 -0.43199508972E+00 -0.22843063595E+03  0.23257104617E+03  0.41800000000E+01 0. -1.
         -5    1    3    3    0  502 -0.64222541147E+01  0.46801098053E+02 -0.15496889377E+02  0.49892024486E+02  0.41800000000E+01 0. -1.
        -11    1    1    2    0    0  0.61606984927E+02 -0.33531353873E+02 -0.36580586569E+01  0.70236412760E+02  0.00000000000E+00 0. -1.
         11    1    1    2    0    0 -0.11698215013E+02 -0.12837749091E+02  0.44114753392E+02  0.47410626478E+02  0.00000000000E+00 0.  1.
</event>
<event>
 7    1  0.2732144E-009  0.2548645E+03  0.7561462E-02  0.1110269E+00
          1   -1    0    0  501    0  0.00000000000E+00  0.00000000000E+00  0.95021232068E+03  0.95021232068E+03  0.00000000000E+00 0. -1.
         -1   -1    0    0    0  501 -0.00000000000E+00 -0.00000000000E+00 -0.79802454151E+02  0.79802454151E+02  0.00000000000E+00 0.  1.
         25    2    1    2    0    0  0.22520407536E+03  0.67889216637E+02  0.61133094353E+03  0.66685755755E+03  0.12509060016E+03 0.  0.
          5    1    3    3  502    0  0.18069549946E+03  0.72898292860E+01  0.50611515426E+03  0.53747002420E+03  0.41800000000E+01 0. -1.
         -5    1    3    3    0  502  0.44508575900E+02  0.60599387351E+02  0.10521578927E+03  0.12938753335E+03  0.41800000000E+01 0. -1.
        -11    1    1    2    0    0 -0.67781922458E+02  0.23218227550E+02  0.87752749662E+02  0.11328733458E+03  0.00000000000E+00 0.  1.
         11    1    1    2    0    0 -0.15742215290E+03 -0.91107444187E+02  0.17132617334E+03  0.24986988270E+03  0.00000000000E+00 0. -1.
</event>
<event>
 7    1  0.2732144E-009  0.1193931E+03  0.7561462E-02  0.1244102E+00
          1   -1    0    0  501    0  0.00000000000E+00  0.00000000000E+00  0.66843428950E+02  0.66843428950E+02  0.00000000000E+00 0. -1.
         -1   -1    0    0    0  501 -0.00000000000E+00 -0.00000000000E+00 -0.24929732684E+03  0.24929732684E+03  0.00000000000E+00 0.  1.
         25    2    1    2    0    0  0.62134110388E+01 -0.69798785478E+02 -0.12411416804E+03  0.18964116675E+03  0.12509583721E+03 0.  0.
          5    1    3    3  502    0  0.27548528339E+02 -0.92498551730E+02 -0.49223463124E+02  0.10842197751E+03  0.41800000000E+01 0. -1.
         -5    1    3    3    0  502 -0.21335117300E+02  0.22699766252E+02 -0.74890704911E+02  0.81219189237E+02  0.41800000000E+01 0. -1.
        -11    1    1    2    0    0 -0.44701447441E+01 -0.20223306767E+02 -0.19479361524E+02  0.28432549236E+02  0.00000000000E+00 0.  1.
         11    1    1    2    0    0 -0.17432662947E+01  0.90022092245E+02 -0.38860368330E+02  0.98067039806E+02  0.00000000000E+00 0. -1.
</event>
<event>
 7    1  0.2732144E-009  0.1519454E+03  0.7561462E-02  0.1198103E+00
         -1   -1    0    0    0  501 -0.00000000000E+00  0.00000000000E+00  0.19875701241E+03  0.19875701241E+03  0.00000000000E+00 0. -1.
          1   -1    0    0  501    0  0.00000000000E+00 -0.00000000000E+00 -0.15616721157E+03  0.15616721157E+03  0.00000000000E+00 0.  1.
         25    2    1    2    0    0  0.92811647170E+02  0.10179011461E+03  0.11138711142E+02  0.18640686965E+03  0.12509284905E+03 0.  0.
          5    1    3    3  502    0  0.57881459481E+02  0.19343818017E+02 -0.49073804659E+02  0.78422938932E+02  0.41800000000E+01 0. -1.
         -5    1    3    3    0  502  0.34930187689E+02  0.82446296597E+02  0.60212515800E+02  0.10798393072E+03  0.41800000000E+01 0. -1.
        -11    1    1    2    0    0 -0.26632881889E+02 -0.78547498318E+02  0.48841115685E+02  0.96252140085E+02  0.00000000000E+00 0.  1.
         11    1    1    2    0    0 -0.66178765282E+02 -0.23242616297E+02 -0.17390025986E+02  0.72265214248E+02  0.00000000000E+00 0. -1.
</event>
<event>
 7    1  0.2732144E-009  0.1060712E+03  0.7561462E-02  0.1268023E+00
         -2   -1    0    0    0  501 -0.00000000000E+00  0.00000000000E+00  0.12141956177E+02  0.12141956177E+02  0.00000000000E+00 0. -1.
          2   -1    0    0  501    0  0.00000000000E+00 -0.00000000000E+00 -0.12018883667E+04  0.12018883667E+04  0.00000000000E+00 0.  1.
         25    2    1    2    0    0 -0.36711997310E+02 -0.29215222864E+02 -0.79989470376E+03  0.81097609997E+03  0.12509755243E+03 0.  0.
          5    1    3    3  502    0 -0.36446469966E+01  0.48125090595E+02 -0.34003538884E+03  0.34346884263E+03  0.41800000000E+01 0. -1.
         -5    1    3    3    0  502 -0.33067350313E+02 -0.77340313459E+02 -0.45985931492E+03  0.46750725734E+03  0.41800000000E+01 0. -1.
        -11    1    1    2    0    0  0.47523483881E+02  0.41517300922E+02 -0.37697601309E+03  0.38222124776E+03  0.00000000000E+00 0.  1.
         11    1    1    2    0    0 -0.10811486571E+02 -0.12302078058E+02 -0.12875693710E+02  0.20832975182E+02  0.00000000000E+00 0. -1.
</event>
<event>
 7    1  0.2732144E-009  0.8023414E+02  0.7561462E-02  0.1328388E+00
          2   -1    0    0  501    0  0.00000000000E+00  0.00000000000E+00  0.65857925091E+02  0.65857925091E+02  0.00000000000E+00 0.  1.
         -2   -1    0    0    0  501 -0.00000000000E+00 -0.00000000000E+00 -0.20340678042E+03  0.20340678042E+03  0.00000000000E+00 0. -1.
         25    2    1    2    0    0  0.11580130553E+02  0.21350829740E+02 -0.11015137038E+03  0.16842602569E+03  0.12507615432E+03 0.  0.
          5    1    3    3  502    0 -0.48200094901E+01 -0.47471488128E+02 -0.15832352285E+02  0.50447105521E+02  0.41800000000E+01 0. -1.
         -5    1    3    3    0  502  0.16400140043E+02  0.68822317868E+02 -0.94319018096E+02  0.11797892017E+03  0.41800000000E+01 0. -1.
        -11    1    1    2    0    0 -0.15787621462E+01 -0.29039278955E+02  0.30170314648E+02  0.41904893486E+02  0.00000000000E+00 0.  1.
         11    1    1    2    0    0 -0.10001368407E+02  0.76884492152E+01 -0.57567799600E+02  0.58933786338E+02  0.00000000000E+00 0. -1.
</event>
<event>
 7    1  0.2732144E-009  0.1087600E+03  0.7561462E-02  0.1262884E+00
          1   -1    0    0  501    0  0.00000000000E+00  0.00000000000E+00  0.68055364300E+03  0.68055364300E+03  0.00000000000E+00 0. -1.
         -1   -1    0    0    0  501 -0.00000000000E+00 -0.00000000000E+00 -0.20805461311E+02  0.20805461311E+02  0.00000000000E+00 0.  1.
         25    2    1    2    0    0 -0.22102405432E+02 -0.89623699443E+01  0.40775471986E+03  0.42717796285E+03  0.12509300531E+03 0.  0.
          5    1    3    3  502    0 -0.13929525255E+02  0.57954729338E+02  0.18537680085E+03  0.19476861406E+03  0.41800000000E+01 0.  1.
         -5    1    3    3    0  502 -0.81728801771E+01 -0.66917099282E+02  0.22237791900E+03  0.23240934879E+03  0.41800000000E+01 0.  1.
        -11    1    1    2    0    0 -0.30960423061E+02  0.18851480084E+02  0.34329104331E+02  0.49924077374E+02  0.00000000000E+00 0.  1.
         11    1    1    2    0    0  0.53062828493E+02 -0.98891101394E+01  0.21766435750E+03  0.22425706408E+03  0.00000000000E+00 0. -1.
</event>
<event>
 7    1  0.2732144E-009  0.1689696E+03  0.7561462E-02  0.1178927E+00
         -1   -1    0    0    0  501 -0.00000000000E+00  0.00000000000E+00  0.39985831978E+02  0.39985831978E+02  0.00000000000E+00 0.  1.
          1   -1    0    0  501    0  0.00000000000E+00 -0.00000000000E+00 -0.89071304575E+03  0.89071304575E+03  0.00000000000E+00 0. -1.
         25    2    1    2    0    0  0.78502328249E+02  0.12265184368E+03 -0.32770255567E+03  0.37979273182E+03  0.12508982315E+03 0.  0.
          5    1    3    3  502    0  0.26093748647E+02 -0.24031267919E+02 -0.71518914120E+02  0.79942560837E+02  0.41800000000E+01 0.  1.
         -5    1    3    3    0  502  0.52408579602E+02  0.14668311160E+03 -0.25618364155E+03  0.29985017099E+03  0.41800000000E+01 0.  1.
        -11    1    1    2    0    0 -0.35118597610E+02 -0.68812985571E+02 -0.41857179932E+03  0.42564174380E+03  0.00000000000E+00 0. -1.
         11    1    1    2    0    0 -0.43383730638E+02 -0.53838858107E+02 -0.10445285879E+03  0.12526440211E+03  0.00000000000E+00 0.  1.
</event>
<event>
 7    1  0.2732144E-009  0.2886125E+03  0.7561462E-02  0.1091076E+00
          1   -1    0    0  501    0  0.00000000000E+00  0.00000000000E+00  0.11541484916E+04  0.11541484916E+04  0.00000000000E+00 0. -1.
         -1   -1    0    0    0  501 -0.00000000000E+00 -0.00000000000E+00 -0.82892218287E+02  0.82892218287E+02  0.00000000000E+00 0.  1.
         25    2    1    2    0    0  0.24344535025E+02 -0.28614400883E+03  0.47550491567E+03  0.56940645021E+03  0.12509088912E+03 0.  0.
          5    1    3    3  502    0  0.16586591612E+02 -0.11811959750E+03  0.92259338815E+02  0.15085294937E+03  0.41800000000E+01 0. -1.
         -5    1    3    3    0  502  0.77579434130E+01 -0.16802441133E+03  0.38324557685E+03  0.41855350084E+03  0.41800000000E+01 0. -1.
        -11    1    1    2    0    0  0.26451823074E+01  0.18244813307E+03  0.45875597676E+03  0.49371182330E+03  0.00000000000E+00 0.  1.
         11    1    1    2    0    0 -0.26989717332E+02  0.10369587576E+03  0.13699538087E+03  0.17392243636E+03  0.00000000000E+00 0. -1.
</event>
<event>
 7    1  0.2732144E-009  0.1314741E+03  0.7561462E-02  0.1225285E+00
          2   -1    0    0  501    0  0.00000000000E+00  0.00000000000E+00  0.14861418760E+03  0.14861418760E+03  0.00000000000E+00 0.  1.
         -2   -1    0    0    0  501 -0.00000000000E+00 -0.00000000000E+00 -0.15598598009E+03  0.15598598009E+03  0.00000000000E+00 0. -1.
         25    2    1    2    0    0  0.28410424327E+02  0.10220000238E+03  0.65186700371E+01  0.16414069382E+03  0.12509069354E+03 0.  0.
          5    1    3    3  502    0  0.60180559507E+02  0.10621266363E+03 -0.18166939997E+02  0.12349226602E+03  0.41800000000E+01 0.  1.
         -5    1    3    3    0  502 -0.31770135180E+02 -0.40126612428E+01  0.24685610035E+02  0.40648427797E+02  0.41800000000E+01 0.  1.
        -11    1    1    2    0    0  0.40193730945E+01 -0.11173501948E+02  0.31525813674E+02  0.33687971647E+02  0.00000000000E+00 0.  1.
         11    1    1    2    0    0 -0.32429797421E+02 -0.91026500437E+02 -0.45416276200E+02  0.10677150222E+03  0.00000000000E+00 0. -1.
</event>
<event>
 7    1  0.2732144E-009  0.1058099E+03  0.7561462E-02  0.1268532E+00
         -2   -1    0    0    0  501 -0.00000000000E+00  0.00000000000E+00  0.11919738679E+04  0.11919738679E+04  0.00000000000E+00 0. -1.
          2   -1    0    0  501    0  0.00000000000E+00 -0.00000000000E+00 -0.17028778162E+02  0.17028778162E+02  0.00000000000E+00 0.  1.
         25    2    1    2    0    0 -0.22960911592E+02  0.89271652064E+02  0.65439038997E+03  0.67258492312E+03  0.12508822882E+03 0.  0.
          5    1    3    3  502    0  0.19199488999E+01  0.30053274250E+02  0.54362380193E+03  0.54447331975E+03  0.41800000000E+01 0.  1.
         -5    1    3    3    0  502 -0.24880860492E+02  0.59218377813E+02  0.11076658804E+03  0.12811160336E+03  0.41800000000E+01 0.  1.
        -11    1    1    2    0    0  0.41580317799E+02 -0.21989701109E+02  0.10519452940E+03  0.11523176124E+03  0.00000000000E+00 0.  1.
         11    1    1    2    0    0 -0.18619406207E+02 -0.67281950955E+02  0.41536017039E+03  0.42118596173E+03  0.00000000000E+00 0. -1.
</event>
<event>
 7    1  0.2732144E-009  0.1187930E+03  0.7561462E-02  0.1245102E+00
         -2   -1    0    0    0  501 -0.00000000000E+00  0.00000000000E+00  0.75927716835E+02  0.75927716835E+02  0.00000000000E+00 0.  1.
          2   -1    0    0  501    0  0.00000000000E+00 -0.00000000000E+00 -0.28376618562E+03  0.28376618562E+03  0.00000000000E+00 0. -1.
         25    2    1    2    0    0  0.88439749405E+02  0.19166730669E+02 -0.63134982150E+02  0.16676091574E+03  0.12503689139E+03 0.  0.
          5    1    3    3  502    0  0.43184301126E+02  0.40877434465E+02 -0.91312610404E+02  0.10904730043E+03  0.41800000000E+01 0.  1.
         -5    1    3    3    0  502  0.45255448279E+02 -0.21710703796E+02  0.28177628255E+02  0.57713615311E+02  0.41800000000E+01 0.  1.
        -11    1    1    2    0    0 -0.32101432301E+02 -0.52947700586E+02 -0.70309945372E+02  0.93688042841E+02  0.00000000000E+00 0.  1.
         11    1    1    2    0    0 -0.56338317103E+02  0.33780969917E+02 -0.74393541259E+02  0.99244943869E+02  0.00000000000E+00 0. -1.
</event>
<event>
 7    1  0.2732144E-009  0.1190940E+03  0.7561462E-02  0.1244599E+00
         -2   -1    0    0    0  501 -0.00000000000E+00  0.00000000000E+00  0.10218174788E+02  0.10218174788E+02  0.00000000000E+00 0.  1.
          2   -1    0    0  501    0  0.00000000000E+00 -0.00000000000E+00 -0.15331528396E+04  0.15331528396E+04  0.00000000000E+00 0. -1.
         25    2    1    2    0    0 -0.30173755746E+02 -0.40752543069E+02 -0.10710552601E+04  0.10795263021E+04  0.12508573647E+03 0.  0.
          5    1    3    3  502    0 -0.76741809040E+02 -0.67416340181E+01 -0.60753487272E+03  0.61241395220E+03  0.41800000000E+01 0.  1.
         -5    1    3    3    0  502  0.46568053293E+02 -0.34010909051E+02 -0.46352038737E+03  0.46711234990E+03  0.41800000000E+01 0.  1.
        -11    1    1    2    0    0  0.56265307490E+02  0.17464750327E+01 -0.28424980390E+03  0.28977022970E+03  0.00000000000E+00 0. -1.
         11    1    1    2    0    0 -0.26091551744E+02  0.39006068036E+02 -0.16762960087E+03  0.17407448263E+03  0.00000000000E+00 0.  1.
</event>
<event>
 7    1  0.2732144E-009  0.1038141E+03  0.7561462E-02  0.1272474E+00
          2   -1    0    0  501    0  0.00000000000E+00  0.00000000000E+00  0.21347751973E+03  0.21347751973E+03  0.00000000000E+00 0. -1.
         -2   -1    0    0    0  501 -0.00000000000E+00 -0.00000000000E+00 -0.69450767036E+02  0.69450767036E+02  0.00000000000E+00 0.  1.
         25    2    1    2    0    0 -0.27587569024E+00 -0.61847820096E+01  0.14632809319E+03  0.19260881441E+03  0.12509163400E+03 0.  0.
          5    1    3    3  502    0 -0.33690341594E+01  0.58083845497E+02  0.50769206049E+02  0.77330900562E+02  0.41800000000E+01 0. -1.
         -5    1    3    3    0  502  0.30931584692E+01 -0.64268627506E+02  0.95558887138E+02  0.11527791385E+03  0.41800000000E+01 0. -1.
        -11    1    1    2    0    0 -0.38811758430E+02 -0.13449897402E+02  0.14356806314E+02  0.43512874188E+02  0.00000000000E+00 0. -1.
         11    1    1    2    0    0  0.39087634120E+02  0.19634679412E+02 -0.16658146806E+02  0.46806598165E+02  0.00000000000E+00 0.  1.
</event>
<event>
 7    1  0.2732144E-009  0.1052227E+03  0.7561462E-02  0.1269681E+00
         -2   -1    0    0    0  501 -0.00000000000E+00  0.00000000000E+00  0.45426219593E+02  0.45426219593E+02  0.00000000000E+00 0. -1.
          2   -1    0    0  501    0  0.00000000000E+00 -0.00000000000E+00 -0.34789983003E+03  0.34789983003E+03  0.00000000000E+00 0.  1.
         25    2    1    2    0    0  0.12472103177E+01  0.32125913111E+02 -0.27040510883E+03  0.29966466967E+03  0.12508541698E+03 0.  0.
          5    1    3    3  502    0 -0.41753671611E+02 -0.29731155918E+02 -0.13799208915E+03  0.14726370833E+03  0.41800000000E+01 0. -1.
         -5    1    3    3    0  502  0.43000881929E+02  0.61857069029E+02 -0.13241301968E+03  0.15240096134E+03  0.41800000000E+01 0. -1.
        -11    1    1    2    0    0 -0.34881679770E+02 -0.35493247215E+02 -0.33229281729E+02  0.59838844788E+02  0.00000000000E+00 0.  1.
         11    1    1    2    0    0  0.33634469452E+02  0.33673341040E+01  0.11607801219E+01  0.33822535162E+02  0.00000000000E+00 0. -1.
</event>
<event>
 7    1  0.2732144E-009  0.1220611E+03  0.7561462E-02  0.1239735E+00
         -2   -1    0    0    0  501 -0.00000000000E+00  0.00000000000E+00  0.20253277471E+02  0.20253277471E+02  0.00000000000E+00 0.  1.
          2   -1    0    0  501    0  0.00000000000E+00 -0.00000000000E+00 -0.11819143045E+04  0.11819143045E+04  0.00000000000E+00 0. -1.
         25    2    1    2    0    0  0.91540449846E+02 -0.21816809437E+02 -0.88758216420E+03  0.90127973072E+03  0.12508967846E+03 0.  0.
          5    1    3    3  502    0  0.14202740896E+02  0.27343994333E+02 -0.51349935575E+02  0.60030826736E+02  0.41800000000E+01 0.  1.
         -5    1    3    3    0  502  0.77337708951E+02 -0.49160803771E+02 -0.83623222863E+03  0.84124890398E+03  0.41800000000E+01 0.  1.
        -11    1    1    2    0    0 -0.38638674556E+02  0.48526152123E+02 -0.17213337898E+03  0.18296894483E+03  0.00000000000E+00 0.  1.
         11    1    1    2    0    0 -0.52901775290E+02 -0.26709342685E+02 -0.10194548380E+03  0.11791890638E+03  0.00000000000E+00 0. -1.
</event>
<event>
 7    1  0.2732144E-009  0.1204454E+03  0.7561462E-02  0.1242364E+00
         -1   -1    0    0    0  501 -0.00000000000E+00  0.00000000000E+00  0.13341763008E+03  0.13341763008E+03  0.00000000000E+00 0.  1.
          1   -1    0    0  501    0  0.00000000000E+00 -0.00000000000E+00 -0.19470001324E+03  0.19470001324E+03  0.00000000000E+00 0. -1.
         25    2    1    2    0    0 -0.68184438468E+02 -0.84126158078E+02  0.16171910300E+02  0.16623707867E+03  0.12508759939E+03 0.  0.
          5    1    3    3  502    0 -0.25748121344E+02 -0.38372782775E+02  0.69823503551E+02  0.83834540965E+02  0.41800000000E+01 0. -1.
         -5    1    3    3    0  502 -0.42436317124E+02 -0.45753375303E+02 -0.53651593251E+02  0.82402537710E+02  0.41800000000E+01 0. -1.
        -11    1    1    2    0    0 -0.25904978846E+01 -0.12168771699E+02 -0.31456364857E+02  0.33827393840E+02  0.00000000000E+00 0. -1.
         11    1    1    2    0    0  0.70774936353E+02  0.96294929777E+02 -0.45997928603E+02  0.12805317080E+03  0.00000000000E+00 0.  1.
</event>
<event>
 7    1  0.2732144E-009  0.1587571E+03  0.7561462E-02  0.1190107E+00
         -1   -1    0    0    0  501 -0.00000000000E+00  0.00000000000E+00  0.28158065315E+02  0.28158065315E+02  0.00000000000E+00 0.  1.
          1   -1    0    0  501    0  0.00000000000E+00 -0.00000000000E+00 -0.10842836863E+04  0.10842836863E+04  0.00000000000E+00 0. -1.
         25    2    1    2    0    0  0.10985919954E+03 -0.72417163216E+02 -0.67924699486E+03  0.70309115890E+03  0.12508960167E+03 0.  0.
          5    1    3    3  502    0  0.68162605209E+02 -0.10543608868E+03 -0.41872149971E+03  0.43715909720E+03  0.41800000000E+01 0. -1.
         -5    1    3    3    0  502  0.41696594331E+02  0.33018925461E+02 -0.26052549515E+03  0.26593206170E+03  0.41800000000E+01 0. -1.
        -11    1    1    2    0    0 -0.70486928499E+02  0.20543001053E+02 -0.29874964522E+03  0.30763902954E+03  0.00000000000E+00 0. -1.
         11    1    1    2    0    0 -0.39372271042E+02  0.51874162163E+02 -0.78128980948E+02  0.10171156321E+03  0.00000000000E+00 0.  1.
</event>
<event>
 7    1  0.2732144E-009  0.2791624E+03  0.7561462E-02  0.1096147E+00
         -1   -1    0    0    0  501 -0.00000000000E+00  0.00000000000E+00  0.48154579826E+03  0.48154579826E+03  0.00000000000E+00 0.  1.
          1   -1    0    0  501    0  0.00000000000E+00 -0.00000000000E+00 -0.17252835371E+03  0.17252835371E+03  0.00000000000E+00 0. -1.
         25    2    1    2    0    0 -0.12788934211E+03  0.22844854169E+03  0.21880671708E+03  0.36341173168E+03  0.12508911728E+03 0.  0.
          5    1    3    3  502    0 -0.91621339888E+02  0.22880841885E+03  0.21428282710E+03  0.32662266433E+03  0.41800000000E+01 0. -1.
         -5    1    3    3    0  502 -0.36268002219E+02 -0.35987716387E+00  0.45238899809E+01  0.36789067358E+02  0.41800000000E+01 0. -1.
        -11    1    1    2    0    0  0.13749055617E+03 -0.18320804324E+03  0.65576559351E+02  0.23826272323E+03  0.00000000000E+00 0.  1.
         11    1    1    2    0    0 -0.96012140674E+01 -0.45240498447E+02  0.24634168119E+02  0.52399697043E+02  0.00000000000E+00 0. -1.
</event>
<event>
 7    1  0.2732144E-009  0.1336163E+03  0.7561462E-02  0.1222186E+00
          2   -1    0    0  501    0  0.00000000000E+00  0.00000000000E+00  0.74219665689E+03  0.74219665689E+03  0.00000000000E+00 0. -1.
         -2   -1    0    0    0  501 -0.00000000000E+00 -0.00000000000E+00 -0.36070131940E+02  0.36070131940E+02  0.00000000000E+00 0.  1.
         25    2    1    2    0    0 -0.33065259549E+02  0.11613761310E+03  0.40738114714E+03  0.44293053997E+03  0.12508720010E+03 0.  0.
          5    1    3    3  502    0 -0.37990996270E+02  0.90212543740E+02  0.40433927153E+03  0.41604006748E+03  0.41800000000E+01 0. -1.
         -5    1    3    3    0  502  0.49257367211E+01  0.25925069357E+02  0.30418756049E+01  0.26890472487E+02  0.41800000000E+01 0. -1.
        -11    1    1    2    0    0  0.54204954788E+02 -0.52415659275E+02  0.97931094266E+02  0.12359643071E+03  0.00000000000E+00 0.  1.
         11    1    1    2    0    0 -0.21139695240E+02 -0.63721953822E+02  0.20081428355E+03  0.21173981815E+03  0.00000000000E+00 0. -1.
</event>
<event>
 7    1  0.2732144E-009  0.7552914E+02  0.7561462E-02  0.1342240E+00
          2   -1    0    0  501    0  0.00000000000E+00  0.00000000000E+00  0.75504606625E+03  0.75504606625E+03  0.00000000000E+00 0.  1.
         -2   -1    0    0    0  501 -0.00000000000E+00 -0.00000000000E+00 -0.17642727134E+02  0.17642727134E+02  0.00000000000E+00 0. -1.
         25    2    1    2    0    0 -0.62006814187E+01  0.39100313088E+02  0.48295614159E+03  0.50045890158E+03  0.12508075206E+03 0.  0.
          5    1    3    3  502    0 -0.88099139174E+01 -0.42737038479E+01 -0.41306728441E+01  0.11419894306E+02  0.41800000000E+01 0. -1.
         -5    1    3    3    0  502  0.26092324987E+01  0.43374016935E+02  0.48708681443E+03  0.48903900727E+03  0.41800000000E+01 0. -1.
        -11    1    1    2    0    0 -0.60489925098E+01  0.27950722634E+02  0.77629075769E+02  0.82729115859E+02  0.00000000000E+00 0.  1.
         11    1    1    2    0    0  0.12249673928E+02 -0.67051035721E+02  0.17681812176E+03  0.18950077595E+03  0.00000000000E+00 0. -1.
</event>
<event>
 7    1  0.2732144E-009  0.2655840E+03  0.7561462E-02  0.1103834E+00
          1   -1    0    0  501    0  0.00000000000E+00  0.00000000000E+00  0.73196643641E+03  0.73196643641E+03  0.00000000000E+00 0. -1.
         -1   -1    0    0    0  501 -0.00000000000E+00 -0.00000000000E+00 -0.13660349282E+03  0.13660349282E+03  0.00000000000E+00 0.  1.
         25    2    1    2    0    0  0.19323661451E+03  0.15702028664E+03  0.81265321464E+02  0.29025572425E+03  0.12509425798E+03 0.  0.
          5    1    3    3  502    0 -0.23203186965E+01 -0.12377253566E+02  0.20564798696E+02  0.24473733473E+02  0.41800000000E+01 0. -1.
         -5    1    3    3    0  502  0.19555693321E+03  0.16939754021E+03  0.60700522768E+02  0.26578199077E+03  0.41800000000E+01 0. -1.
        -11    1    1    2    0    0 -0.62380381590E+02 -0.96645771360E+02  0.28883299703E+03  0.31089583030E+03  0.00000000000E+00 0. -1.
         11    1    1    2    0    0 -0.13085623292E+03 -0.60374515284E+02  0.22526462510E+03  0.26741837468E+03  0.00000000000E+00 0.  1.
</event>
<event>
 7    1  0.2732144E-009  0.1215360E+03  0.7561462E-02  0.1240584E+00
         -2   -1    0    0    0  501 -0.00000000000E+00  0.00000000000E+00  0.11918488954E+03  0.11918488954E+03  0.00000000000E+00 0.  1.
          2   -1    0    0  501    0  0.00000000000E+00 -0.00000000000E+00 -0.14831828286E+03  0.14831828286E+03  0.00000000000E+00 0. -1.
         25    2    1    2    0    0  0.60424475922E+02  0.39564761058E+02  0.12674982764E+02  0.14499077998E+03  0.12508070787E+03 0.  0.
          5    1    3    3  502    0 -0.33047993428E+02  0.38001188356E+02 -0.16723921661E+00  0.50534746017E+02  0.41800000000E+01 0. -1.
         -5    1    3    3    0  502  0.93472469350E+02  0.15635727028E+01  0.12842221981E+02  0.94456033960E+02  0.41800000000E+01 0. -1.
        -11    1    1    2    0    0 -0.69096357973E+02 -0.50074357248E+02 -0.75769459861E+01  0.85668886122E+02  0.00000000000E+00 0.  1.
         11    1    1    2    0    0  0.86718820509E+01  0.10509596190E+02 -0.34231430098E+02  0.36843506306E+02  0.00000000000E+00 0. -1.
</event>
<event>
 7    1  0.2732144E-009  0.1494009E+03  0.7561462E-02  0.1201211E+00
         -1   -1    0    0    0  501 -0.00000000000E+00  0.00000000000E+00  0.62097245428E+02  0.62097245428E+02  0.00000000000E+00 0.  1.
          1   -1    0    0  501    0  0.00000000000E+00 -0.00000000000E+00 -0.48395358106E+03  0.48395358106E+03  0.00000000000E+00 0. -1.
         25    2    1    2    0    0  0.10572245681E+03  0.56315755592E+02 -0.12682352785E+03  0.21466294635E+03  0.12508905275E+03 0.  0.
          5    1    3    3  502    0  0.11449606821E+03  0.21614214275E+02 -0.44498888312E+02  0.12479642365E+03  0.41800000000E+01 0. -1.
         -5    1    3    3    0  502 -0.87736114042E+01  0.34701541317E+02 -0.82324639540E+02  0.89866522700E+02  0.41800000000E+01 0. -1.
        -11    1    1    2    0    0 -0.11910954357E+03 -0.41327832813E+02 -0.21853728694E+03  0.25229668828E+03  0.00000000000E+00 0.  1.
         11    1    1    2    0    0  0.13387086762E+02 -0.14987922779E+02 -0.76495520845E+02  0.79091191865E+02  0.00000000000E+00 0. -1.
</event>
<event>
 7    1  0.2732144E-009  0.2740089E+03  0.7561462E-02  0.1099007E+00
         -2   -1    0    0    0  501 -0.00000000000E+00  0.00000000000E+00  0.44097688912E+02  0.44097688912E+02  0.00000000000E+00 0.  1.
          2   -1    0    0  501    0  0.00000000000E+00 -0.00000000000E+00 -0.21614506362E+04  0.21614506362E+04  0.00000000000E+00 0. -1.
         25    2    1    2    0    0  0.22098175121E+03 -0.16015444698E+03 -0.14141069806E+04  0.14456237791E+04  0.12508867633E+03 0.  0.
          5    1    3    3  502    0  0.13795124298E+03 -0.10429288725E+03 -0.57213401875E+03  0.59771427922E+03  0.41800000000E+01 0. -1.
         -5    1    3    3    0  502  0.83030508228E+02 -0.55861559736E+02 -0.84197296183E+03  0.84790949989E+03  0.41800000000E+01 0. -1.
        -11    1    1    2    0    0 -0.10060025815E+03  0.53011620224E+02 -0.40810998933E+03  0.42365600103E+03  0.00000000000E+00 0.  1.
         11    1    1    2    0    0 -0.12038149306E+03  0.10714282676E+03 -0.29513597742E+03  0.33626854502E+03  0.00000000000E+00 0. -1.
</event>
<event>
 7    1  0.2732144E-009  0.2702922E+03  0.7561462E-02  0.1101112E+00
          1   -1    0    0  501    0  0.00000000000E+00  0.00000000000E+00  0.61981422883E+03  0.61981422883E+03  0.00000000000E+00 0. -1.
         -1   -1    0    0    0  501 -0.00000000000E+00 -0.00000000000E+00 -0.13990416918E+03  0.13990416918E+03  0.00000000000E+00 0.  1.
         25    2    1    2    0    0 -0.25020591552E+03  0.94689083320E+02  0.17365525087E+03  0.34259671952E+03  0.12508934172E+03 0.  0.
          5    1    3    3  502    0 -0.17044452039E+03  0.54752186035E+02  0.17892577623E+03  0.25314233587E+03  0.41800000000E+01 0.  1.
         -5    1    3    3    0  502 -0.79761395130E+02  0.39936897285E+02 -0.52705253672E+01  0.89454383657E+02  0.41800000000E+01 0.  1.
        -11    1    1    2    0    0  0.88993020431E+01  0.60102773640E+01 -0.39273144613E+01  0.11434369669E+02  0.00000000000E+00 0.  1.
         11    1    1    2    0    0  0.24130661348E+03 -0.10069936068E+03  0.31018212325E+03  0.40568730881E+03  0.00000000000E+00 0. -1.
</event>
<event>
 7    1  0.4091987E-009  0.1201318E+03  0.7561462E-02  0.1242880E+00
         -2   -1    0    0    0  501 -0.00000000000E+00  0.00000000000E+00  0.90889495168E+02  0.90889495168E+02  0.00000000000E+00 0.  1.
          2   -1    0    0  501    0  0.00000000000E+00 -0.00000000000E+00 -0.21449807106E+03  0.21449807106E+03  0.00000000000E+00 0. -1.
         25    2    1    2    0    0  0.67231028601E+01  0.86374124082E+02 -0.83305911029E+02  0.17347360433E+03  0.12509007621E+03 0.  0.
          5    1    3    3  502    0 -0.15238320717E+02 -0.25142403618E+02  0.41733298666E+01  0.29987263299E+02  0.41800000000E+01 0.  1.
         -5    1    3    3    0  502  0.21961423577E+02  0.11151652770E+03 -0.87479240895E+02  0.14348634103E+03  0.41800000000E+01 0.  1.
        -11    1    1    2    0    0 -0.25165424950E+02 -0.45634338781E+02  0.20871248458E+02  0.56137336071E+02  0.00000000000E+00 0.  1.
         11    1    1    2    0    0  0.18442322090E+02 -0.40739785300E+02 -0.61173913324E+02  0.75776625827E+02  0.00000000000E+00 0. -1.
</event>
<event>
 7    1  0.2732144E-009  0.1230185E+03  0.7561462E-02  0.1238199E+00
         -2   -1    0    0    0  501 -0.00000000000E+00  0.00000000000E+00  0.29560626509E+02  0.29560626509E+02  0.00000000000E+00 0.  1.
          2   -1    0    0  501    0  0.00000000000E+00 -0.00000000000E+00 -0.56257789717E+03  0.56257789717E+03  0.00000000000E+00 0. -1.
         25    2    1    2    0    0 -0.25125733728E+02 -0.60067842815E+02 -0.22236591880E+03  0.26331093355E+03  0.12508636075E+03 0.  0.
          5    1    3    3  502    0  0.43199059375E+02  0.76164166263E+01 -0.82303009897E+02  0.93356447936E+02  0.41800000000E+01 0.  1.
         -5    1    3    3    0  502 -0.68324793103E+02 -0.67684259441E+02 -0.14006290891E+03  0.16995448561E+03  0.41800000000E+01 0.  1.
        -11    1    1    2    0    0 -0.30790324053E+02  0.25419263872E+02 -0.15017992129E+03  0.15539688475E+03  0.00000000000E+00 0. -1.
         11    1    1    2    0    0  0.55916057781E+02  0.34648578943E+02 -0.16047143057E+03  0.17343070538E+03  0.00000000000E+00 0.  1.
</event>
<event>
 7    1  0.2732144E-009  0.1436031E+03  0.7561462E-02  0.1208561E+00
          2   -1    0    0  501    0  0.00000000000E+00  0.00000000000E+00  0.75705377062E+03  0.75705377062E+03  0.00000000000E+00 0. -1.
         -2   -1    0    0    0  501 -0.00000000000E+00 -0.00000000000E+00 -0.29205387380E+02  0.29205387380E+02  0.00000000000E+00 0.  1.
         25    2    1    2    0    0  0.79367100376E+02 -0.71722515125E+02  0.34331133139E+03  0.38072662957E+03  0.12508733110E+03 0.  0.
          5    1    3    3  502    0  0.10910352310E+03 -0.75504555063E+02  0.25694253414E+03  0.28920832429E+03  0.41800000000E+01 0.  1.
         -5    1    3    3    0  502 -0.29736422721E+02  0.37820399379E+01  0.86368797254E+02  0.91518305280E+02  0.41800000000E+01 0.  1.
        -11    1    1    2    0    0 -0.89069347312E+02  0.54486713447E+02  0.35458994956E+03  0.36964331849E+03  0.00000000000E+00 0. -1.
         11    1    1    2    0    0  0.97022469359E+01  0.17235801678E+02  0.29947102286E+02  0.35889209944E+02  0.00000000000E+00 0.  1.
</event>
<event>
 7    1  0.2732144E-009  0.1823218E+03  0.7561462E-02  0.1165575E+00
          1   -1    0    0  501    0  0.00000000000E+00  0.00000000000E+00  0.70019544518E+02  0.70019544518E+02  0.00000000000E+00 0. -1.
         -1   -1    0    0    0  501 -0.00000000000E+00 -0.00000000000E+00 -0.57743750995E+03  0.57743750995E+03  0.00000000000E+00 0.  1.
         25    2    1    2    0    0  0.52913296035E+02  0.14359986300E+03 -0.37807454970E+03  0.42662498514E+03  0.12509106789E+03 0.  0.
          5    1    3    3  502    0  0.91211706086E+02  0.11616624377E+03 -0.25411096460E+03  0.29394561784E+03  0.41800000000E+01 0.  1.
         -5    1    3    3    0  502 -0.38298410051E+02  0.27433619231E+02 -0.12396358510E+03  0.13267936730E+03  0.41800000000E+01 0.  1.
        -11    1    1    2    0    0  0.12444531784E+02 -0.70273057600E+02 -0.90380857182E+02  0.11516018557E+03  0.00000000000E+00 0.  1.
         11    1    1    2    0    0 -0.65357827819E+02 -0.73326805403E+02 -0.38962558557E+02  0.10567188376E+03  0.00000000000E+00 0. -1.
</event>
<event>
 7    1  0.2732144E-009  0.1049374E+03  0.7561462E-02  0.1270243E+00
          2   -1    0    0  501    0  0.00000000000E+00  0.00000000000E+00  0.37554105275E+03  0.37554105275E+03  0.00000000000E+00 0.  1.
         -2   -1    0    0    0  501 -0.00000000000E+00 -0.00000000000E+00 -0.45668063219E+02  0.45668063219E+02  0.00000000000E+00 0. -1.
         25    2    1    2    0    0 -0.36885200343E+02  0.40878092171E+01  0.28417281475E+03  0.31269573349E+03  0.12508878812E+03 0.  0.
          5    1    3    3  502    0  0.46588437588E+02  0.21270229764E+00  0.98517782363E+02  0.10905848706E+03  0.41800000000E+01 0.  1.
         -5    1    3    3    0  502 -0.83473637931E+02  0.38751069195E+01  0.18565503238E+03  0.20363724643E+03  0.41800000000E+01 0.  1.
        -11    1    1    2    0    0 -0.16318987750E+02  0.15720065989E+02 -0.13593179662E+02  0.26423557088E+02  0.00000000000E+00 0. -1.
         11    1    1    2    0    0  0.53204188093E+02 -0.19807875206E+02  0.59293354446E+02  0.82089825388E+02  0.00000000000E+00 0.  1.
</event>
<event>
 7    1  0.2732144E-009  0.1073332E+03  0.7561462E-02  0.1265590E+00
          3   -1    0    0  501    0  0.00000000000E+00  0.00000000000E+00  0.37257563117E+03  0.37257563117E+03  0.00000000000E+00 0. -1.
         -3   -1    0    0    0  501 -0.00000000000E+00 -0.00000000000E+00 -0.36134476814E+02  0.36134476814E+02  0.00000000000E+00 0.  1.
         25    2    1    2    0    0  0.34331929792E+01 -0.18610718057E+02  0.11888540831E+03  0.17361972898E+03  0.12510765101E+03 0.  0.
          5    1    3    3  502    0  0.38374179051E+02  0.41450646397E+02  0.59091418491E+02  0.81853538982E+02  0.41800000000E+01 0. -1.
         -5    1    3    3    0  502 -0.34940986072E+02 -0.60061364454E+02  0.59793989822E+02  0.91766189997E+02  0.41800000000E+01 0. -1.
        -11    1    1    2    0    0 -0.30576436311E+02  0.42431562353E+02  0.11418447138E+03  0.12559239406E+03  0.00000000000E+00 0.  1.
         11    1    1    2    0    0  0.27143243332E+02 -0.23820844296E+02  0.10337127467E+03  0.10949798495E+03  0.00000000000E+00 0. -1.
</event>
<event>
 7    1  0.2732144E-009  0.8674225E+02  0.7561462E-02  0.1310938E+00
          1   -1    0    0  501    0  0.00000000000E+00  0.00000000000E+00  0.43216428118E+03  0.43216428118E+03  0.00000000000E+00 0. -1.
         -1   -1    0    0    0  501 -0.00000000000E+00 -0.00000000000E+00 -0.49111243157E+02  0.49111243157E+02  0.00000000000E+00 0.  1.
         25    2    1    2    0    0  0.16913366171E+02 -0.27580636730E+01  0.36484001363E+03  0.38606997985E+03  0.12509246549E+03 0.  0.
          5    1    3    3  502    0  0.49117741160E+02 -0.10699475526E+02  0.34171942084E+03  0.34542244607E+03  0.41800000000E+01 0.  1.
         -5    1    3    3    0  502 -0.32204374989E+02  0.79414118530E+01  0.23120592793E+02  0.40647533772E+02  0.41800000000E+01 0.  1.
        -11    1    1    2    0    0 -0.13417469418E+02 -0.42320267875E+02 -0.44703787717E+01  0.44620822997E+02  0.00000000000E+00 0.  1.
         11    1    1    2    0    0 -0.34958967530E+01  0.45078331548E+02  0.22683403159E+02  0.50584721489E+02  0.00000000000E+00 0. -1.
</event>
<event>
 7    1  0.2732144E-009  0.1234774E+03  0.7561462E-02  0.1237468E+00
         -4   -1    0    0    0  501 -0.00000000000E+00  0.00000000000E+00  0.11612133296E+03  0.11612133296E+03  0.00000000000E+00 0.  1.
          4   -1    0    0  501    0  0.00000000000E+00 -0.00000000000E+00 -0.21730923356E+03  0.21730923356E+03  0.00000000000E+00 0. -1.
         25    2    1    2    0    0 -0.34603347051E+02  0.10023501733E+03 -0.99739473698E+02  0.19193865916E+03  0.12509210981E+03 0.  0.
          5    1    3    3  502    0 -0.29328585233E+02  0.18113255706E+02  0.24756527937E+02  0.42645210980E+02  0.41800000000E+01 0. -1.
         -5    1    3    3    0  502 -0.52747618182E+01  0.82121761628E+02 -0.12449600163E+03  0.14929344818E+03  0.41800000000E+01 0. -1.
        -11    1    1    2    0    0 -0.14063936599E+02 -0.72432529642E+02 -0.28698360090E+02  0.79169827175E+02  0.00000000000E+00 0. -1.
         11    1    1    2    0    0  0.48667283650E+02 -0.27802487691E+02  0.27249933190E+02  0.62322080184E+02  0.00000000000E+00 0.  1.
</event>
<event>
 7    1  0.2732144E-009  0.1036697E+03  0.7561462E-02  0.1272763E+00
          4   -1    0    0  501    0  0.00000000000E+00  0.00000000000E+00  0.14742248876E+03  0.14742248876E+03  0.00000000000E+00 0.  1.
         -4   -1    0    0    0  501 -0.00000000000E+00 -0.00000000000E+00 -0.15260199954E+03  0.15260199954E+03  0.00000000000E+00 0. -1.
         25    2    1    2    0    0  0.98871827517E+02 -0.27757188999E+02 -0.20320610909E+01  0.16185799596E+03  0.12509109388E+03 0.  0.
          5    1    3    3  502    0  0.90230668192E+02 -0.21343509780E+02 -0.54838263294E+02  0.10780457510E+03  0.41800000000E+01 0. -1.
         -5    1    3    3    0  502  0.86411593243E+01 -0.64136792189E+01  0.52806202203E+02  0.54053420860E+02  0.41800000000E+01 0. -1.
        -11    1    1    2    0    0 -0.56003587223E+02  0.19656849358E+02 -0.47450296750E+02  0.75988974004E+02  0.00000000000E+00 0. -1.
         11    1    1    2    0    0 -0.42868240294E+02  0.81003396412E+01  0.44302847067E+02  0.62177518336E+02  0.00000000000E+00 0.  1.
</event>
<event>
 7    1  0.2732144E-009  0.8611958E+02  0.7561462E-02  0.1312530E+00
         -4   -1    0    0    0  501 -0.00000000000E+00  0.00000000000E+00  0.44055886498E+02  0.44055886498E+02  0.00000000000E+00 0. -1.
          4   -1    0    0  501    0  0.00000000000E+00 -0.00000000000E+00 -0.33639557007E+03  0.33639557007E+03  0.00000000000E+00 0.  1.
         25    2    1    2    0    0 -0.37029462302E+02  0.28518873284E+02 -0.20756157344E+03  0.24680840903E+03  0.12509227309E+03 0.  0.
          5    1    3    3  502    0 -0.70633528846E+02  0.13335636586E+02 -0.19460879475E+03  0.20750178311E+03  0.41800000000E+01 0. -1.
         -5    1    3    3    0  502  0.33604066545E+02  0.15183236699E+02 -0.12952778683E+02  0.39306625912E+02  0.41800000000E+01 0. -1.
        -11    1    1    2    0    0  0.29076543599E+02 -0.39820149848E+02 -0.16075777862E+01  0.49332281804E+02  0.00000000000E+00 0. -1.
         11    1    1    2    0    0  0.79529187023E+01  0.11301276564E+02 -0.83170532353E+02  0.84310765740E+02  0.00000000000E+00 0.  1.
</event>
<event>
 7    1  0.2732144E-009  0.1679503E+03  0.7561462E-02  0.1180002E+00
         -2   -1    0    0    0  501 -0.00000000000E+00  0.00000000000E+00  0.20426940908E+03  0.20426940908E+03  0.00000000000E+00 0.  1.
          2   -1    0    0  501    0  0.00000000000E+00 -0.00000000000E+00 -0.22764518801E+03  0.22764518801E+03  0.00000000000E+00 0. -1.
         25    2    1    2    0    0  0.12255621868E+03 -0.87611194235E+02 -0.11986177480E+03  0.22958633064E+03  0.12508912850E+03 0.  0.
          5    1    3    3  502    0  0.60376851307E+02 -0.14951744696E+02 -0.11844769220E+03  0.13385158583E+03  0.41800000000E+01 0.  1.
         -5    1    3    3    0  502  0.62179367375E+02 -0.72659449539E+02 -0.14140825998E+01  0.95734744811E+02  0.41800000000E+01 0.  1.
        -11    1    1    2    0    0  0.15365637218E+02  0.19799553879E+01  0.88340614914E+01  0.17834339709E+02  0.00000000000E+00 0.  1.
         11    1    1    2    0    0 -0.13792185590E+03  0.85631238847E+02  0.87651934378E+02  0.18449392673E+03  0.00000000000E+00 0. -1.
</event>
<event>
 7    1  0.2732144E-009  0.3232088E+03  0.7561462E-02  0.1074182E+00
         -1   -1    0    0    0  501 -0.00000000000E+00  0.00000000000E+00  0.65413458274E+03  0.65413458274E+03  0.00000000000E+00 0.  1.
          1   -1    0    0  501    0  0.00000000000E+00 -0.00000000000E+00 -0.18213048595E+03  0.18213048595E+03  0.00000000000E+00 0. -1.
         25    2    1    2    0    0  0.30567550054E+03  0.94800435793E+02  0.15516932606E+03  0.37702875130E+03  0.12509406579E+03 0.  0.
          5    1    3    3  502    0  0.88898573145E+02  0.57638490532E+01  0.10421781528E+03  0.13716779391E+03  0.41800000000E+01 0. -1.
         -5    1    3    3    0  502  0.21677692739E+03  0.89036586740E+02  0.50951510780E+02  0.23986095739E+03  0.41800000000E+01 0. -1.
        -11    1    1    2    0    0 -0.38047904074E+02 -0.27329443119E+02  0.92030770286E+02  0.10326763358E+03  0.00000000000E+00 0.  1.
         11    1    1    2    0    0 -0.26762759646E+03 -0.67470992674E+02  0.22480400044E+03  0.35596868381E+03  0.00000000000E+00 0. -1.
</event>
<event>
 7    1  0.2732144E-009  0.9738284E+02  0.7561462E-02  0.1285898E+00
         -3   -1    0    0    0  501 -0.00000000000E+00  0.00000000000E+00  0.44425977332E+03  0.44425977332E+03  0.00000000000E+00 0.  1.
          3   -1    0    0  501    0  0.00000000000E+00 -0.00000000000E+00 -0.37922420533E+02  0.37922420533E+02  0.00000000000E+00 0. -1.
         25    2    1    2    0    0 -0.16469792359E+02  0.67662131769E+02  0.25781097653E+03  0.29489683375E+03  0.12509286471E+03 0.  0.
          5    1    3    3  502    0  0.18942976014E+01 -0.67710875892E+01 -0.11916885367E+02  0.14454084107E+02  0.41800000000E+01 0.  1.
         -5    1    3    3    0  502 -0.18364089961E+02  0.74433219358E+02  0.26972786190E+03  0.28044274964E+03  0.41800000000E+01 0.  1.
        -11    1    1    2    0    0 -0.24121527708E+02 -0.64766342299E+02  0.11667413803E+03  0.13560745436E+03  0.00000000000E+00 0. -1.
         11    1    1    2    0    0  0.40591320068E+02 -0.28957894695E+01  0.31852238225E+02  0.51677905738E+02  0.00000000000E+00 0.  1.
</event>
<event>
 7    1  0.2732144E-009  0.1119404E+03  0.7561462E-02  0.1257018E+00
         -1   -1    0    0    0  501 -0.00000000000E+00  0.00000000000E+00  0.38103988051E+03  0.38103988051E+03  0.00000000000E+00 0.  1.
          1   -1    0    0  501    0  0.00000000000E+00 -0.00000000000E+00 -0.47102095162E+02  0.47102095162E+02  0.00000000000E+00 0. -1.
         25    2    1    2    0    0  0.45581275226E+02 -0.63974150043E+02  0.18964949034E+03  0.24038419385E+03  0.12508911601E+03 0.  0.
          5    1    3    3  502    0  0.40459928025E+02 -0.97678915939E+02  0.10515350241E+03  0.14917408576E+03  0.41800000000E+01 0.  1.
         -5    1    3    3    0  502  0.51213472019E+01  0.33704765896E+02  0.84495987933E+02  0.91210108091E+02  0.41800000000E+01 0.  1.
        -11    1    1    2    0    0 -0.34034351085E+02  0.22809294476E+02  0.13871901622E+03  0.14464289278E+03  0.00000000000E+00 0.  1.
         11    1    1    2    0    0 -0.11546924142E+02  0.41164855567E+02  0.55692787852E+01  0.43114889043E+02  0.00000000000E+00 0. -1.
</event>
<event>
 7    1  0.2732144E-009  0.2201513E+03  0.7561462E-02  0.1133770E+00
         -2   -1    0    0    0  501 -0.00000000000E+00  0.00000000000E+00  0.57654178188E+02  0.57654178188E+02  0.00000000000E+00 0.  1.
          2   -1    0    0  501    0  0.00000000000E+00 -0.00000000000E+00 -0.91438066872E+03  0.91438066872E+03  0.00000000000E+00 0. -1.
         25    2    1    2    0    0  0.29874701774E+02  0.19474547672E+03 -0.54271946784E+03  0.59077173317E+03  0.12509405034E+03 0.  0.
          5    1    3    3  502    0 -0.39689267629E+02  0.26900248826E+02 -0.16022379646E+03  0.16729614073E+03  0.41800000000E+01 0.  1.
         -5    1    3    3    0  502  0.69563969403E+02  0.16784522789E+03 -0.38249567138E+03  0.42347559244E+03  0.41800000000E+01 0.  1.
        -11    1    1    2    0    0 -0.51500283082E+01 -0.18298473078E+03 -0.23654273459E+03  0.29910265759E+03  0.00000000000E+00 0.  1.
         11    1    1    2    0    0 -0.24724673466E+02 -0.11760745936E+02 -0.77464288100E+02  0.82160456144E+02  0.00000000000E+00 0. -1.
</event>
<event>
 7    1  0.3810385E-009  0.1340669E+03  0.7561462E-02  0.1221543E+00
          2   -1    0    0  501    0  0.00000000000E+00  0.00000000000E+00  0.18075962337E+03  0.18075962337E+03  0.00000000000E+00 0. -1.
         -2   -1    0    0    0  501 -0.00000000000E+00 -0.00000000000E+00 -0.15633577253E+03  0.15633577253E+03  0.00000000000E+00 0.  1.
         25    2    1    2    0    0 -0.10425826873E+02  0.12677469184E+03  0.29137912378E+02  0.18076962667E+03  0.12509244434E+03 0.  0.
          5    1    3    3  502    0  0.56648079580E+01  0.10871530844E+03  0.72556241183E+02  0.13089304364E+03  0.41800000000E+01 0.  1.
         -5    1    3    3    0  502 -0.16090634831E+02  0.18059383395E+02 -0.43418328805E+02  0.49876583024E+02  0.41800000000E+01 0.  1.
        -11    1    1    2    0    0 -0.11215556113E+02 -0.98000577837E+02 -0.39506634662E+02  0.10625759332E+03  0.00000000000E+00 0.  1.
         11    1    1    2    0    0  0.21641382986E+02 -0.28774114003E+02  0.34792573129E+02  0.50068175912E+02  0.00000000000E+00 0. -1.
</event>
<event>
 7    1  0.2732144E-009  0.1200153E+03  0.7561462E-02  0.1243072E+00
          3   -1    0    0  501    0  0.00000000000E+00  0.00000000000E+00  0.51292904306E+03  0.51292904306E+03  0.00000000000E+00 0. -1.
         -3   -1    0    0    0  501 -0.00000000000E+00 -0.00000000000E+00 -0.38178833892E+02  0.38178833892E+02  0.00000000000E+00 0.  1.
         25    2    1    2    0    0  0.30456797371E+02  0.61071957528E+02  0.14758471676E+03  0.20514932672E+03  0.12509035586E+03 0.  0.
          5    1    3    3  502    0 -0.21963772810E+02  0.81343168846E+02  0.10394582095E+03  0.13387055138E+03  0.41800000000E+01 0.  1.
         -5    1    3    3    0  502  0.52420570181E+02 -0.20271211318E+02  0.43638895809E+02  0.71278775339E+02  0.41800000000E+01 0.  1.
        -11    1    1    2    0    0 -0.48520022296E+02 -0.16549499494E+02  0.86552760690E+02  0.10059552117E+03  0.00000000000E+00 0.  1.
         11    1    1    2    0    0  0.18063224925E+02 -0.44522458033E+02  0.24061273172E+03  0.24536302906E+03  0.00000000000E+00 0. -1.
</event>
<event>
 7    1  0.2732144E-009  0.1021081E+03  0.7561462E-02  0.1275924E+00
         -2   -1    0    0    0  501 -0.00000000000E+00  0.00000000000E+00  0.16892265939E+02  0.16892265939E+02  0.00000000000E+00 0.  1.
          2   -1    0    0  501    0  0.00000000000E+00 -0.00000000000E+00 -0.12021618845E+04  0.12021618845E+04  0.00000000000E+00 0. -1.
         25    2    1    2    0    0  0.30915355398E+02  0.78767620953E+02 -0.80423628174E+03  0.81829300691E+03  0.12508937196E+03 0.  0.
          5    1    3    3  502    0  0.29749323968E+02  0.83855546685E+02 -0.80636908099E+03  0.81127390083E+03  0.41800000000E+01 0. -1.
         -5    1    3    3    0  502  0.11660314301E+01 -0.50879257318E+01  0.21327992495E+01  0.70191060817E+01  0.41800000000E+01 0. -1.
        -11    1    1    2    0    0 -0.51903735342E+02 -0.44995577251E+02 -0.32421075308E+03  0.33140792405E+03  0.00000000000E+00 0. -1.
         11    1    1    2    0    0  0.20988379944E+02 -0.33772043702E+02 -0.56822583747E+02  0.69353219479E+02  0.00000000000E+00 0.  1.
</event>
<event>
 7    1  0.2732144E-009  0.1100982E+03  0.7561462E-02  0.1260388E+00
         -1   -1    0    0    0  501 -0.00000000000E+00  0.00000000000E+00  0.24495413593E+03  0.24495413593E+03  0.00000000000E+00 0.  1.
          1   -1    0    0  501    0  0.00000000000E+00 -0.00000000000E+00 -0.10884404513E+03  0.10884404513E+03  0.00000000000E+00 0. -1.
         25    2    1    2    0    0 -0.60374387999E+02 -0.69741009937E+02 -0.13394725441E+02  0.15598898588E+03  0.12507705566E+03 0.  0.
          5    1    3    3  502    0 -0.38594038557E+02 -0.81512524496E+02 -0.56211598034E+02  0.10635322099E+03  0.41800000000E+01 0. -1.
         -5    1    3    3    0  502 -0.21780349442E+02  0.11771514559E+02  0.42816872593E+02  0.49635764883E+02  0.41800000000E+01 0. -1.
        -11    1    1    2    0    0 -0.29652151519E+01  0.29746686594E+02  0.10822672445E+03  0.11227948054E+03  0.00000000000E+00 0.  1.
         11    1    1    2    0    0  0.63339603151E+02  0.39994323343E+02  0.41278091785E+02  0.85529714651E+02  0.00000000000E+00 0. -1.
</event>
<event>
 7    1  0.2732144E-009  0.1022557E+03  0.7561462E-02  0.1275623E+00
          1   -1    0    0  501    0  0.00000000000E+00  0.00000000000E+00  0.20299271962E+03  0.20299271962E+03  0.00000000000E+00 0. -1.
         -1   -1    0    0    0  501 -0.00000000000E+00 -0.00000000000E+00 -0.27368166311E+03  0.27368166311E+03  0.00000000000E+00 0.  1.
         25    2    1    2    0    0  0.55187808942E+02  0.60632791400E+02  0.15791015167E+03  0.21749995285E+03  0.12509429979E+03 0.  0.
          5    1    3    3  502    0  0.23798299874E+02 -0.10724157968E+01  0.14493637321E+03  0.14694057926E+03  0.41800000000E+01 0. -1.
         -5    1    3    3    0  502  0.31389509068E+02  0.61705207197E+02  0.12973778461E+02  0.70559373596E+02  0.41800000000E+01 0. -1.
        -11    1    1    2    0    0 -0.28124969368E+02 -0.75162366809E+02 -0.20588188964E+03  0.22097001554E+03  0.00000000000E+00 0.  1.
         11    1    1    2    0    0 -0.27062839575E+02  0.14529575409E+02 -0.22717205519E+02  0.38204414326E+02  0.00000000000E+00 0. -1.
</event>
<event>
 7    1  0.2732144E-009  0.4202713E+03  0.7561462E-02  0.1036978E+00
         -1   -1    0    0    0  501 -0.00000000000E+00  0.00000000000E+00  0.14441660039E+03  0.14441660039E+03  0.00000000000E+00 0.  1.
          1   -1    0    0  501    0  0.00000000000E+00 -0.00000000000E+00 -0.13034902340E+04  0.13034902340E+04  0.00000000000E+00 0. -1.
         25    2    1    2    0    0 -0.39350618057E+03 -0.14281659633E+03 -0.63331306347E+03  0.76940001200E+03  0.12508895943E+03 0.  0.
          5    1    3    3  502    0 -0.11859116091E+01 -0.13422382268E+01 -0.61376471050E+02  0.61544712108E+02  0.41800000000E+01 0. -1.
         -5    1    3    3    0  502 -0.39232026896E+03 -0.14147435811E+03 -0.57193659242E+03  0.70785529989E+03  0.41800000000E+01 0. -1.
        -11    1    1    2    0    0  0.25919346532E+03  0.10207646843E+03 -0.41445747776E+03  0.49937546870E+03  0.00000000000E+00 0. -1.
         11    1    1    2    0    0  0.13431271526E+03  0.40740127904E+02 -0.11130309241E+03  0.17913135371E+03  0.00000000000E+00 0.  1.
</event>
<event>
 7    1  0.2732144E-009  0.1509409E+03  0.7561462E-02  0.1199322E+00
          1   -1    0    0  501    0  0.00000000000E+00  0.00000000000E+00  0.22837426837E+03  0.22837426837E+03  0.00000000000E+00 0. -1.
         -1   -1    0    0    0  501 -0.00000000000E+00 -0.00000000000E+00 -0.30368449282E+03  0.30368449282E+03  0.00000000000E+00 0.  1.
         25    2    1    2    0    0  0.11439825070E+03  0.52460201837E+02 -0.23893044707E+03  0.29761303128E+03  0.12508687106E+03 0.  0.
          5    1    3    3  502    0 -0.21344790954E+02 -0.12877721665E+02 -0.22244659284E+02  0.33670953102E+02  0.41800000000E+01 0. -1.
         -5    1    3    3    0  502  0.13574304165E+03  0.65337923502E+02 -0.21668578778E+03  0.26394207817E+03  0.41800000000E+01 0. -1.
        -11    1    1    2    0    0 -0.67935293914E+02 -0.32962426457E+02  0.16767668310E+03  0.18389452350E+03  0.00000000000E+00 0. -1.
         11    1    1    2    0    0 -0.46462956785E+02 -0.19497775380E+02 -0.40564604956E+01  0.50551206412E+02  0.00000000000E+00 0.  1.
</event>
<event>
 7    1  0.2732144E-009  0.8169070E+02  0.7561462E-02  0.1324321E+00
         -1   -1    0    0    0  501 -0.00000000000E+00  0.00000000000E+00  0.15934839321E+02  0.15934839321E+02  0.00000000000E+00 0.  1.
          1   -1    0    0  501    0  0.00000000000E+00 -0.00000000000E+00 -0.95600597608E+03  0.95600597608E+03  0.00000000000E+00 0. -1.
         25    2    1    2    0    0 -0.17688437481E+02 -0.22916795354E+02 -0.73443670204E+03  0.74557542036E+03  0.12508947925E+03 0.  0.
          5    1    3    3  502    0  0.25317247390E+02 -0.39718337400E+02 -0.62418024931E+03  0.62596882141E+03  0.41800000000E+01 0. -1.
         -5    1    3    3    0  502 -0.43005684870E+02  0.16801542047E+02 -0.11025645272E+03  0.11960659895E+03  0.41800000000E+01 0. -1.
        -11    1    1    2    0    0 -0.23979461281E+02  0.56810249507E+01 -0.11740177996E+02  0.27296893361E+02  0.00000000000E+00 0.  1.
         11    1    1    2    0    0  0.41667898761E+02  0.17235770403E+02 -0.19389425673E+03  0.19906850168E+03  0.00000000000E+00 0. -1.
</event>
<event>
 7    1  0.2732144E-009  0.9760041E+02  0.7561462E-02  0.1285424E+00
         -2   -1    0    0    0  501 -0.00000000000E+00  0.00000000000E+00  0.11091448362E+03  0.11091448362E+03  0.00000000000E+00 0. -1.
          2   -1    0    0  501    0  0.00000000000E+00 -0.00000000000E+00 -0.14424771852E+03  0.14424771852E+03  0.00000000000E+00 0.  1.
         25    2    1    2    0    0 -0.28913125211E+02 -0.32799284387E+01  0.39573436671E+02  0.13438504357E+03  0.12508619550E+03 0.  0.
          5    1    3    3  502    0  0.21837893702E+02 -0.35305936088E+02 -0.22951664123E+02  0.47619890911E+02  0.41800000000E+01 0.  1.
         -5    1    3    3    0  502 -0.50751018912E+02  0.32026007650E+02  0.62525100794E+02  0.86765152659E+02  0.41800000000E+01 0.  1.
        -11    1    1    2    0    0  0.60135923415E+02 -0.67804367933E+01 -0.60872939202E+02  0.85835996733E+02  0.00000000000E+00 0.  1.
         11    1    1    2    0    0 -0.31222798204E+02  0.10060365232E+02 -0.12033732366E+02  0.34941161843E+02  0.00000000000E+00 0. -1.
</event>
<event>
 7    1  0.2732144E-009  0.2757753E+03  0.7561462E-02  0.1098019E+00
         -2   -1    0    0    0  501 -0.00000000000E+00  0.00000000000E+00  0.78290903639E+02  0.78290903639E+02  0.00000000000E+00 0. -1.
          2   -1    0    0  501    0  0.00000000000E+00 -0.00000000000E+00 -0.12300137352E+04  0.12300137352E+04  0.00000000000E+00 0.  1.
         25    2    1    2    0    0 -0.24919998506E+03 -0.10289361221E+03 -0.81611425642E+03  0.86854921018E+03  0.12509005948E+03 0.  0.
          5    1    3    3  502    0 -0.23531663588E+03 -0.95232897460E+02 -0.59599510771E+03  0.64782008667E+03  0.41800000000E+01 0.  1.
         -5    1    3    3    0  502 -0.13883349182E+02 -0.76607147511E+01 -0.22011914872E+03  0.22072912351E+03  0.41800000000E+01 0.  1.
        -11    1    1    2    0    0  0.16229034407E+03  0.24327771717E+02 -0.16430169915E+03  0.23221766642E+03  0.00000000000E+00 0.  1.
         11    1    1    2    0    0  0.86909640996E+02  0.78565840493E+02 -0.17130687595E+03  0.20753776220E+03  0.00000000000E+00 0. -1.
</event>
<event>
 7    1  0.3102040E-009  0.1472708E+03  0.7561462E-02  0.1203867E+00
          2   -1    0    0  501    0  0.00000000000E+00  0.00000000000E+00  0.14000854189E+04  0.14000854189E+04  0.00000000000E+00 0. -1.
         -2   -1    0    0    0  501 -0.00000000000E+00 -0.00000000000E+00 -0.18336710129E+02  0.18336710129E+02  0.00000000000E+00 0.  1.
         25    2    1    2    0    0  0.42491004158E+01  0.10419983699E+03  0.97765449178E+03  0.99112679625E+03  0.12509340532E+03 0.  0.
          5    1    3    3  502    0 -0.49053106807E+02  0.10037947592E+02  0.21313314526E+03  0.21897529013E+03  0.41800000000E+01 0. -1.
         -5    1    3    3    0  502  0.53302207223E+02  0.94161889400E+02  0.76452134652E+03  0.77215150612E+03  0.41800000000E+01 0. -1.
        -11    1    1    2    0    0 -0.41561192738E+02 -0.83681153894E+02  0.23428926897E+03  0.25223268982E+03  0.00000000000E+00 0.  1.
         11    1    1    2    0    0  0.37312092322E+02 -0.20518683099E+02  0.16980494802E+03  0.17506264297E+03  0.00000000000E+00 0. -1.
</event>
<event>
 7    1  0.2732144E-009  0.1265173E+03  0.7561462E-02  0.1232717E+00
         -1   -1    0    0    0  501 -0.00000000000E+00  0.00000000000E+00  0.13299320886E+03  0.13299320886E+03  0.00000000000E+00 0.  1.
          1   -1    0    0  501    0  0.00000000000E+00 -0.00000000000E+00 -0.15471986368E+03  0.15471986368E+03  0.00000000000E+00 0. -1.
         25    2    1    2    0    0  0.14521126482E+02  0.92591745384E+02 -0.96523002244E+01  0.15660257275E+03  0.12508838661E+03 0.  0.
          5    1    3    3  502    0 -0.48667511407E+02  0.63602237926E+01 -0.50454236596E+01  0.49516742756E+02  0.41800000000E+01 0. -1.
         -5    1    3    3    0  502  0.63188637889E+02  0.86231521592E+02 -0.46068765648E+01  0.10708583000E+03  0.41800000000E+01 0. -1.
        -11    1    1    2    0    0  0.67180172148E+01 -0.28003577797E+02 -0.46657960768E+02  0.54829713001E+02  0.00000000000E+00 0. -1.
         11    1    1    2    0    0 -0.21239143697E+02 -0.64588167587E+02  0.34583606171E+02  0.76280786788E+02  0.00000000000E+00 0.  1.
</event>
<event>
 7    1  0.3046895E-009  0.2270800E+03  0.7561462E-02  0.1128712E+00
          2   -1    0    0  501    0  0.00000000000E+00  0.00000000000E+00  0.11178872656E+04  0.11178872656E+04  0.00000000000E+00 0.  1.
         -2   -1    0    0    0  501 -0.00000000000E+00 -0.00000000000E+00 -0.47530475304E+02  0.47530475304E+02  0.00000000000E+00 0. -1.
         25    2    1    2    0    0  0.16728376694E+03  0.11386033064E+03  0.59529729267E+03  0.64107309322E+03  0.12509120919E+03 0.  0.
          5    1    3    3  502    0  0.62224645267E+02 -0.17512115482E+02  0.11279643477E+03  0.13007339760E+03  0.41800000000E+01 0.  1.
         -5    1    3    3    0  502  0.10505912167E+03  0.13137244612E+03  0.48250085790E+03  0.51099969562E+03  0.41800000000E+01 0.  1.
        -11    1    1    2    0    0 -0.82330163560E+02 -0.42515205292E+01  0.19934475352E+03  0.21571894218E+03  0.00000000000E+00 0. -1.
         11    1    1    2    0    0 -0.84953603381E+02 -0.10960881011E+03  0.27571474413E+03  0.30862570553E+03  0.00000000000E+00 0.  1.
</event>
<event>
 7    1  0.2732144E-009  0.1076079E+03  0.7561462E-02  0.1265065E+00
         -1   -1    0    0    0  501 -0.00000000000E+00  0.00000000000E+00  0.97838281847E+02  0.97838281847E+02  0.00000000000E+00 0.  1.
          1   -1    0    0  501    0  0.00000000000E+00 -0.00000000000E+00 -0.21477528958E+03  0.21477528958E+03  0.00000000000E+00 0. -1.
         25    2    1    2    0    0 -0.64815035161E+02  0.18926048495E+02 -0.13623933814E+03  0.19689800143E+03  0.12509389119E+03 0.  0.
          5    1    3    3  502    0 -0.86590351395E+02  0.51960121420E+02 -0.10919499817E+03  0.14879100510E+03  0.41800000000E+01 0. -1.
         -5    1    3    3    0  502  0.21775316234E+02 -0.33034072925E+02 -0.27044339970E+02  0.48106996326E+02  0.41800000000E+01 0. -1.
        -11    1    1    2    0    0  0.49209376944E+02 -0.27686689614E+02  0.53076105398E+02  0.77493151473E+02  0.00000000000E+00 0.  1.
         11    1    1    2    0    0  0.15605658217E+02  0.87606411182E+01 -0.33773774990E+02  0.38222418529E+02  0.00000000000E+00 0. -1.
</event>
<event>
 7    1  0.2732144E-009  0.1797829E+03  0.7561462E-02  0.1168013E+00
          2   -1    0    0  501    0  0.00000000000E+00  0.00000000000E+00  0.95006549450E+03  0.95006549450E+03  0.00000000000E+00 0. -1.
         -2   -1    0    0    0  501 -0.00000000000E+00 -0.00000000000E+00 -0.59140007769E+02  0.59140007769E+02  0.00000000000E+00 0.  1.
         25    2    1    2    0    0  0.13636916536E+03  0.99282192421E+02  0.72928702042E+03  0.75892080839E+03  0.12509089602E+03 0.  0.
          5    1    3    3  502    0  0.61769238317E+02  0.44942744513E+02  0.56733707216E+03  0.57247193376E+03  0.41800000000E+01 0.  1.
         -5    1    3    3    0  502  0.74599927039E+02  0.54339447908E+02  0.16194994826E+03  0.18644887464E+03  0.41800000000E+01 0.  1.
        -11    1    1    2    0    0 -0.20347184269E+02 -0.67325194214E+02  0.67667694384E+02  0.97599213864E+02  0.00000000000E+00 0.  1.
         11    1    1    2    0    0 -0.11602198109E+03 -0.31956998207E+02  0.93970771928E+02  0.15268548001E+03  0.00000000000E+00 0. -1.
</event>
<event>
 7    1  0.2832415E-009  0.8840599E+02  0.7561462E-02  0.1306758E+00
         -2   -1    0    0    0  501 -0.00000000000E+00  0.00000000000E+00  0.18155580400E+03  0.18155580400E+03  0.00000000000E+00 0.  1.
          2   -1    0    0  501    0  0.00000000000E+00 -0.00000000000E+00 -0.75015362540E+02  0.75015362540E+02  0.00000000000E+00 0. -1.
         25    2    1    2    0    0 -0.97293557359E+01 -0.42167568789E+02  0.65108276215E+02  0.14750919738E+03  0.12508841457E+03 0.  0.
          5    1    3    3  502    0  0.54717710382E+02 -0.72978353891E+01  0.45182210713E+02  0.71457615380E+02  0.41800000000E+01 0.  1.
         -5    1    3    3    0  502 -0.64447066118E+02 -0.34869733399E+02  0.19926065502E+02  0.76051582002E+02  0.41800000000E+01 0.  1.
        -11    1    1    2    0    0  0.14974537806E+02  0.18429296136E+02  0.68606739203E+02  0.72600002773E+02  0.00000000000E+00 0.  1.
         11    1    1    2    0    0 -0.52451820705E+01  0.23738272652E+02 -0.27174573953E+02  0.36461966390E+02  0.00000000000E+00 0. -1.
</event>
<event>
 7    1  0.2732144E-009  0.1566444E+03  0.7561462E-02  0.1192538E+00
          1   -1    0    0  501    0  0.00000000000E+00  0.00000000000E+00  0.71585022847E+02  0.71585022847E+02  0.00000000000E+00 0. -1.
         -1   -1    0    0    0  501 -0.00000000000E+00 -0.00000000000E+00 -0.45171819964E+03  0.45171819964E+03  0.00000000000E+00 0.  1.
         25    2    1    2    0    0  0.98808492646E+02 -0.84864707104E+02 -0.11351139526E+03  0.21330266895E+03  0.12509218599E+03 0.  0.
          5    1    3    3  502    0 -0.17675314380E+02  0.52095030308E+01 -0.48947483016E+02  0.52467934530E+02  0.41800000000E+01 0. -1.
         -5    1    3    3    0  502  0.11648380703E+03 -0.90074210135E+02 -0.64563912241E+02  0.16083473442E+03  0.41800000000E+01 0. -1.
        -11    1    1    2    0    0 -0.53142770333E+02  0.86354734740E+02 -0.23029621712E+03  0.25162997014E+03  0.00000000000E+00 0.  1.
         11    1    1    2    0    0 -0.45665722313E+02 -0.14900276354E+01 -0.36325564413E+02  0.58370583402E+02  0.00000000000E+00 0. -1.
</event>
<event>
 7    1  0.2732144E-009  0.1529011E+03  0.7561462E-02  0.1196953E+00
         -1   -1    0    0    0  501 -0.00000000000E+00  0.00000000000E+00  0.42170581856E+02  0.42170581856E+02  0.00000000000E+00 0.  1.
          1   -1    0    0  501    0  0.00000000000E+00 -0.00000000000E+00 -0.70250799924E+03  0.70250799924E+03  0.00000000000E+00 0. -1.
         25    2    1    2    0    0 -0.31485035812E+02  0.10706071538E+03 -0.50523375489E+03  0.53231811816E+03  0.12509247612E+03 0.  0.
          5    1    3    3  502    0  0.44932069015E+02  0.14766561549E+02 -0.15695109058E+03  0.16397578907E+03  0.41800000000E+01 0.  1.
         -5    1    3    3    0  502 -0.76417104827E+02  0.92294153831E+02 -0.34828266432E+03  0.36834232910E+03  0.41800000000E+01 0.  1.
        -11    1    1    2    0    0 -0.25729868735E+02 -0.56451199682E+02 -0.38660485085E+02  0.73098544429E+02  0.00000000000E+00 0.  1.
         11    1    1    2    0    0  0.57214904547E+02 -0.50609515697E+02 -0.11644317741E+03  0.13926191851E+03  0.00000000000E+00 0. -1.
</event>
<event>
 7    1  0.2732144E-009  0.1117922E+03  0.7561462E-02  0.1257286E+00
          1   -1    0    0  501    0  0.00000000000E+00  0.00000000000E+00  0.14880580985E+03  0.14880580985E+03  0.00000000000E+00 0. -1.
         -1   -1    0    0    0  501 -0.00000000000E+00 -0.00000000000E+00 -0.11292695878E+03  0.11292695878E+03  0.00000000000E+00 0.  1.
         25    2    1    2    0    0 -0.63004644239E+02  0.16529942824E+02 -0.29955686796E+02  0.14417746297E+03  0.12508786292E+03 0.  0.
          5    1    3    3  502    0 -0.85138682611E+02 -0.21158719239E+02  0.51245834175E+01  0.87977385911E+02  0.41800000000E+01 0.  1.
         -5    1    3    3    0  502  0.22134038372E+02  0.37688662063E+02 -0.35080270214E+02  0.56200077055E+02  0.41800000000E+01 0.  1.
        -11    1    1    2    0    0  0.62466012101E+02 -0.36183220147E+02  0.66119067371E+02  0.97892589904E+02  0.00000000000E+00 0. -1.
         11    1    1    2    0    0  0.53863213725E+00  0.19653277323E+02 -0.28452950630E+00  0.19662715762E+02  0.00000000000E+00 0.  1.
</event>
<event>
 7    1  0.2732144E-009  0.1294289E+03  0.7561462E-02  0.1228306E+00
         -1   -1    0    0    0  501 -0.00000000000E+00  0.00000000000E+00  0.52644419636E+02  0.52644419636E+02  0.00000000000E+00 0.  1.
          1   -1    0    0  501    0  0.00000000000E+00 -0.00000000000E+00 -0.53932885468E+03  0.53932885468E+03  0.00000000000E+00 0. -1.
         25    2    1    2    0    0  0.28774402573E+02 -0.68113344170E+02 -0.44130108523E+03  0.46460927732E+03  0.12509092235E+03 0.  0.
          5    1    3    3  502    0  0.32263889740E+02 -0.10368379549E+03 -0.34963388674E+03  0.36613196417E+03  0.41800000000E+01 0. -1.
         -5    1    3    3    0  502 -0.34894871672E+01  0.35570451321E+02 -0.91667198483E+02  0.98477313152E+02  0.41800000000E+01 0. -1.
        -11    1    1    2    0    0 -0.54133934690E+02  0.16326669310E+02 -0.45853692583E+01  0.56728023296E+02  0.00000000000E+00 0.  1.
         11    1    1    2    0    0  0.25359532117E+02  0.51786674861E+02 -0.40797980556E+02  0.70635973695E+02  0.00000000000E+00 0. -1.
</event>
<event>
 7    1  0.2732144E-009  0.2018858E+03  0.7561462E-02  0.1148158E+00
         -2   -1    0    0    0  501 -0.00000000000E+00  0.00000000000E+00  0.46549619006E+02  0.46549619006E+02  0.00000000000E+00 0.  1.
          2   -1    0    0  501    0  0.00000000000E+00 -0.00000000000E+00 -0.12305624925E+04  0.12305624925E+04  0.00000000000E+00 0. -1.
         25    2    1    2    0    0  0.18496397778E+03 -0.78816901416E+02 -0.79293875451E+03  0.82753949611E+03  0.12508386066E+03 0.  0.
          5    1    3    3  502    0  0.88493202745E+02 -0.24548822812E+02 -0.58269361870E+03  0.58990085380E+03  0.41800000000E+01 0.  1.
         -5    1    3    3    0  502  0.96470775035E+02 -0.54268078604E+02 -0.21024513581E+03  0.23763864231E+03  0.41800000000E+01 0.  1.
        -11    1    1    2    0    0 -0.16621520538E+03  0.69918006656E+02 -0.38894240603E+03  0.42870994549E+03  0.00000000000E+00 0. -1.
         11    1    1    2    0    0 -0.18748772403E+02  0.88988947600E+01 -0.21317129314E+01  0.20862669881E+02  0.00000000000E+00 0.  1.
</event>
<event>
 7    1  0.2732144E-009  0.1052049E+03  0.7561462E-02  0.1269716E+00
          2   -1    0    0  501    0  0.00000000000E+00  0.00000000000E+00  0.24977098354E+03  0.24977098354E+03  0.00000000000E+00 0. -1.
         -2   -1    0    0    0  501 -0.00000000000E+00 -0.00000000000E+00 -0.69232156473E+02  0.69232156473E+02  0.00000000000E+00 0.  1.
         25    2    1    2    0    0  0.63418562933E+02 -0.19321276954E+02  0.63340358342E+02  0.15509545263E+03  0.12508945824E+03 0.  0.
          5    1    3    3  502    0  0.50478732646E+02  0.48884341195E+02  0.43591990430E+02  0.82798039187E+02  0.41800000000E+01 0.  1.
         -5    1    3    3    0  502  0.12939830287E+02 -0.68205618149E+02  0.19748367912E+02  0.72297413440E+02  0.41800000000E+01 0.  1.
        -11    1    1    2    0    0 -0.76189512578E+01  0.11966418555E+02 -0.14745297143E+02  0.20461363081E+02  0.00000000000E+00 0.  1.
         11    1    1    2    0    0 -0.55799611675E+02  0.73548583995E+01  0.13194376587E+03  0.14344632430E+03  0.00000000000E+00 0. -1.
</event>
<event>
 7    1  0.2732144E-009  0.1594681E+03  0.7561462E-02  0.1189299E+00
         -2   -1    0    0    0  501 -0.00000000000E+00  0.00000000000E+00  0.68591255040E+02  0.68591255040E+02  0.00000000000E+00 0.  1.
          2   -1    0    0  501    0  0.00000000000E+00 -0.00000000000E+00 -0.40174531265E+03  0.40174531265E+03  0.00000000000E+00 0. -1.
         25    2    1    2    0    0  0.11985206371E+03 -0.83154823637E+01 -0.13151676160E+03  0.21767632144E+03  0.12511058274E+03 0.  0.
          5    1    3    3  502    0  0.49819193457E+02 -0.62033279811E+02 -0.35602212349E+02  0.87264367098E+02  0.41800000000E+01 0.  1.
         -5    1    3    3    0  502  0.70032870252E+02  0.53717797447E+02 -0.95914549251E+02  0.13041195435E+03  0.41800000000E+01 0.  1.
        -11    1    1    2    0    0 -0.71320563998E+02  0.49858434498E+02 -0.13256326474E+03  0.15857334422E+03  0.00000000000E+00 0.  1.
         11    1    1    2    0    0 -0.48531499712E+02 -0.41542952134E+02 -0.69074031269E+02  0.94086902022E+02  0.00000000000E+00 0. -1.
</event>
<event>
 7    1  0.2732144E-009  0.1634612E+03  0.7561462E-02  0.1184844E+00
         -2   -1    0    0    0  501 -0.00000000000E+00  0.00000000000E+00  0.19799696678E+02  0.19799696678E+02  0.00000000000E+00 0.  1.
          2   -1    0    0  501    0  0.00000000000E+00 -0.00000000000E+00 -0.20448638163E+04  0.20448638163E+04  0.00000000000E+00 0. -1.
         25    2    1    2    0    0  0.47194754814E+02  0.11771754538E+03 -0.16284423621E+04  0.16381566284E+04  0.12509135553E+03 0.  0.
          5    1    3    3  502    0  0.89711821701E+02  0.89483884946E+02 -0.11896253136E+04  0.11963617495E+04  0.41800000000E+01 0. -1.
         -5    1    3    3    0  502 -0.42517066887E+02  0.28233660430E+02 -0.43881704853E+03  0.44179487892E+03  0.41800000000E+01 0. -1.
        -11    1    1    2    0    0 -0.49013200679E+02 -0.22899464644E+02 -0.84836869890E+02  0.10061795970E+03  0.00000000000E+00 0.  1.
         11    1    1    2    0    0  0.18184458648E+01 -0.94818080732E+02 -0.31178488763E+03  0.32588892484E+03  0.00000000000E+00 0. -1.
</event>
<event>
 7    1  0.2732144E-009  0.1052316E+03  0.7561462E-02  0.1269664E+00
         -2   -1    0    0    0  501 -0.00000000000E+00  0.00000000000E+00  0.53749212688E+02  0.53749212688E+02  0.00000000000E+00 0.  1.
          2   -1    0    0  501    0  0.00000000000E+00 -0.00000000000E+00 -0.25815047618E+03  0.25815047618E+03  0.00000000000E+00 0. -1.
         25    2    1    2    0    0 -0.41580765796E+02  0.13394775753E+02 -0.94598064625E+02  0.16280550590E+03  0.12509380008E+03 0.  0.
          5    1    3    3  502    0 -0.15248262001E+02 -0.46024192017E+02 -0.83634736329E+02  0.96762478604E+02  0.41800000000E+01 0. -1.
         -5    1    3    3    0  502 -0.26332503795E+02  0.59418967770E+02 -0.10963328296E+02  0.66043027295E+02  0.41800000000E+01 0. -1.
        -11    1    1    2    0    0  0.56030534955E+01 -0.47064651134E+02 -0.75170879598E+02  0.88865835586E+02  0.00000000000E+00 0. -1.
         11    1    1    2    0    0  0.35977712300E+02  0.33669875381E+02 -0.34632319270E+02  0.60228347383E+02  0.00000000000E+00 0.  1.
</event>
<event>
 6    1  0.2732144E-009  0.1062835E+03  0.7561462E-02  0.1267611E+00
         -2   -1    0    0    0  501 -0.00000000000E+00  0.00000000000E+00  0.37807206628E+02  0.37807206628E+02  0.00000000000E+00 0.  1.
          2   -1    0    0  501    0  0.00000000000E+00 -0.00000000000E+00 -0.68911557571E+03  0.68911557571E+03  0.00000000000E+00 0. -1.
          5    1    1    2  502    0 -0.36311273612E+02  0.16977566180E+02  0.71142734414E+01  0.40924706857E+02  0.41800000000E+01 0.  1.
         -5    1    1    2    0  502 -0.51411604525E+02  0.96066893813E+01 -0.19495450930E+03  0.20189149228E+03  0.41800000000E+01 0.  1.
        -11    1    1    2    0    0  0.46094294257E+02  0.25849461489E+02 -0.87476131924E+02  0.10220054931E+03  0.00000000000E+00 0.  1.
         11    1    1    2    0    0  0.41628583879E+02 -0.52433717051E+02 -0.37599200130E+03  0.38190603389E+03  0.00000000000E+00 0. -1.
</event>
<event>
 7    1  0.2732144E-009  0.1285504E+03  0.7561462E-02  0.1229623E+00
          1   -1    0    0  501    0  0.00000000000E+00  0.00000000000E+00  0.30651326829E+03  0.30651326829E+03  0.00000000000E+00 0. -1.
         -1   -1    0    0    0  501 -0.00000000000E+00 -0.00000000000E+00 -0.79664074850E+02  0.79664074850E+02  0.00000000000E+00 0.  1.
         25    2    1    2    0    0  0.73456590839E+02  0.86438317601E+02  0.11544754191E+03  0.20455628348E+03  0.12509070586E+03 0.  0.
          5    1    3    3  502    0  0.40879394237E+02  0.85096434131E+02  0.13613336675E+03  0.16571751240E+03  0.41800000000E+01 0. -1.
         -5    1    3    3    0  502  0.32577196602E+02  0.13418834697E+01 -0.20685824840E+02  0.38838771080E+02  0.41800000000E+01 0. -1.
        -11    1    1    2    0    0 -0.71819318346E+02 -0.37977838392E+02  0.29480997173E+02  0.86426037112E+02  0.00000000000E+00 0.  1.
         11    1    1    2    0    0 -0.16372724930E+01 -0.48460479209E+02  0.81920654363E+02  0.95195022547E+02  0.00000000000E+00 0. -1.
</event>
<event>
 7    1  0.2732144E-009  0.6779815E+02  0.7561462E-02  0.1367745E+00
         -1   -1    0    0    0  501 -0.00000000000E+00  0.00000000000E+00  0.79487060831E+02  0.79487060831E+02  0.00000000000E+00 0.  1.
          1   -1    0    0  501    0  0.00000000000E+00 -0.00000000000E+00 -0.15660070937E+03  0.15660070937E+03  0.00000000000E+00 0. -1.
         25    2    1    2    0    0  0.38833906501E+01  0.61667398240E+01 -0.71401949859E+02  0.14421796239E+03  0.12508985902E+03 0.  0.
          5    1    3    3  502    0  0.39163102487E+02 -0.51094276015E+01  0.20752827786E+02  0.44810792315E+02  0.41800000000E+01 0. -1.
         -5    1    3    3    0  502 -0.35279711837E+02  0.11276167426E+02 -0.92154777645E+02  0.99407170073E+02  0.41800000000E+01 0. -1.
        -11    1    1    2    0    0  0.83204589252E+01 -0.30376755452E+02  0.32343095639E+02  0.45144801960E+02  0.00000000000E+00 0.  1.
         11    1    1    2    0    0 -0.12203849575E+02  0.24210015628E+02 -0.38054794320E+02  0.46725005852E+02  0.00000000000E+00 0. -1.
</event>
<event>
 7    1  0.2732144E-009  0.1009308E+03  0.7561462E-02  0.1278351E+00
         -2   -1    0    0    0  501 -0.00000000000E+00  0.00000000000E+00  0.24857579771E+02  0.24857579771E+02  0.00000000000E+00 0.  1.
          2   -1    0    0  501    0  0.00000000000E+00 -0.00000000000E+00 -0.54249539607E+03  0.54249539607E+03  0.00000000000E+00 0. -1.
         25    2    1    2    0    0  0.32942069380E+02  0.10291283622E+02 -0.22502646392E+03  0.25976018076E+03  0.12508937440E+03 0.  0.
          5    1    3    3  502    0  0.38878639958E+02  0.53278933100E+02 -0.60648044124E+02  0.89698667846E+02  0.41800000000E+01 0.  1.
         -5    1    3    3    0  502 -0.59365705779E+01 -0.42987649479E+02 -0.16437841980E+03  0.17006151291E+03  0.41800000000E+01 0.  1.
        -11    1    1    2    0    0 -0.93180452930E+01  0.37620501548E+02 -0.15997991473E+03  0.16460771920E+03  0.00000000000E+00 0. -1.
         11    1    1    2    0    0 -0.23624024087E+02 -0.47911785170E+02 -0.13263143765E+03  0.14298507588E+03  0.00000000000E+00 0.  1.
</event>
<event>
 6    1  0.2732144E-009  0.1429664E+03  0.7561462E-02  0.1209392E+00
         -2   -1    0    0    0  501 -0.00000000000E+00  0.00000000000E+00  0.60745542190E+02  0.60745542190E+02  0.00000000000E+00 0.  1.
          2   -1    0    0  501    0  0.00000000000E+00 -0.00000000000E+00 -0.38161677395E+03  0.38161677395E+03  0.00000000000E+00 0. -1.
          5    1    1    2  502    0 -0.49373310193E+01  0.34301113908E+02 -0.34760730443E+02  0.49261794871E+02  0.41800000000E+01 0. -1.
         -5    1    1    2    0  502 -0.56647735336E+02 -0.10350968622E+03 -0.20722943162E+03  0.23850520076E+03  0.41800000000E+01 0. -1.
        -11    1    1    2    0    0  0.25329568654E+02  0.88384096683E+02 -0.54749935054E+02  0.10700883600E+03  0.00000000000E+00 0. -1.
         11    1    1    2    0    0  0.36255497701E+02 -0.19175524374E+02 -0.24131134647E+02  0.47586484509E+02  0.00000000000E+00 0.  1.
</event>
<event>
 7    1  0.2732144E-009  0.2283026E+03  0.7561462E-02  0.1127840E+00
          1   -1    0    0  501    0  0.00000000000E+00  0.00000000000E+00  0.13383473734E+04  0.13383473734E+04  0.00000000000E+00 0. -1.
         -1   -1    0    0    0  501 -0.00000000000E+00 -0.00000000000E+00 -0.48565192157E+02  0.48565192157E+02  0.00000000000E+00 0.  1.
         25    2    1    2    0    0 -0.62296050789E+02 -0.21541031270E+03  0.80587133279E+03  0.84578873765E+03  0.12509029926E+03 0.  0.
          5    1    3    3  502    0 -0.28716454296E+02 -0.18371155901E+03  0.75224675249E+03  0.77489820021E+03  0.41800000000E+01 0.  1.
         -5    1    3    3    0  502 -0.33579596493E+02 -0.31698753697E+02  0.53624580295E+02  0.70890537439E+02  0.41800000000E+01 0.  1.
        -11    1    1    2    0    0  0.42775615707E+02  0.14402920057E+03  0.21555220650E+03  0.26274877287E+03  0.00000000000E+00 0.  1.
         11    1    1    2    0    0  0.19520435082E+02  0.71381112134E+02  0.26835864195E+03  0.27837505503E+03  0.00000000000E+00 0. -1.
</event>
<event>
 7    1  0.2732144E-009  0.2253528E+03  0.7561462E-02  0.1129954E+00
          1   -1    0    0  501    0  0.00000000000E+00  0.00000000000E+00  0.40283537691E+03  0.40283537691E+03  0.00000000000E+00 0. -1.
         -1   -1    0    0    0  501 -0.00000000000E+00 -0.00000000000E+00 -0.15637383455E+03  0.15637383455E+03  0.00000000000E+00 0.  1.
         25    2    1    2    0    0 -0.19243205832E+03 -0.11541082258E+03  0.14288352847E+03  0.29395988718E+03  0.12508779926E+03 0.  0.
          5    1    3    3  502    0 -0.86129865517E+02 -0.39471856248E+02 -0.69946682393E+01  0.95093527400E+02  0.41800000000E+01 0.  1.
         -5    1    3    3    0  502 -0.10630219280E+03 -0.75938966335E+02  0.14987819671E+03  0.19886635978E+03  0.41800000000E+01 0.  1.
        -11    1    1    2    0    0  0.14075902908E+03  0.93818042679E+02  0.11940030342E+03  0.20705400710E+03  0.00000000000E+00 0. -1.
         11    1    1    2    0    0  0.51673029240E+02  0.21592779904E+02 -0.15822289538E+02  0.58195317174E+02  0.00000000000E+00 0.  1.
</event>
<event>
 7    1  0.2732144E-009  0.2102782E+03  0.7561462E-02  0.1141346E+00
         -1   -1    0    0    0  501 -0.00000000000E+00  0.00000000000E+00  0.76697827058E+02  0.76697827058E+02  0.00000000000E+00 0.  1.
          1   -1    0    0  501    0  0.00000000000E+00 -0.00000000000E+00 -0.72877629889E+03  0.72877629889E+03  0.00000000000E+00 0. -1.
         25    2    1    2    0    0  0.59850814896E+02  0.17910351507E+03 -0.17805251110E+03  0.28811563262E+03  0.12509089453E+03 0.  0.
          5    1    3    3  502    0  0.93534996167E+02  0.13043465862E+03 -0.15856948512E+03  0.22566291164E+03  0.41800000000E+01 0.  1.
         -5    1    3    3    0  502 -0.33684181271E+02  0.48668856455E+02 -0.19483025979E+02  0.62452720980E+02  0.41800000000E+01 0.  1.
        -11    1    1    2    0    0 -0.57569470365E+02 -0.66186356598E+02 -0.14478939478E+03  0.16928923935E+03  0.00000000000E+00 0.  1.
         11    1    1    2    0    0 -0.22813445308E+01 -0.11291715847E+03 -0.32923656595E+03  0.34806925399E+03  0.00000000000E+00 0. -1.
</event>
<event>
 7    1  0.2732144E-009  0.1169271E+03  0.7561462E-02  0.1248254E+00
         -1   -1    0    0    0  501 -0.00000000000E+00  0.00000000000E+00  0.49480123364E+03  0.49480123364E+03  0.00000000000E+00 0.  1.
          1   -1    0    0  501    0  0.00000000000E+00 -0.00000000000E+00 -0.48209614730E+02  0.48209614730E+02  0.00000000000E+00 0. -1.
         25    2    1    2    0    0  0.80896541692E+02 -0.73894500494E+02  0.25461011363E+03  0.30412274181E+03  0.12513866094E+03 0.  0.
          5    1    3    3  502    0  0.35199181484E+01 -0.85771507356E+01 -0.13842662548E+02  0.17176991731E+02  0.41800000000E+01 0.  1.
         -5    1    3    3    0  502  0.77376623544E+02 -0.65317349758E+02  0.26845277618E+03  0.28694575008E+03  0.41800000000E+01 0.  1.
        -11    1    1    2    0    0  0.70921020097E+01  0.14611781887E+02  0.90929357284E+02  0.92368555780E+02  0.00000000000E+00 0.  1.
         11    1    1    2    0    0 -0.87988643702E+02  0.59282718607E+02  0.10105214799E+03  0.14651955077E+03  0.00000000000E+00 0. -1.
</event>
<event>
 7    1  0.2732144E-009  0.1166217E+03  0.7561462E-02  0.1248777E+00
          1   -1    0    0  501    0  0.00000000000E+00  0.00000000000E+00  0.35160128766E+03  0.35160128766E+03  0.00000000000E+00 0. -1.
         -1   -1    0    0    0  501 -0.00000000000E+00 -0.00000000000E+00 -0.42890870782E+02  0.42890870782E+02  0.00000000000E+00 0.  1.
         25    2    1    2    0    0  0.10457051752E+02 -0.45712242450E+02  0.23315931940E+03  0.26871225165E+03  0.12507616449E+03 0.  0.
          5    1    3    3  502    0 -0.34455121882E+02  0.29643607605E+02  0.84960587189E+02  0.96445179616E+02  0.41800000000E+01 0.  1.
         -5    1    3    3    0  502  0.44912173634E+02 -0.75355850055E+02  0.14819873221E+03  0.17226707203E+03  0.41800000000E+01 0.  1.
        -11    1    1    2    0    0  0.28385553493E+02 -0.11497335268E+02  0.30667023657E+02  0.43340451144E+02  0.00000000000E+00 0.  1.
         11    1    1    2    0    0 -0.38842605245E+02  0.57209577718E+02  0.44884073823E+02  0.82439455650E+02  0.00000000000E+00 0. -1.
</event>
<event>
 7    1  0.2732144E-009  0.7221946E+02  0.7561462E-02  0.1352704E+00
          2   -1    0    0  501    0  0.00000000000E+00  0.00000000000E+00  0.44107100206E+03  0.44107100206E+03  0.00000000000E+00 0. -1.
         -2   -1    0    0    0  501 -0.00000000000E+00 -0.00000000000E+00 -0.28284256663E+02  0.28284256663E+02  0.00000000000E+00 0.  1.
         25    2    1    2    0    0 -0.19425787462E+02 -0.65554098820E+01  0.27117863410E+03  0.29934134323E+03  0.12508818313E+03 0.  0.
          5    1    3    3  502    0 -0.45222200677E+02 -0.15159608502E+02  0.26730272852E+03  0.27155677535E+03  0.41800000000E+01 0.  1.
         -5    1    3    3    0  502  0.25796413214E+02  0.86041986203E+01  0.38759055827E+01  0.27784567888E+02  0.41800000000E+01 0.  1.
        -11    1    1    2    0    0  0.31439662164E+02 -0.21795958419E+02  0.13248691433E+03  0.13789959619E+03  0.00000000000E+00 0. -1.
         11    1    1    2    0    0 -0.12013874702E+02  0.28351368301E+02  0.91211969662E+01  0.32114319298E+02  0.00000000000E+00 0.  1.
</event>
<event>
 7    1  0.2762473E-009  0.8334972E+02  0.7561462E-02  0.1319805E+00
          1   -1    0    0  501    0  0.00000000000E+00  0.00000000000E+00  0.74458494896E+02  0.74458494896E+02  0.00000000000E+00 0. -1.
         -1   -1    0    0    0  501 -0.00000000000E+00 -0.00000000000E+00 -0.19705337517E+03  0.19705337517E+03  0.00000000000E+00 0.  1.
         25    2    1    2    0    0 -0.23500543577E+02 -0.37409672993E+02 -0.34038539239E+02  0.13695849356E+03  0.12508895883E+03 0.  0.
          5    1    3    3  502    0  0.28102428154E+02  0.48243783815E+01  0.31967098761E+02  0.43039387753E+02  0.41800000000E+01 0.  1.
         -5    1    3    3    0  502 -0.51602971732E+02 -0.42234051375E+02 -0.66005638000E+02  0.93919105803E+02  0.41800000000E+01 0.  1.
        -11    1    1    2    0    0  0.36610098049E+02  0.43293923940E+02 -0.13699181365E+02  0.58329501106E+02  0.00000000000E+00 0. -1.
         11    1    1    2    0    0 -0.13109554471E+02 -0.58842509468E+01 -0.74857159674E+02  0.76223875407E+02  0.00000000000E+00 0.  1.
</event>
<event>
 7    1  0.2732144E-009  0.7798852E+02  0.7561462E-02  0.1334859E+00
          2   -1    0    0  501    0  0.00000000000E+00  0.00000000000E+00  0.10881727046E+04  0.10881727046E+04  0.00000000000E+00 0. -1.
         -2   -1    0    0    0  501 -0.00000000000E+00 -0.00000000000E+00 -0.14713136387E+02  0.14713136387E+02  0.00000000000E+00 0.  1.
         25    2    1    2    0    0  0.51787281680E+02  0.22741222264E+01  0.77351328581E+03  0.78527573389E+03  0.12509228887E+03 0.  0.
          5    1    3    3  502    0  0.15771442750E+02  0.13698777678E+02  0.71610556987E+03  0.71642239951E+03  0.41800000000E+01 0.  1.
         -5    1    3    3    0  502  0.36015838930E+02 -0.11424655451E+02  0.57407715935E+02  0.68853334377E+02  0.41800000000E+01 0.  1.
        -11    1    1    2    0    0 -0.31793401872E+02 -0.41708552534E+02  0.22088739392E+03  0.22702789377E+03  0.00000000000E+00 0. -1.
         11    1    1    2    0    0 -0.19993879808E+02  0.39434430308E+02  0.79058888500E+02  0.90582213344E+02  0.00000000000E+00 0.  1.
</event>
<event>
 7    1  0.2732144E-009  0.1240044E+03  0.7561462E-02  0.1236634E+00
         -1   -1    0    0    0  501 -0.00000000000E+00  0.00000000000E+00  0.19320564252E+02  0.19320564252E+02  0.00000000000E+00 0.  1.
          1   -1    0    0  501    0  0.00000000000E+00 -0.00000000000E+00 -0.11259697240E+04  0.11259697240E+04  0.00000000000E+00 0. -1.
         25    2    1    2    0    0 -0.73346636476E+02 -0.30415729242E+02 -0.74696065626E+03  0.76151254989E+03  0.12508515490E+03 0.  0.
          5    1    3    3  502    0 -0.20320322902E+02  0.34804516081E+02 -0.84333450517E+02  0.93562135176E+02  0.41800000000E+01 0. -1.
         -5    1    3    3    0  502 -0.53026313573E+02 -0.65220245323E+02 -0.66262720574E+03  0.66795041472E+03  0.41800000000E+01 0. -1.
        -11    1    1    2    0    0  0.64309947415E+02 -0.23645238599E+02 -0.12271814108E+03  0.14055108963E+03  0.00000000000E+00 0. -1.
         11    1    1    2    0    0  0.90366890611E+01  0.54060967841E+02 -0.23697036237E+03  0.24322664869E+03  0.00000000000E+00 0.  1.
</event>
<event>
 7    1  0.2732144E-009  0.7523568E+02  0.7561462E-02  0.1343143E+00
         -1   -1    0    0    0  501 -0.00000000000E+00  0.00000000000E+00  0.29268099594E+03  0.29268099594E+03  0.00000000000E+00 0.  1.
          1   -1    0    0  501    0  0.00000000000E+00 -0.00000000000E+00 -0.54512043687E+02  0.54512043687E+02  0.00000000000E+00 0. -1.
         25    2    1    2    0    0  0.33251234174E+02  0.36669919339E+02  0.18994511846E+03  0.23275951336E+03  0.12509002949E+03 0.  0.
          5    1    3    3  502    0 -0.75219078122E+01  0.22095174911E+02  0.18770927500E+03  0.18920100468E+03  0.41800000000E+01 0.  1.
         -5    1    3    3    0  502  0.40773141986E+02  0.14574744429E+02  0.22358434568E+01  0.43558508681E+02  0.41800000000E+01 0.  1.
        -11    1    1    2    0    0  0.11055137436E+02 -0.37345022491E+02  0.57220987079E+02  0.69217831018E+02  0.00000000000E+00 0.  1.
         11    1    1    2    0    0 -0.44306371610E+02  0.67510315140E+00 -0.89971532817E+01  0.45215695247E+02  0.00000000000E+00 0. -1.
</event>
<event>
 7    1  0.2732144E-009  0.1906787E+03  0.7561462E-02  0.1157851E+00
         -1   -1    0    0    0  501 -0.00000000000E+00  0.00000000000E+00  0.53148164879E+02  0.53148164879E+02  0.00000000000E+00 0.  1.
          1   -1    0    0  501    0  0.00000000000E+00 -0.00000000000E+00 -0.10536349132E+04  0.10536349132E+04  0.00000000000E+00 0. -1.
         25    2    1    2    0    0  0.16963476725E+03  0.53816342620E+02 -0.78226743931E+03  0.81194960654E+03  0.12509062299E+03 0.  0.
          5    1    3    3  502    0  0.13075392836E+03  0.21811850484E+02 -0.71824646435E+03  0.73038880232E+03  0.41800000000E+01 0.  1.
         -5    1    3    3    0  502  0.38880838897E+02  0.32004492136E+02 -0.64020974960E+02  0.81560804220E+02  0.41800000000E+01 0.  1.
        -11    1    1    2    0    0 -0.13335041140E+03 -0.69165303009E-01 -0.14335483520E+03  0.19578801235E+03  0.00000000000E+00 0.  1.
         11    1    1    2    0    0 -0.36284355856E+02 -0.53747177317E+02 -0.74864473852E+02  0.99045459232E+02  0.00000000000E+00 0. -1.
</event>
<event>
 7    1  0.2732144E-009  0.1152077E+03  0.7561462E-02  0.1251219E+00
          2   -1    0    0  501    0  0.00000000000E+00  0.00000000000E+00  0.26417043506E+03  0.26417043506E+03  0.00000000000E+00 0. -1.
         -2   -1    0    0    0  501 -0.00000000000E+00 -0.00000000000E+00 -0.69077861398E+02  0.69077861398E+02  0.00000000000E+00 0.  1.
         25    2    1    2    0    0  0.50806600406E+02 -0.56618986088E+02  0.79940487353E+02  0.16680886784E+03  0.12509075362E+03 0.  0.
          5    1    3    3  502    0 -0.32243585056E+02 -0.48241592096E+02  0.12709379323E+02  0.59547466008E+02  0.41800000000E+01 0. -1.
         -5    1    3    3    0  502  0.83050185462E+02 -0.83773939924E+01  0.67231108030E+02  0.10726140183E+03  0.41800000000E+01 0. -1.
        -11    1    1    2    0    0 -0.39745757505E+02  0.64020671796E+02  0.12761742750E+03  0.14820451903E+03  0.00000000000E+00 0. -1.
         11    1    1    2    0    0 -0.11060842902E+02 -0.74016857074E+01 -0.12465341192E+02  0.18234909598E+02  0.00000000000E+00 0.  1.
</event>
<event>
 7    1  0.2732144E-009  0.1908457E+03  0.7561462E-02  0.1157701E+00
          1   -1    0    0  501    0  0.00000000000E+00  0.00000000000E+00  0.34207521803E+03  0.34207521803E+03  0.00000000000E+00 0. -1.
         -1   -1    0    0    0  501 -0.00000000000E+00 -0.00000000000E+00 -0.14849230520E+03  0.14849230520E+03  0.00000000000E+00 0.  1.
         25    2    1    2    0    0  0.51058661219E+02  0.15103876397E+03 -0.24732505653E+02  0.20415556057E+03  0.12509236976E+03 0.  0.
          5    1    3    3  502    0  0.92517741144E+02  0.10904400746E+03 -0.11446569635E+02  0.14352220854E+03  0.41800000000E+01 0.  1.
         -5    1    3    3    0  502 -0.41459079925E+02  0.41994756507E+02 -0.13285936018E+02  0.60633352028E+02  0.41800000000E+01 0.  1.
        -11    1    1    2    0    0  0.22134698237E+02 -0.50208411417E+02  0.36136835909E+02  0.65701600837E+02  0.00000000000E+00 0.  1.
         11    1    1    2    0    0 -0.73193359456E+02 -0.10083035255E+03  0.18217858258E+03  0.22071036182E+03  0.00000000000E+00 0. -1.
</event>
<event>
 7    1  0.3030496E-009  0.1613737E+03  0.7561462E-02  0.1187155E+00
          2   -1    0    0  501    0  0.00000000000E+00  0.00000000000E+00  0.73602859258E+02  0.73602859258E+02  0.00000000000E+00 0. -1.
         -2   -1    0    0    0  501 -0.00000000000E+00 -0.00000000000E+00 -0.51798650079E+03  0.51798650079E+03  0.00000000000E+00 0.  1.
         25    2    1    2    0    0 -0.12195090530E+03 -0.89264053950E+02 -0.14452283703E+03  0.24366735186E+03  0.12508730274E+03 0.  0.
          5    1    3    3  502    0 -0.86168306950E+02 -0.51670820010E+02 -0.16032639546E+03  0.18925347089E+03  0.41800000000E+01 0.  1.
         -5    1    3    3    0  502 -0.35782598347E+02 -0.37593233940E+02  0.15803558432E+02  0.54413880965E+02  0.41800000000E+01 0.  1.
        -11    1    1    2    0    0  0.56504000884E+02  0.88098598910E+02 -0.22706216353E+03  0.25002258168E+03  0.00000000000E+00 0.  1.
         11    1    1    2    0    0  0.65446904413E+02  0.11654550406E+01 -0.72798640973E+02  0.97899426506E+02  0.00000000000E+00 0. -1.
</event>
<event>
 7    1  0.2732144E-009  0.1064686E+03  0.7561462E-02  0.1267253E+00
          2   -1    0    0  501    0  0.00000000000E+00  0.00000000000E+00  0.44300578126E+03  0.44300578126E+03  0.00000000000E+00 0. -1.
         -2   -1    0    0    0  501 -0.00000000000E+00 -0.00000000000E+00 -0.28585646081E+02  0.28585646081E+02  0.00000000000E+00 0.  1.
         25    2    1    2    0    0 -0.30580373406E+02  0.89006119968E+01  0.22308050023E+03  0.25773428895E+03  0.12509066306E+03 0.  0.
          5    1    3    3  502    0 -0.62295761724E+01  0.60740175909E+02  0.16531893132E+03  0.17628385645E+03  0.41800000000E+01 0.  1.
         -5    1    3    3    0  502 -0.24350797233E+02 -0.51839563913E+02  0.57761568903E+02  0.81450432502E+02  0.41800000000E+01 0.  1.
        -11    1    1    2    0    0 -0.45685513624E+01 -0.44234733458E+02  0.73417889957E+02  0.85835714428E+02  0.00000000000E+00 0. -1.
         11    1    1    2    0    0  0.35148924768E+02  0.35334121462E+02  0.11792174499E+03  0.12802142397E+03  0.00000000000E+00 0.  1.
</event>
<event>
 7    1  0.2732144E-009  0.1203406E+03  0.7561462E-02  0.1242536E+00
          1   -1    0    0  501    0  0.00000000000E+00  0.00000000000E+00  0.49310916730E+02  0.49310916730E+02  0.00000000000E+00 0. -1.
         -1   -1    0    0    0  501 -0.00000000000E+00 -0.00000000000E+00 -0.34241428528E+03  0.34241428528E+03  0.00000000000E+00 0.  1.
         25    2    1    2    0    0 -0.11056449263E+02  0.65480151500E+02 -0.12188328695E+03  0.18684480489E+03  0.12508217364E+03 0.  0.
          5    1    3    3  502    0 -0.21191252044E+02 -0.27423739826E+02 -0.73850912382E+02  0.81685741283E+02  0.41800000000E+01 0.  1.
         -5    1    3    3    0  502  0.10134802781E+02  0.92903891326E+02 -0.48032374570E+02  0.10515906360E+03  0.41800000000E+01 0.  1.
        -11    1    1    2    0    0 -0.38003433994E+02 -0.45419057501E+02 -0.97679811562E+02  0.11423001955E+03  0.00000000000E+00 0.  1.
         11    1    1    2    0    0  0.49059883257E+02 -0.20061093999E+02 -0.73540270037E+02  0.90650377576E+02  0.00000000000E+00 0. -1.
</event>
<event>
 7    1  0.2732144E-009  0.9292113E+02  0.7561462E-02  0.1295928E+00
         -1   -1    0    0    0  501 -0.00000000000E+00  0.00000000000E+00  0.17439242109E+02  0.17439242109E+02  0.00000000000E+00 0.  1.
          1   -1    0    0  501    0  0.00000000000E+00 -0.00000000000E+00 -0.88718779645E+03  0.88718779645E+03  0.00000000000E+00 0. -1.
         25    2    1    2    0    0 -0.44155327853E+02 -0.43469847986E+02 -0.54811560406E+03  0.56561328687E+03  0.12509338197E+03 0.  0.
          5    1    3    3  502    0 -0.50960683054E+02 -0.20802383618E+02 -0.81828148765E+02  0.98706882799E+02  0.41800000000E+01 0. -1.
         -5    1    3    3    0  502  0.68053552007E+01 -0.22667464367E+02 -0.46628745529E+03  0.46690640407E+03  0.41800000000E+01 0. -1.
        -11    1    1    2    0    0 -0.23186457154E+02 -0.48949036923E+01 -0.86694269682E+02  0.89874736568E+02  0.00000000000E+00 0.  1.
         11    1    1    2    0    0  0.67341785007E+02  0.48364751678E+02 -0.23493868060E+03  0.24913901512E+03  0.00000000000E+00 0. -1.
</event>
<event>
 6    1  0.2732144E-009  0.1384946E+03  0.7561462E-02  0.1215369E+00
         -1   -1    0    0    0  501 -0.00000000000E+00  0.00000000000E+00  0.31392450420E+03  0.31392450420E+03  0.00000000000E+00 0.  1.
          1   -1    0    0  501    0  0.00000000000E+00 -0.00000000000E+00 -0.12984778930E+03  0.12984778930E+03  0.00000000000E+00 0. -1.
          5    1    1    2  502    0 -0.73895675802E+02  0.87273144418E+02 -0.51945412627E+02  0.12567008766E+03  0.41800000000E+01 0.  1.
         -5    1    1    2    0  502  0.43610171165E+02  0.13330177313E+02  0.10935120845E-01  0.45793156430E+02  0.41800000000E+01 0.  1.
        -11    1    1    2    0    0 -0.14282358464E+02 -0.18822610191E+02  0.12586814904E+03  0.12806665202E+03  0.00000000000E+00 0.  1.
         11    1    1    2    0    0  0.44567863100E+02 -0.81780711540E+02  0.11014304338E+03  0.14424239739E+03  0.00000000000E+00 0. -1.
</event>
<event>
 7    1  0.2732144E-009  0.9464183E+02  0.7561462E-02  0.1291985E+00
         -1   -1    0    0    0  501 -0.00000000000E+00  0.00000000000E+00  0.14427252421E+03  0.14427252421E+03  0.00000000000E+00 0.  1.
          1   -1    0    0  501    0  0.00000000000E+00 -0.00000000000E+00 -0.90680650677E+02  0.90680650677E+02  0.00000000000E+00 0. -1.
         25    2    1    2    0    0 -0.16792881152E+02  0.19682345583E+02  0.49930449704E+02  0.13715092581E+03  0.12509169061E+03 0.  0.
          5    1    3    3  502    0 -0.52484164953E+02  0.25062403995E+02  0.73514331562E+02  0.93832515738E+02  0.41800000000E+01 0.  1.
         -5    1    3    3    0  502  0.35691283801E+02 -0.53800584122E+01 -0.23583881858E+02  0.43318410074E+02  0.41800000000E+01 0.  1.
        -11    1    1    2    0    0  0.13270022409E+02  0.36245412668E+02 -0.10502101189E+02  0.40001469518E+02  0.00000000000E+00 0. -1.
         11    1    1    2    0    0  0.35228587431E+01 -0.55927758251E+02  0.14163525023E+02  0.57800779561E+02  0.00000000000E+00 0.  1.
</event>
<event>
 7    1  0.2732144E-009  0.1099779E+03  0.7561462E-02  0.1260611E+00
         -2   -1    0    0    0  501 -0.00000000000E+00  0.00000000000E+00  0.71654423938E+02  0.71654423938E+02  0.00000000000E+00 0.  1.
          2   -1    0    0  501    0  0.00000000000E+00 -0.00000000000E+00 -0.26404153428E+03  0.26404153428E+03  0.00000000000E+00 0. -1.
         25    2    1    2    0    0 -0.87259407856E+01 -0.18652946640E+02 -0.20388024680E+03  0.24008049105E+03  0.12508961862E+03 0.  0.
          5    1    3    3  502    0 -0.17028734932E+02  0.51674588143E+02 -0.72128792369E+02  0.90444878029E+02  0.41800000000E+01 0.  1.
         -5    1    3    3    0  502  0.83027941462E+01 -0.70327534783E+02 -0.13175145443E+03  0.14963561302E+03  0.41800000000E+01 0.  1.
        -11    1    1    2    0    0 -0.41613060090E+02  0.29528029865E+01  0.98225764619E+01  0.42858474354E+02  0.00000000000E+00 0.  1.
         11    1    1    2    0    0  0.50339000876E+02  0.15700143654E+02  0.16705599974E+01  0.52756992813E+02  0.00000000000E+00 0. -1.
</event>
<event>
 7    1  0.2732144E-009  0.1165102E+03  0.7561462E-02  0.1248968E+00
         -1   -1    0    0    0  501 -0.00000000000E+00  0.00000000000E+00  0.87090705799E+02  0.87090705799E+02  0.00000000000E+00 0.  1.
          1   -1    0    0  501    0  0.00000000000E+00 -0.00000000000E+00 -0.16852374288E+03  0.16852374288E+03  0.00000000000E+00 0. -1.
         25    2    1    2    0    0  0.55551605993E+02  0.16065311213E+02 -0.33431955305E+02  0.14181637590E+03  0.12510041440E+03 0.  0.
          5    1    3    3  502    0 -0.27358650351E+01  0.62783582714E+02 -0.16512509000E+02  0.65110664022E+02  0.41800000000E+01 0.  1.
         -5    1    3    3    0  502  0.58287471028E+02 -0.46718271501E+02 -0.16919446306E+02  0.76705711874E+02  0.41800000000E+01 0.  1.
        -11    1    1    2    0    0  0.67379550184E+01  0.21466375878E+02  0.59211064962E+01  0.23265099039E+02  0.00000000000E+00 0. -1.
         11    1    1    2    0    0 -0.62289561011E+02 -0.37531687091E+02 -0.53922188271E+02  0.90532973743E+02  0.00000000000E+00 0.  1.
</event>
<event>
 7    1  0.2732144E-009  0.1805722E+03  0.7561462E-02  0.1167250E+00
         -1   -1    0    0    0  501 -0.00000000000E+00  0.00000000000E+00  0.24628511343E+03  0.24628511343E+03  0.00000000000E+00 0.  1.
          1   -1    0    0  501    0  0.00000000000E+00 -0.00000000000E+00 -0.14202690808E+03  0.14202690808E+03  0.00000000000E+00 0. -1.
         25    2    1    2    0    0  0.14843660392E+03 -0.45782604418E+01  0.90951878492E+02  0.21441527961E+03  0.12508909655E+03 0.  0.
          5    1    3    3  502    0  0.15509643464E+03 -0.33012147554E+02  0.94595234143E+02  0.18469010977E+03  0.41800000000E+01 0. -1.
         -5    1    3    3    0  502 -0.66598307175E+01  0.28433887112E+02 -0.36433556516E+01  0.29725169838E+02  0.41800000000E+01 0. -1.
        -11    1    1    2    0    0 -0.13451657291E+03  0.35486988455E+02  0.15191356535E+02  0.13994574681E+03  0.00000000000E+00 0.  1.
         11    1    1    2    0    0 -0.13920031014E+02 -0.30908728013E+02 -0.18850296833E+01  0.33950995091E+02  0.00000000000E+00 0. -1.
</event>
<event>
 6    1  0.2732144E-009  0.1497809E+03  0.7561462E-02  0.1200743E+00
         -1   -1    0    0    0  501 -0.00000000000E+00  0.00000000000E+00  0.11575472475E+03  0.11575472475E+03  0.00000000000E+00 0.  1.
          1   -1    0    0  501    0  0.00000000000E+00 -0.00000000000E+00 -0.31694717594E+03  0.31694717594E+03  0.00000000000E+00 0. -1.
          5    1    1    2  502    0  0.26072593096E+02  0.62445753218E+02 -0.47885174500E+02  0.83004304363E+02  0.41800000000E+01 0. -1.
         -5    1    1    2    0  502 -0.59657236725E+02  0.63042597138E+02  0.43851939810E+02  0.97333550088E+02  0.41800000000E+01 0. -1.
        -11    1    1    2    0    0  0.52897073108E+02 -0.87361839060E+02 -0.86846818637E+02  0.13406178119E+03  0.00000000000E+00 0.  1.
         11    1    1    2    0    0 -0.19312429479E+02 -0.38126511296E+02 -0.11031239786E+03  0.11830226505E+03  0.00000000000E+00 0. -1.
</event>
<event>
 7    1  0.2732144E-009  0.1067993E+03  0.7561462E-02  0.1266614E+00
         -3   -1    0    0    0  501 -0.00000000000E+00  0.00000000000E+00  0.12963928200E+03  0.12963928200E+03  0.00000000000E+00 0.  1.
          3   -1    0    0  501    0  0.00000000000E+00 -0.00000000000E+00 -0.11954438008E+03  0.11954438008E+03  0.00000000000E+00 0. -1.
         25    2    1    2    0    0  0.11838293911E+02  0.60811689211E+02  0.12958109156E+02  0.14018843424E+03  0.12508668097E+03 0.  0.
          5    1    3    3  502    0  0.66592351327E+02  0.41575877542E+02  0.21194342058E+02  0.81423383521E+02  0.41800000000E+01 0.  1.
         -5    1    3    3    0  502 -0.54754057416E+02  0.19235811669E+02 -0.82362329015E+01  0.58765050723E+02  0.41800000000E+01 0.  1.
        -11    1    1    2    0    0  0.15983157410E+02 -0.99609333670E+01  0.35010674591E+02  0.39754607904E+02  0.00000000000E+00 0.  1.
         11    1    1    2    0    0 -0.27821451321E+02 -0.50850755844E+02 -0.37873881828E+02  0.69240619930E+02  0.00000000000E+00 0. -1.
</event>
<event>
 7    1  0.2732144E-009  0.2019575E+03  0.7561462E-02  0.1148098E+00
         -1   -1    0    0    0  501 -0.00000000000E+00  0.00000000000E+00  0.33043297337E+03  0.33043297337E+03  0.00000000000E+00 0.  1.
          1   -1    0    0  501    0  0.00000000000E+00 -0.00000000000E+00 -0.24155324465E+03  0.24155324465E+03  0.00000000000E+00 0. -1.
         25    2    1    2    0    0  0.61249514274E+02 -0.17874951924E+03  0.22743888041E+03  0.32106388091E+03  0.12510266855E+03 0.  0.
          5    1    3    3  502    0  0.69820274670E+02 -0.16892652597E+03  0.13413592504E+03  0.22676190315E+03  0.41800000000E+01 0.  1.
         -5    1    3    3    0  502 -0.85707603959E+01 -0.98229932702E+01  0.93302955367E+02  0.94301977767E+02  0.41800000000E+01 0.  1.
        -11    1    1    2    0    0 -0.82539030226E+02  0.12738293872E+03 -0.86245201507E+02  0.17457760272E+03  0.00000000000E+00 0.  1.
         11    1    1    2    0    0  0.21289515952E+02  0.51366580520E+02 -0.52313950183E+02  0.76344734380E+02  0.00000000000E+00 0. -1.
</event>
<event>
 7    1  0.2732144E-009  0.9403330E+02  0.7561462E-02  0.1293368E+00
         -1   -1    0    0    0  501 -0.00000000000E+00  0.00000000000E+00  0.52786838700E+02  0.52786838700E+02  0.00000000000E+00 0.  1.
          1   -1    0    0  501    0  0.00000000000E+00 -0.00000000000E+00 -0.19070036603E+03  0.19070036603E+03  0.00000000000E+00 0. -1.
         25    2    1    2    0    0  0.33282278879E+02  0.22312957521E+02 -0.75555540551E+02  0.15152730733E+03  0.12508519895E+03 0.  0.
          5    1    3    3  502    0  0.27927644719E+02 -0.50242677394E+02 -0.24931675412E+02  0.62796025433E+02  0.41800000000E+01 0.  1.
         -5    1    3    3    0  502  0.53546341594E+01  0.72555634916E+02 -0.50623865139E+02  0.88731281894E+02  0.41800000000E+01 0.  1.
        -11    1    1    2    0    0 -0.17131975830E+02  0.11123540758E+02 -0.12627097729E+01  0.20465390073E+02  0.00000000000E+00 0.  1.
         11    1    1    2    0    0 -0.16150303048E+02 -0.33436498280E+02 -0.61095277006E+02  0.71494507329E+02  0.00000000000E+00 0. -1.
</event>
<event>
 7    1  0.2732144E-009  0.1691347E+03  0.7561462E-02  0.1178753E+00
          2   -1    0    0  501    0  0.00000000000E+00  0.00000000000E+00  0.54015264622E+02  0.54015264622E+02  0.00000000000E+00 0. -1.
         -2   -1    0    0    0  501 -0.00000000000E+00 -0.00000000000E+00 -0.61951791348E+03  0.61951791348E+03  0.00000000000E+00 0.  1.
         25    2    1    2    0    0 -0.39675831980E+02  0.13681484619E+03 -0.23750042288E+03  0.30388514428E+03  0.12508899338E+03 0.  0.
          5    1    3    3  502    0 -0.32268659927E+02  0.16082257079E+03 -0.20730604005E+03  0.26438311658E+03  0.41800000000E+01 0.  1.
         -5    1    3    3    0  502 -0.74071720530E+01 -0.24007724599E+02 -0.30194382830E+02  0.39502027704E+02  0.41800000000E+01 0.  1.
        -11    1    1    2    0    0  0.83650427567E+01 -0.10017054657E+03 -0.12197054773E+03  0.15805355692E+03  0.00000000000E+00 0. -1.
         11    1    1    2    0    0  0.31310789224E+02 -0.36644299626E+02 -0.20603167824E+03  0.21159447690E+03  0.00000000000E+00 0.  1.
</event>
<event>
 7    1  0.2732144E-009  0.9663581E+02  0.7561462E-02  0.1287534E+00
         -2   -1    0    0    0  501 -0.00000000000E+00  0.00000000000E+00  0.46833558159E+02  0.46833558159E+02  0.00000000000E+00 0.  1.
          2   -1    0    0  501    0  0.00000000000E+00 -0.00000000000E+00 -0.58455990233E+03  0.58455990233E+03  0.00000000000E+00 0. -1.
         25    2    1    2    0    0 -0.13963214030E+02 -0.46263070885E+02 -0.50591612793E+03  0.52338691928E+03  0.12508995046E+03 0.  0.
          5    1    3    3  502    0 -0.15492069049E+02 -0.88134241946E+02 -0.38709277028E+03  0.39732346270E+03  0.41800000000E+01 0.  1.
         -5    1    3    3    0  502  0.15288550187E+01  0.41871171061E+02 -0.11882335764E+03  0.12606345658E+03  0.41800000000E+01 0.  1.
        -11    1    1    2    0    0 -0.13252520026E+02  0.12526143230E+02  0.28440007879E+02  0.33784132362E+02  0.00000000000E+00 0.  1.
         11    1    1    2    0    0  0.27215734056E+02  0.33736927655E+02 -0.60250224127E+02  0.74222408848E+02  0.00000000000E+00 0. -1.
</event>
<event>
 7    1  0.2732144E-009  0.1456506E+03  0.7561462E-02  0.1205922E+00
          1   -1    0    0  501    0  0.00000000000E+00  0.00000000000E+00  0.45798284930E+03  0.45798284930E+03  0.00000000000E+00 0. -1.
         -1   -1    0    0    0  501 -0.00000000000E+00 -0.00000000000E+00 -0.50441675172E+02  0.50441675172E+02  0.00000000000E+00 0.  1.
         25    2    1    2    0    0 -0.10449187576E+02  0.10399803125E+03  0.24461839931E+03  0.29395592784E+03  0.12508856944E+03 0.  0.
          5    1    3    3  502    0 -0.51278168326E+02  0.10059320271E+03  0.13040229046E+03  0.17254179997E+03  0.41800000000E+01 0. -1.
         -5    1    3    3    0  502  0.40828980750E+02  0.34048285433E+01  0.11421610885E+03  0.12141412787E+03  0.41800000000E+01 0. -1.
        -11    1    1    2    0    0  0.44575667085E+02 -0.89631979799E+02  0.13513865934E+03  0.16817651188E+03  0.00000000000E+00 0. -1.
         11    1    1    2    0    0 -0.34126479509E+02 -0.14366051453E+02  0.27784115468E+02  0.46292084749E+02  0.00000000000E+00 0.  1.
</event>
<event>
 7    1  0.2732144E-009  0.2045285E+03  0.7561462E-02  0.1145974E+00
         -3   -1    0    0    0  501 -0.00000000000E+00  0.00000000000E+00  0.96929066598E+03  0.96929066598E+03  0.00000000000E+00 0.  1.
          3   -1    0    0  501    0  0.00000000000E+00 -0.00000000000E+00 -0.54199654904E+02  0.54199654904E+02  0.00000000000E+00 0. -1.
         25    2    1    2    0    0  0.14990495114E+03  0.12208477535E+03  0.34438826595E+03  0.41427937114E+03  0.12509169791E+03 0.  0.
          5    1    3    3  502    0  0.35213757837E+02  0.50644056469E+02  0.23611356836E+02  0.66180040559E+02  0.41800000000E+01 0. -1.
         -5    1    3    3    0  502  0.11469119330E+03  0.71440718880E+02  0.32077690911E+03  0.34809933059E+03  0.41800000000E+01 0. -1.
        -11    1    1    2    0    0 -0.10028266657E+03 -0.12740685911E+03  0.40839412229E+03  0.43940286763E+03  0.00000000000E+00 0.  1.
         11    1    1    2    0    0 -0.49622284570E+02  0.53220837635E+01  0.16230862283E+03  0.16980808210E+03  0.00000000000E+00 0. -1.
</event>
<event>
 7    1  0.2732144E-009  0.9618964E+02  0.7561462E-02  0.1288519E+00
          1   -1    0    0  501    0  0.00000000000E+00  0.00000000000E+00  0.13864313645E+03  0.13864313645E+03  0.00000000000E+00 0. -1.
         -1   -1    0    0    0  501 -0.00000000000E+00 -0.00000000000E+00 -0.10479504315E+03  0.10479504315E+03  0.00000000000E+00 0.  1.
         25    2    1    2    0    0 -0.27557087759E+02 -0.48385428246E+02  0.75403923574E+01  0.13713542783E+03  0.12509486519E+03 0.  0.
          5    1    3    3  502    0  0.33602838864E+02 -0.48606885343E+02  0.36242233185E+02  0.69446036235E+02  0.41800000000E+01 0. -1.
         -5    1    3    3    0  502 -0.61159926623E+02  0.22145709767E+00 -0.28701840827E+02  0.67689391596E+02  0.41800000000E+01 0. -1.
        -11    1    1    2    0    0 -0.12173597040E+02  0.18394593136E+02 -0.25998597885E+02  0.34095228603E+02  0.00000000000E+00 0.  1.
         11    1    1    2    0    0  0.39730684799E+02  0.29990835109E+02  0.52306298821E+02  0.72207523164E+02  0.00000000000E+00 0. -1.
</event>
<event>
 7    1  0.2732144E-009  0.1471052E+03  0.7561462E-02  0.1204076E+00
          2   -1    0    0  501    0  0.00000000000E+00  0.00000000000E+00  0.70410842217E+02  0.70410842217E+02  0.00000000000E+00 0. -1.
         -2   -1    0    0    0  501 -0.00000000000E+00 -0.00000000000E+00 -0.58110206893E+03  0.58110206893E+03  0.00000000000E+00 0.  1.
         25    2    1    2    0    0 -0.74368016000E+02  0.78568236414E+02 -0.54701841594E+02  0.17419476752E+03  0.12509179022E+03 0.  0.
          5    1    3    3  502    0 -0.79806549350E+02  0.10568805654E+03 -0.27803212167E+02  0.13538663753E+03  0.41800000000E+01 0. -1.
         -5    1    3    3    0  502  0.54385333499E+01 -0.27119820124E+02 -0.26898629427E+02  0.38808129994E+02  0.41800000000E+01 0. -1.
        -11    1    1    2    0    0  0.82630181855E+02 -0.35587544765E+02 -0.37061446325E+03  0.38137815966E+03  0.00000000000E+00 0.  1.
         11    1    1    2    0    0 -0.82621658544E+01 -0.42980691649E+02 -0.85374921864E+02  0.95939983961E+02  0.00000000000E+00 0. -1.
</event>
<event>
 7    1  0.2732144E-009  0.1475111E+03  0.7561462E-02  0.1203565E+00
         -2   -1    0    0    0  501 -0.00000000000E+00  0.00000000000E+00  0.66417737383E+02  0.66417737383E+02  0.00000000000E+00 0.  1.
          2   -1    0    0  501    0  0.00000000000E+00 -0.00000000000E+00 -0.52411493248E+03  0.52411493248E+03  0.00000000000E+00 0. -1.
         25    2    1    2    0    0 -0.64537322174E+02 -0.10354674969E+03 -0.37932884164E+03  0.41764246057E+03  0.12509140437E+03 0.  0.
          5    1    3    3  502    0 -0.65038964380E+02 -0.11626348373E+03 -0.38146332618E+03  0.40407797039E+03  0.41800000000E+01 0. -1.
         -5    1    3    3    0  502  0.50164220628E+00  0.12716734044E+02  0.21344845347E+01  0.13564490181E+02  0.41800000000E+01 0. -1.
        -11    1    1    2    0    0  0.68989081372E+02  0.30957169864E+02 -0.16470527616E+02  0.77389392003E+02  0.00000000000E+00 0.  1.
         11    1    1    2    0    0 -0.44517591986E+01  0.72589579825E+02 -0.61897825837E+02  0.95500817287E+02  0.00000000000E+00 0. -1.
</event>
<event>
 7    1  0.2732144E-009  0.9340216E+02  0.7561462E-02  0.1294816E+00
         -2   -1    0    0    0  501 -0.00000000000E+00  0.00000000000E+00  0.18005187822E+03  0.18005187822E+03  0.00000000000E+00 0.  1.
          2   -1    0    0  501    0  0.00000000000E+00 -0.00000000000E+00 -0.77357009687E+02  0.77357009687E+02  0.00000000000E+00 0. -1.
         25    2    1    2    0    0 -0.12928373307E+01 -0.25786005407E+02  0.12265166421E+03  0.17708731049E+03  0.12509954156E+03 0.  0.
          5    1    3    3  502    0  0.34640678070E+02  0.27711585695E+02  0.98551345112E+02  0.10815613058E+03  0.41800000000E+01 0.  1.
         -5    1    3    3    0  502 -0.35933515401E+02 -0.53497591102E+02  0.24100319101E+02  0.68931179909E+02  0.41800000000E+01 0.  1.
        -11    1    1    2    0    0 -0.35949763396E+02  0.10993912754E+02 -0.72803377635E+01  0.38291708291E+02  0.00000000000E+00 0.  1.
         11    1    1    2    0    0  0.37242600727E+02  0.14792092653E+02 -0.12676457913E+02  0.42029869131E+02  0.00000000000E+00 0. -1.
</event>
<event>
 7    1  0.2732144E-009  0.1054102E+03  0.7561462E-02  0.1269314E+00
          1   -1    0    0  501    0  0.00000000000E+00  0.00000000000E+00  0.38245309274E+03  0.38245309274E+03  0.00000000000E+00 0. -1.
         -1   -1    0    0    0  501 -0.00000000000E+00 -0.00000000000E+00 -0.52561426680E+02  0.52561426680E+02  0.00000000000E+00 0.  1.
         25    2    1    2    0    0  0.49505217250E+02  0.66986660917E+02  0.12935841177E+03  0.19829016361E+03  0.12508961193E+03 0.  0.
          5    1    3    3  502    0  0.35959767401E+02  0.30437166312E+02 -0.14274086516E+02  0.49403926063E+02  0.41800000000E+01 0.  1.
         -5    1    3    3    0  502  0.13545449849E+02  0.36549494605E+02  0.14363249829E+03  0.14888623755E+03  0.41800000000E+01 0.  1.
        -11    1    1    2    0    0 -0.57378331460E+02 -0.51072260309E+00  0.11076018778E+03  0.12474114379E+03  0.00000000000E+00 0. -1.
         11    1    1    2    0    0  0.78731142104E+01 -0.66475938314E+02  0.89773066517E+02  0.11198321202E+03  0.00000000000E+00 0.  1.
</event>
<event>
 7    1  0.2732144E-009  0.8109252E+02  0.7561462E-02  0.1325979E+00
          1   -1    0    0  501    0  0.00000000000E+00  0.00000000000E+00  0.55693564829E+02  0.55693564829E+02  0.00000000000E+00 0. -1.
         -1   -1    0    0    0  501 -0.00000000000E+00 -0.00000000000E+00 -0.25742106633E+03  0.25742106633E+03  0.00000000000E+00 0.  1.
         25    2    1    2    0    0 -0.22242012763E+02 -0.50929320231E+00 -0.17663605020E+03  0.21758427839E+03  0.12509059701E+03 0.  0.
          5    1    3    3  502    0 -0.47552505094E+02 -0.29430336052E+02 -0.25539981644E+02  0.61621006834E+02  0.41800000000E+01 0.  1.
         -5    1    3    3    0  502  0.25310492331E+02  0.28921042850E+02 -0.15109606856E+03  0.15596327156E+03  0.41800000000E+01 0.  1.
        -11    1    1    2    0    0 -0.10523007629E+01 -0.29465890274E+02  0.20717718220E+02  0.36035675029E+02  0.00000000000E+00 0. -1.
         11    1    1    2    0    0  0.23294313526E+02  0.29975183476E+02 -0.45809169516E+02  0.59494677735E+02  0.00000000000E+00 0.  1.
</event>
<event>
 7    1  0.2732144E-009  0.9350666E+02  0.7561462E-02  0.1294575E+00
         -2   -1    0    0    0  501 -0.00000000000E+00  0.00000000000E+00  0.11843169242E+04  0.11843169242E+04  0.00000000000E+00 0. -1.
          2   -1    0    0  501    0  0.00000000000E+00 -0.00000000000E+00 -0.32197130218E+02  0.32197130218E+02  0.00000000000E+00 0.  1.
         25    2    1    2    0    0  0.97492933362E+00 -0.87049284715E+01  0.91309277911E+03  0.92166301201E+03  0.12509020013E+03 0.  0.
          5    1    3    3  502    0  0.32055802604E+02  0.14526717221E+02  0.81940543139E+03  0.82017152680E+03  0.41800000000E+01 0. -1.
         -5    1    3    3    0  502 -0.31080873271E+02 -0.23231645693E+02  0.93687347725E+02  0.10149148520E+03  0.41800000000E+01 0. -1.
        -11    1    1    2    0    0 -0.56495042865E+02  0.11027079206E+01  0.79332995118E+01  0.57059995393E+02  0.00000000000E+00 0.  1.
         11    1    1    2    0    0  0.55520113531E+02  0.76022205508E+01  0.23109371532E+03  0.23779104698E+03  0.00000000000E+00 0. -1.
</event>
<event>
 7    1  0.2732144E-009  0.1516151E+03  0.7561462E-02  0.1198502E+00
          1   -1    0    0  501    0  0.00000000000E+00  0.00000000000E+00  0.32286796539E+02  0.32286796539E+02  0.00000000000E+00 0. -1.
         -1   -1    0    0    0  501 -0.00000000000E+00 -0.00000000000E+00 -0.98173230563E+03  0.98173230563E+03  0.00000000000E+00 0.  1.
         25    2    1    2    0    0  0.35963796911E+02 -0.10878180840E+03 -0.26915659727E+03  0.31815211729E+03  0.12509444175E+03 0.  0.
          5    1    3    3  502    0  0.70308998970E+02 -0.42971236059E+02 -0.20105576304E+03  0.21732642434E+03  0.41800000000E+01 0.  1.
         -5    1    3    3    0  502 -0.34345202060E+02 -0.65810572344E+02 -0.68100834225E+02  0.10082569295E+03  0.41800000000E+01 0.  1.
        -11    1    1    2    0    0 -0.49013879512E+02  0.14389773974E+02 -0.24563566832E+03  0.25089102720E+03  0.00000000000E+00 0.  1.
         11    1    1    2    0    0  0.13050082601E+02  0.94392034428E+02 -0.43465324350E+03  0.44497595767E+03  0.00000000000E+00 0. -1.
</event>
<event>
 7    1  0.2732144E-009  0.1050134E+03  0.7561462E-02  0.1270093E+00
         -1   -1    0    0    0  501 -0.00000000000E+00  0.00000000000E+00  0.13343241827E+02  0.13343241827E+02  0.00000000000E+00 0. -1.
          1   -1    0    0  501    0  0.00000000000E+00 -0.00000000000E+00 -0.10503708589E+04  0.10503708589E+04  0.00000000000E+00 0.  1.
         25    2    1    2    0    0 -0.23875225752E+02  0.53395450915E+01 -0.76879108929E+03  0.77928517176E+03  0.12508837998E+03 0.  0.
          5    1    3    3  502    0  0.21300442964E+02 -0.48540673824E+02 -0.42804704805E+03  0.43133705340E+03  0.41800000000E+01 0. -1.
         -5    1    3    3    0  502 -0.45175668716E+02  0.53880218915E+02 -0.34074404124E+03  0.34794811836E+03  0.41800000000E+01 0. -1.
        -11    1    1    2    0    0 -0.31107814180E+02  0.60101783051E+00 -0.15872345029E+03  0.16174421472E+03  0.00000000000E+00 0.  1.
         11    1    1    2    0    0  0.54983039932E+02 -0.59405629220E+01 -0.10951307754E+03  0.12268471429E+03  0.00000000000E+00 0. -1.
</event>
<event>
 7    1  0.2732144E-009  0.1220366E+03  0.7561462E-02  0.1239775E+00
          1   -1    0    0  501    0  0.00000000000E+00  0.00000000000E+00  0.24219861347E+03  0.24219861347E+03  0.00000000000E+00 0. -1.
         -1   -1    0    0    0  501 -0.00000000000E+00 -0.00000000000E+00 -0.91859520519E+02  0.91859520519E+02  0.00000000000E+00 0.  1.
         25    2    1    2    0    0 -0.55974052101E+02 -0.86204194728E+02  0.78454660565E+02  0.17991333293E+03  0.12509762550E+03 0.  0.
          5    1    3    3  502    0 -0.72829715319E+01 -0.46767500689E+02 -0.28846884655E+02  0.55586472719E+02  0.41800000000E+01 0.  1.
         -5    1    3    3    0  502 -0.48691080570E+02 -0.39436694038E+02  0.10730154522E+03  0.12432686021E+03  0.41800000000E+01 0.  1.
        -11    1    1    2    0    0  0.78544292972E+02  0.58006539506E+02  0.38490807937E+02  0.10495478493E+03  0.00000000000E+00 0.  1.
         11    1    1    2    0    0 -0.22570240871E+02  0.28197655221E+02  0.33393624452E+02  0.49190016131E+02  0.00000000000E+00 0. -1.
</event>
<event>
 7    1  0.2732144E-009  0.1325306E+03  0.7561462E-02  0.1223748E+00
          1   -1    0    0  501    0  0.00000000000E+00  0.00000000000E+00  0.72178103477E+03  0.72178103477E+03  0.00000000000E+00 0. -1.
         -1   -1    0    0    0  501 -0.00000000000E+00 -0.00000000000E+00 -0.29270864318E+02  0.29270864318E+02  0.00000000000E+00 0.  1.
         25    2    1    2    0    0 -0.79410680160E+02  0.51635737993E+02  0.42045487408E+03  0.44877822932E+03  0.12508913788E+03 0.  0.
          5    1    3    3  502    0 -0.10339954117E+03  0.59869453218E+02  0.39462585535E+03  0.41233827697E+03  0.41800000000E+01 0. -1.
         -5    1    3    3    0  502  0.23988861012E+02 -0.82337152244E+01  0.25829018727E+02  0.36439952353E+02  0.41800000000E+01 0. -1.
        -11    1    1    2    0    0  0.81525284961E+02 -0.14741785680E+02  0.12019219045E+03  0.14597895389E+03  0.00000000000E+00 0.  1.
         11    1    1    2    0    0 -0.21146048008E+01 -0.36893952313E+02  0.15186310592E+03  0.15629471588E+03  0.00000000000E+00 0. -1.
</event>
<event>
 7    1  0.2732144E-009  0.1062272E+03  0.7561462E-02  0.1267720E+00
         -2   -1    0    0    0  501 -0.00000000000E+00  0.00000000000E+00  0.43429106339E+03  0.43429106339E+03  0.00000000000E+00 0.  1.
          2   -1    0    0  501    0  0.00000000000E+00 -0.00000000000E+00 -0.32440013897E+02  0.32440013897E+02  0.00000000000E+00 0. -1.
         25    2    1    2    0    0 -0.23501765871E+02  0.12432917588E+02  0.30502639071E+03  0.33074810981E+03  0.12508518168E+03 0.  0.
          5    1    3    3  502    0  0.87618568014E+01 -0.51858943717E+02  0.16563314684E+03  0.17383305759E+03  0.41800000000E+01 0. -1.
         -5    1    3    3    0  502 -0.32263622672E+02  0.64291861305E+02  0.13939324386E+03  0.15691505222E+03  0.41800000000E+01 0. -1.
        -11    1    1    2    0    0  0.48510040805E+02  0.14750355964E+02  0.81518200113E+02  0.96000072967E+02  0.00000000000E+00 0.  1.
         11    1    1    2    0    0 -0.25008274934E+02 -0.27183273552E+02  0.15306458670E+02  0.39982894508E+02  0.00000000000E+00 0. -1.
</event>
<event>
 7    1  0.2732144E-009  0.1153964E+03  0.7561462E-02  0.1250891E+00
         -1   -1    0    0    0  501 -0.00000000000E+00  0.00000000000E+00  0.72405032569E+02  0.72405032569E+02  0.00000000000E+00 0.  1.
          1   -1    0    0  501    0  0.00000000000E+00 -0.00000000000E+00 -0.24991236076E+03  0.24991236076E+03  0.00000000000E+00 0. -1.
         25    2    1    2    0    0  0.33068366844E+02 -0.49637385783E+02 -0.16322787686E+03  0.21412085252E+03  0.12508801999E+03 0.  0.
          5    1    3    3  502    0  0.54282703180E+01 -0.81163390100E+02 -0.55818667335E+02  0.98742888525E+02  0.41800000000E+01 0.  1.
         -5    1    3    3    0  502  0.27640096526E+02  0.31526004316E+02 -0.10740920953E+03  0.11537796399E+03  0.41800000000E+01 0.  1.
        -11    1    1    2    0    0 -0.39837404827E+02 -0.14737632741E+02 -0.71768249850E+01  0.43078108814E+02  0.00000000000E+00 0.  1.
         11    1    1    2    0    0  0.67690379828E+01  0.64375018525E+02 -0.71026263502E+01  0.65118432002E+02  0.00000000000E+00 0. -1.
</event>
<event>
 7    1  0.2732144E-009  0.1134045E+03  0.7561462E-02  0.1254392E+00
          2   -1    0    0  501    0  0.00000000000E+00  0.00000000000E+00  0.61373094986E+02  0.61373094986E+02  0.00000000000E+00 0. -1.
         -2   -1    0    0    0  501 -0.00000000000E+00 -0.00000000000E+00 -0.31839159078E+03  0.31839159078E+03  0.00000000000E+00 0.  1.
         25    2    1    2    0    0  0.55203773028E+02 -0.68023199463E+02 -0.12711706367E+03  0.19870007990E+03  0.12509341172E+03 0.  0.
          5    1    3    3  502    0 -0.32867483610E+02 -0.21597798293E+02 -0.78337371902E+02  0.87755071685E+02  0.41800000000E+01 0.  1.
         -5    1    3    3    0  502  0.88071256638E+02 -0.46425401170E+02 -0.48779691771E+02  0.11094500822E+03  0.41800000000E+01 0.  1.
        -11    1    1    2    0    0 -0.23176758130E+02  0.29491013454E+02  0.43578052704E+01  0.37760726407E+02  0.00000000000E+00 0. -1.
         11    1    1    2    0    0 -0.32027014898E+02  0.38532186009E+02 -0.13425923739E+03  0.14330387945E+03  0.00000000000E+00 0.  1.
</event>
<event>
 7    1  0.2732144E-009  0.1864650E+03  0.7561462E-02  0.1161689E+00
         -3   -1    0    0    0  501 -0.00000000000E+00  0.00000000000E+00  0.67298758258E+02  0.67298758258E+02  0.00000000000E+00 0.  1.
          3   -1    0    0  501    0  0.00000000000E+00 -0.00000000000E+00 -0.55958457673E+03  0.55958457673E+03  0.00000000000E+00 0. -1.
         25    2    1    2    0    0 -0.25512132304E+02  0.16095395782E+03 -0.28160639515E+03  0.34857831170E+03  0.12509049591E+03 0.  0.
          5    1    3    3  502    0  0.19946391795E+02  0.15265995631E+03 -0.24539524929E+03  0.28972266321E+03  0.41800000000E+01 0.  1.
         -5    1    3    3    0  502 -0.45458524099E+02  0.82940015096E+01 -0.36211145865E+02  0.58855648490E+02  0.41800000000E+01 0.  1.
        -11    1    1    2    0    0  0.43687107980E+02 -0.12027627400E+03 -0.11208628601E+03  0.17011255393E+03  0.00000000000E+00 0.  1.
         11    1    1    2    0    0 -0.18174975676E+02 -0.40677683818E+02 -0.98593137302E+02  0.10819246935E+03  0.00000000000E+00 0. -1.
</event>
<event>
 7    1  0.2732144E-009  0.1349246E+03  0.7561462E-02  0.1220326E+00
          1   -1    0    0  501    0  0.00000000000E+00  0.00000000000E+00  0.96955784495E+03  0.96955784495E+03  0.00000000000E+00 0. -1.
         -1   -1    0    0    0  501 -0.00000000000E+00 -0.00000000000E+00 -0.25150134705E+02  0.25150134705E+02  0.00000000000E+00 0.  1.
         25    2    1    2    0    0  0.53284075372E+01  0.11244898978E+03  0.45987798958E+03  0.48970214801E+03  0.12508901325E+03 0.  0.
          5    1    3    3  502    0  0.35300142224E+02  0.30933964270E+02  0.33036210322E+03  0.33370586125E+03  0.41800000000E+01 0.  1.
         -5    1    3    3    0  502 -0.29971734686E+02  0.81515025507E+02  0.12951588636E+03  0.15599628676E+03  0.41800000000E+01 0.  1.
        -11    1    1    2    0    0 -0.39699093149E+02 -0.44537671428E+02  0.29086445164E+03  0.29692044625E+03  0.00000000000E+00 0. -1.
         11    1    1    2    0    0  0.34370685612E+02 -0.67911318349E+02  0.19366526903E+03  0.20808538540E+03  0.00000000000E+00 0.  1.
</event>
<event>
 7    1  0.2732144E-009  0.1021218E+03  0.7561462E-02  0.1275896E+00
          1   -1    0    0  501    0  0.00000000000E+00  0.00000000000E+00  0.51473468302E+03  0.51473468302E+03  0.00000000000E+00 0. -1.
         -1   -1    0    0    0  501 -0.00000000000E+00 -0.00000000000E+00 -0.44119057133E+02  0.44119057133E+02  0.00000000000E+00 0.  1.
         25    2    1    2    0    0 -0.78215240328E+01 -0.87338405457E+02  0.36194385012E+03  0.39286157613E+03  0.12509074328E+03 0.  0.
          5    1    3    3  502    0 -0.86316835784E+01  0.11610723775E+02  0.21576900989E+03  0.21629390398E+03  0.41800000000E+01 0. -1.
         -5    1    3    3    0  502  0.81015954560E+00 -0.98949129231E+02  0.14617484023E+03  0.17656767216E+03  0.41800000000E+01 0. -1.
        -11    1    1    2    0    0  0.15066251386E+02  0.58441618269E+02  0.78496418682E+01  0.60860755452E+02  0.00000000000E+00 0.  1.
         11    1    1    2    0    0 -0.72447273534E+01  0.28896787188E+02  0.10082213389E+03  0.10513140856E+03  0.00000000000E+00 0. -1.
</event>
<event>
 7    1  0.2732144E-009  0.1006110E+03  0.7561462E-02  0.1279016E+00
         -2   -1    0    0    0  501 -0.00000000000E+00  0.00000000000E+00  0.49122532369E+02  0.49122532369E+02  0.00000000000E+00 0.  1.
          2   -1    0    0  501    0  0.00000000000E+00 -0.00000000000E+00 -0.28386167244E+03  0.28386167244E+03  0.00000000000E+00 0. -1.
         25    2    1    2    0    0 -0.70056200708E+01  0.14258890070E+02 -0.73374917056E+02  0.14588939441E+03  0.12508973695E+03 0.  0.
          5    1    3    3  502    0  0.41005260301E+02 -0.32662430952E+02 -0.55143575009E+02  0.76200735120E+02  0.41800000000E+01 0.  1.
         -5    1    3    3    0  502 -0.48010880372E+02  0.46921321022E+02 -0.18231342047E+02  0.69688659288E+02  0.41800000000E+01 0.  1.
        -11    1    1    2    0    0 -0.32170423038E+02 -0.25006685410E+02 -0.12861298131E+03  0.13491319207E+03  0.00000000000E+00 0. -1.
         11    1    1    2    0    0  0.39176043108E+02  0.10747795340E+02 -0.32751241706E+02  0.52181618330E+02  0.00000000000E+00 0.  1.
</event>
<event>
 7    1  0.2732144E-009  0.1285990E+03  0.7561462E-02  0.1229549E+00
         -1   -1    0    0    0  501 -0.00000000000E+00  0.00000000000E+00  0.10281985728E+03  0.10281985728E+03  0.00000000000E+00 0.  1.
          1   -1    0    0  501    0  0.00000000000E+00 -0.00000000000E+00 -0.22011782633E+03  0.22011782633E+03  0.00000000000E+00 0. -1.
         25    2    1    2    0    0 -0.62112324902E+02 -0.31280579069E+02 -0.14523445005E+03  0.20390699048E+03  0.12509436341E+03 0.  0.
          5    1    3    3  502    0  0.35920615306E+02  0.61718259437E+01 -0.25728232488E+02  0.44808441017E+02  0.41800000000E+01 0.  1.
         -5    1    3    3    0  502 -0.98032940209E+02 -0.37452405012E+02 -0.11950621756E+03  0.15909854947E+03  0.41800000000E+01 0.  1.
        -11    1    1    2    0    0  0.25995760012E+02 -0.32845609685E+02  0.66161963682E+01  0.42407401106E+02  0.00000000000E+00 0. -1.
         11    1    1    2    0    0  0.36116564890E+02  0.64126188754E+02  0.21320284629E+02  0.76623292021E+02  0.00000000000E+00 0.  1.
</event>
<event>
 7    1  0.2732144E-009  0.1009185E+03  0.7561462E-02  0.1278376E+00
          1   -1    0    0  501    0  0.00000000000E+00  0.00000000000E+00  0.11096685680E+03  0.11096685680E+03  0.00000000000E+00 0. -1.
         -1   -1    0    0    0  501 -0.00000000000E+00 -0.00000000000E+00 -0.19096511192E+03  0.19096511192E+03  0.00000000000E+00 0.  1.
         25    2    1    2    0    0 -0.29741542705E+01  0.69409406682E+02 -0.11181769545E+03  0.18159719654E+03  0.12509130043E+03 0.  0.
          5    1    3    3  502    0  0.24733130032E+01  0.85236357394E+02 -0.13064099900E+03  0.15606375915E+03  0.41800000000E+01 0. -1.
         -5    1    3    3    0  502 -0.54474672737E+01 -0.15826950713E+02  0.18823303546E+02  0.25533437390E+02  0.41800000000E+01 0. -1.
        -11    1    1    2    0    0 -0.27220686851E+02 -0.62592532133E+02  0.49841329134E+02  0.84515968676E+02  0.00000000000E+00 0. -1.
         11    1    1    2    0    0  0.30194841121E+02 -0.68168745490E+01 -0.18021888795E+02  0.35818803507E+02  0.00000000000E+00 0.  1.
</event>
<event>
 7    1  0.2732144E-009  0.9917624E+02  0.7561462E-02  0.1282038E+00
          2   -1    0    0  501    0  0.00000000000E+00  0.00000000000E+00  0.75804015315E+03  0.75804015315E+03  0.00000000000E+00 0. -1.
         -2   -1    0    0    0  501 -0.00000000000E+00 -0.00000000000E+00 -0.17708237494E+02  0.17708237494E+02  0.00000000000E+00 0.  1.
         25    2    1    2    0    0  0.62682692998E+00 -0.30211046262E+02  0.34034669969E+03  0.36386229177E+03  0.12508713423E+03 0.  0.
          5    1    3    3  502    0 -0.42437584881E+02 -0.38285997212E+02  0.29557389301E+03  0.30107833668E+03  0.41800000000E+01 0. -1.
         -5    1    3    3    0  502  0.43064411811E+02  0.80749509493E+01  0.44772806686E+02  0.62783955084E+02  0.41800000000E+01 0. -1.
        -11    1    1    2    0    0 -0.45846237127E+02  0.22817385795E+02  0.24370404764E+03  0.24902645119E+03  0.00000000000E+00 0.  1.
         11    1    1    2    0    0  0.45219410197E+02  0.73936604674E+01  0.15628116833E+03  0.16285964769E+03  0.00000000000E+00 0. -1.
</event>
<event>
 7    1  0.2732144E-009  0.1039266E+03  0.7561462E-02  0.1272249E+00
          2   -1    0    0  501    0  0.00000000000E+00  0.00000000000E+00  0.67158289559E+03  0.67158289559E+03  0.00000000000E+00 0. -1.
         -2   -1    0    0    0  501 -0.00000000000E+00 -0.00000000000E+00 -0.23509247043E+02  0.23509247043E+02  0.00000000000E+00 0.  1.
         25    2    1    2    0    0  0.41680096572E+02 -0.48539795199E+02  0.34645416791E+03  0.37386211097E+03  0.12509614456E+03 0.  0.
          5    1    3    3  502    0  0.58922327361E+02 -0.46179004863E+01  0.30565343901E+03  0.31134331990E+03  0.41800000000E+01 0.  1.
         -5    1    3    3    0  502 -0.17242230789E+02 -0.43921894712E+02  0.40800728901E+02  0.62518791067E+02  0.41800000000E+01 0.  1.
        -11    1    1    2    0    0 -0.24340873486E+02  0.69727805378E+02  0.15043124549E+03  0.16758282902E+03  0.00000000000E+00 0.  1.
         11    1    1    2    0    0 -0.17339223085E+02 -0.21188010180E+02  0.15118823514E+03  0.15364720264E+03  0.00000000000E+00 0. -1.
</event>
<event>
 7    1  0.2732144E-009  0.1300304E+03  0.7561462E-02  0.1227411E+00
         -1   -1    0    0    0  501 -0.00000000000E+00  0.00000000000E+00  0.74084565094E+02  0.74084565094E+02  0.00000000000E+00 0.  1.
          1   -1    0    0  501    0  0.00000000000E+00 -0.00000000000E+00 -0.46058022608E+03  0.46058022608E+03  0.00000000000E+00 0. -1.
         25    2    1    2    0    0 -0.21168493726E+02  0.10252860432E+03 -0.35761528824E+03  0.39306020136E+03  0.12508959861E+03 0.  0.
          5    1    3    3  502    0  0.66472215616E+01  0.11193832171E+03 -0.17386899341E+03  0.20693543122E+03  0.41800000000E+01 0.  1.
         -5    1    3    3    0  502 -0.27815715288E+02 -0.94097173950E+01 -0.18374629483E+03  0.18612477014E+03  0.41800000000E+01 0.  1.
        -11    1    1    2    0    0 -0.18690505107E+02 -0.37845533303E+02  0.24448813053E+02  0.48778723147E+02  0.00000000000E+00 0.  1.
         11    1    1    2    0    0  0.39858998833E+02 -0.64683071017E+02 -0.53329185796E+02  0.92825866664E+02  0.00000000000E+00 0. -1.
</event>
<event>
 7    1  0.2732144E-009  0.1009385E+03  0.7561462E-02  0.1278335E+00
          2   -1    0    0  501    0  0.00000000000E+00  0.00000000000E+00  0.15930483922E+03  0.15930483922E+03  0.00000000000E+00 0.  1.
         -2   -1    0    0    0  501 -0.00000000000E+00 -0.00000000000E+00 -0.92658712526E+02  0.92658712526E+02  0.00000000000E+00 0. -1.
         25    2    1    2    0    0  0.52897688556E+02  0.16476713897E+02  0.39554019725E+02  0.14241933544E+03  0.12509635917E+03 0.  0.
          5    1    3    3  502    0  0.44647250765E+02  0.67405435515E+02  0.69760681115E+01  0.81258892831E+02  0.41800000000E+01 0.  1.
         -5    1    3    3    0  502  0.82504377912E+01 -0.50928721618E+02  0.32577951613E+02  0.61160442614E+02  0.41800000000E+01 0.  1.
        -11    1    1    2    0    0 -0.38840380744E+02  0.91714021545E+01  0.55772833449E+02  0.68580600353E+02  0.00000000000E+00 0.  1.
         11    1    1    2    0    0 -0.14057307812E+02 -0.25648116051E+02 -0.28680726481E+02  0.40963615946E+02  0.00000000000E+00 0. -1.
</event>
<event>
 7    1  0.2732144E-009  0.8901169E+02  0.7561462E-02  0.1305263E+00
          1   -1    0    0  501    0  0.00000000000E+00  0.00000000000E+00  0.66865119810E+03  0.66865119810E+03  0.00000000000E+00 0. -1.
         -1   -1    0    0    0  501 -0.00000000000E+00 -0.00000000000E+00 -0.19570050772E+02  0.19570050772E+02  0.00000000000E+00 0.  1.
         25    2    1    2    0    0  0.36285618482E+02  0.68636301075E+01  0.35276518143E+03  0.37610385851E+03  0.12508830336E+03 0.  0.
          5    1    3    3  502    0 -0.11942670841E+02 -0.29328828934E+02  0.19547042623E+02  0.37448189125E+02  0.41800000000E+01 0.  1.
         -5    1    3    3    0  502  0.48228289323E+02  0.36192459042E+02  0.33321813880E+03  0.33865566939E+03  0.41800000000E+01 0.  1.
        -11    1    1    2    0    0 -0.58921611741E+02  0.66180631860E+01  0.26321849196E+03  0.26981387955E+03  0.00000000000E+00 0. -1.
         11    1    1    2    0    0  0.22635993258E+02 -0.13481693294E+02  0.33097473941E+02  0.42303510801E+02  0.00000000000E+00 0.  1.
</event>
<event>
 7    1  0.2732144E-009  0.1118288E+03  0.7561462E-02  0.1257220E+00
          2   -1    0    0  501    0  0.00000000000E+00  0.00000000000E+00  0.38284562750E+03  0.38284562750E+03  0.00000000000E+00 0. -1.
         -2   -1    0    0    0  501 -0.00000000000E+00 -0.00000000000E+00 -0.38742129470E+02  0.38742129470E+02  0.00000000000E+00 0.  1.
         25    2    1    2    0    0 -0.26438974962E+02 -0.78933549197E+01  0.11367055251E+03  0.17125693075E+03  0.12508643961E+03 0.  0.
          5    1    3    3  502    0  0.15880478177E+02 -0.58904327667E+02  0.46726897552E+02  0.76959630715E+02  0.41800000000E+01 0. -1.
         -5    1    3    3    0  502 -0.42319453139E+02  0.51010972747E+02  0.66943654961E+02  0.94297300037E+02  0.41800000000E+01 0. -1.
        -11    1    1    2    0    0 -0.34658434132E+02  0.20461344769E+01  0.10679331328E+03  0.11229517124E+03  0.00000000000E+00 0. -1.
         11    1    1    2    0    0  0.61097409094E+02  0.58472204428E+01  0.12363963223E+03  0.13803565497E+03  0.00000000000E+00 0.  1.
</event>
<event>
 7    1  0.2732144E-009  0.8181845E+02  0.7561462E-02  0.1323969E+00
          1   -1    0    0  501    0  0.00000000000E+00  0.00000000000E+00  0.10855091895E+03  0.10855091895E+03  0.00000000000E+00 0. -1.
         -1   -1    0    0    0  501 -0.00000000000E+00 -0.00000000000E+00 -0.17649673510E+03  0.17649673510E+03  0.00000000000E+00 0.  1.
         25    2    1    2    0    0  0.32188183090E+02  0.61366644324E+01 -0.11907136204E+03  0.17578355369E+03  0.12509248861E+03 0.  0.
          5    1    3    3  502    0 -0.25964138096E+02 -0.27073936327E+02  0.15283113978E+01  0.37774894190E+02  0.41800000000E+01 0.  1.
         -5    1    3    3    0  502  0.58152321187E+02  0.33210600760E+02 -0.12059967344E+03  0.13800865950E+03  0.41800000000E+01 0.  1.
        -11    1    1    2    0    0 -0.81244829142E+01 -0.26221265952E+02  0.68238213647E+02  0.73552809684E+02  0.00000000000E+00 0. -1.
         11    1    1    2    0    0 -0.24063700176E+02  0.20084601519E+02 -0.17112667759E+02  0.35711290682E+02  0.00000000000E+00 0.  1.
</event>
<event>
 7    1  0.2732144E-009  0.1032926E+03  0.7561462E-02  0.1273521E+00
          1   -1    0    0  501    0  0.00000000000E+00  0.00000000000E+00  0.58885715596E+03  0.58885715596E+03  0.00000000000E+00 0. -1.
         -1   -1    0    0    0  501 -0.00000000000E+00 -0.00000000000E+00 -0.31778831153E+02  0.31778831153E+02  0.00000000000E+00 0.  1.
         25    2    1    2    0    0  0.65927152617E+02  0.39268542050E+02  0.37848285094E+03  0.40593749418E+03  0.12509025892E+03 0.  0.
          5    1    3    3  502    0  0.76963677297E+02  0.48594782827E+02  0.38004459643E+03  0.39081482599E+03  0.41800000000E+01 0. -1.
         -5    1    3    3    0  502 -0.11036524680E+02 -0.93262407779E+01 -0.15617454888E+01  0.15122668185E+02  0.41800000000E+01 0. -1.
        -11    1    1    2    0    0 -0.68850372094E+02 -0.83329408272E+01  0.58755923608E+02  0.90895930598E+02  0.00000000000E+00 0.  1.
         11    1    1    2    0    0  0.29232194766E+01 -0.30935601222E+02  0.11983955025E+03  0.12380256233E+03  0.00000000000E+00 0. -1.
</event>
<event>
 7    1  0.2732144E-009  0.1435455E+03  0.7561462E-02  0.1208636E+00
         -3   -1    0    0    0  501 -0.00000000000E+00  0.00000000000E+00  0.92610345863E+02  0.92610345863E+02  0.00000000000E+00 0.  1.
          3   -1    0    0  501    0  0.00000000000E+00 -0.00000000000E+00 -0.25812493910E+03  0.25812493910E+03  0.00000000000E+00 0. -1.
         25    2    1    2    0    0  0.96113295482E+02  0.13750314221E+01 -0.29216669175E+02  0.16043221971E+03  0.12508088216E+03 0.  0.
          5    1    3    3  502    0 -0.14588303306E+02  0.36720106718E+02 -0.17970448425E+02  0.43607272872E+02  0.41800000000E+01 0.  1.
         -5    1    3    3    0  502  0.11070159879E+03 -0.35345075296E+02 -0.11246220750E+02  0.11682494684E+03  0.41800000000E+01 0.  1.
        -11    1    1    2    0    0 -0.38612185875E+02 -0.44709226519E+02 -0.46356411099E+02  0.75091495418E+02  0.00000000000E+00 0. -1.
         11    1    1    2    0    0 -0.57501109607E+02  0.43334195097E+02 -0.89941512968E+02  0.11521156984E+03  0.00000000000E+00 0.  1.
</event>
<event>
 7    1  0.2732144E-009  0.1617518E+03  0.7561462E-02  0.1186733E+00
         -1   -1    0    0    0  501 -0.00000000000E+00  0.00000000000E+00  0.31834429014E+03  0.31834429014E+03  0.00000000000E+00 0.  1.
          1   -1    0    0  501    0  0.00000000000E+00 -0.00000000000E+00 -0.10051240150E+03  0.10051240150E+03  0.00000000000E+00 0. -1.
         25    2    1    2    0    0 -0.35254110982E+02 -0.12689528382E+03  0.17357431149E+03  0.25124000989E+03  0.12509290774E+03 0.  0.
          5    1    3    3  502    0 -0.69856996403E+02 -0.10518900958E+03  0.16738708030E+03  0.20971560441E+03  0.41800000000E+01 0.  1.
         -5    1    3    3    0  502  0.34602885421E+02 -0.21706274242E+02  0.61872311893E+01  0.41524405482E+02  0.41800000000E+01 0.  1.
        -11    1    1    2    0    0 -0.27763994931E+02  0.42736003652E+02 -0.55745219120E+01  0.51266760355E+02  0.00000000000E+00 0.  1.
         11    1    1    2    0    0  0.63018105913E+02  0.84159280167E+02  0.49832099068E+02  0.11634992140E+03  0.00000000000E+00 0. -1.
</event>
<event>
 7    1  0.3726059E-009  0.8143560E+02  0.7561462E-02  0.1325026E+00
          2   -1    0    0  501    0  0.00000000000E+00  0.00000000000E+00  0.18263742582E+03  0.18263742582E+03  0.00000000000E+00 0. -1.
         -2   -1    0    0    0  501 -0.00000000000E+00 -0.00000000000E+00 -0.82181076822E+02  0.82181076822E+02  0.00000000000E+00 0.  1.
         25    2    1    2    0    0  0.27349242051E+01 -0.13778906612E+02  0.11568415876E+03  0.17095994829E+03  0.12508853366E+03 0.  0.
          5    1    3    3  502    0  0.37772246010E+02 -0.40708716182E+02  0.11360783991E+03  0.12652334105E+03  0.41800000000E+01 0.  1.
         -5    1    3    3    0  502 -0.35037321805E+02  0.26929809570E+02  0.20763188494E+01  0.44436607236E+02  0.41800000000E+01 0.  1.
        -11    1    1    2    0    0 -0.10609067324E+02  0.36885752623E+02 -0.42493897805E+02  0.57261177133E+02  0.00000000000E+00 0.  1.
         11    1    1    2    0    0  0.78741431189E+01 -0.23106846011E+02  0.27266088048E+02  0.36597377227E+02  0.00000000000E+00 0. -1.
</event>
<event>
 7    1  0.2732144E-009  0.1156998E+03  0.7561462E-02  0.1250365E+00
          1   -1    0    0  501    0  0.00000000000E+00  0.00000000000E+00  0.77006776550E+02  0.77006776550E+02  0.00000000000E+00 0. -1.
         -1   -1    0    0    0  501 -0.00000000000E+00 -0.00000000000E+00 -0.27716754042E+03  0.27716754042E+03  0.00000000000E+00 0.  1.
         25    2    1    2    0    0 -0.38386153723E+02  0.20407929726E+02 -0.21440164365E+03  0.25200545010E+03  0.12509477082E+03 0.  0.
          5    1    3    3  502    0  0.41540690507E+02 -0.15485511512E+02 -0.78633900490E+02  0.90366989221E+02  0.41800000000E+01 0.  1.
         -5    1    3    3    0  502 -0.79926844229E+02  0.35893441238E+02 -0.13576774316E+03  0.16163846088E+03  0.41800000000E+01 0.  1.
        -11    1    1    2    0    0 -0.60892928003E+01  0.30760748714E+02 -0.48633973075E+01  0.31732566578E+02  0.00000000000E+00 0.  1.
         11    1    1    2    0    0  0.44475446523E+02 -0.51168678440E+02  0.19104277083E+02  0.70436300297E+02  0.00000000000E+00 0. -1.
</event>
<event>
 7    1  0.2732144E-009  0.1130785E+03  0.7561462E-02  0.1254973E+00
         -1   -1    0    0    0  501 -0.00000000000E+00  0.00000000000E+00  0.14722915372E+04  0.14722915372E+04  0.00000000000E+00 0.  1.
          1   -1    0    0  501    0  0.00000000000E+00 -0.00000000000E+00 -0.96506248528E+01  0.96506248528E+01  0.00000000000E+00 0. -1.
         25    2    1    2    0    0 -0.24769958690E+00  0.33672334159E+02  0.10548450723E+04  0.10627694822E+04  0.12508780199E+03 0.  0.
          5    1    3    3  502    0  0.61841095094E+02  0.23259542408E+02  0.50748514498E+03  0.51178508392E+03  0.41800000000E+01 0.  1.
         -5    1    3    3    0  502 -0.62088794681E+02  0.10412791751E+02  0.54735992737E+03  0.55098439828E+03  0.41800000000E+01 0.  1.
        -11    1    1    2    0    0 -0.23391646377E+02  0.24617589108E+02  0.15375714809E+03  0.15746255238E+03  0.00000000000E+00 0.  1.
         11    1    1    2    0    0  0.23639345964E+02 -0.58289923268E+02  0.25403869196E+03  0.26171012752E+03  0.00000000000E+00 0. -1.
</event>
<event>
 7    1  0.2732144E-009  0.8923371E+02  0.7561462E-02  0.1304718E+00
         -2   -1    0    0    0  501 -0.00000000000E+00  0.00000000000E+00  0.38471944592E+02  0.38471944592E+02  0.00000000000E+00 0. -1.
          2   -1    0    0  501    0  0.00000000000E+00 -0.00000000000E+00 -0.38375170328E+03  0.38375170328E+03  0.00000000000E+00 0.  1.
         25    2    1    2    0    0  0.49033796937E+02  0.23712111595E+02 -0.19345471127E+03  0.23672465555E+03  0.12508900731E+03 0.  0.
          5    1    3    3  502    0  0.19912678281E+02 -0.13741520865E+02  0.10921987582E+02  0.26872036855E+02  0.41800000000E+01 0. -1.
         -5    1    3    3    0  502  0.29121118656E+02  0.37453632460E+02 -0.20437669886E+03  0.20985261869E+03  0.41800000000E+01 0. -1.
        -11    1    1    2    0    0 -0.70236584153E+02 -0.38822994049E+02 -0.12031195713E+03  0.14462147022E+03  0.00000000000E+00 0.  1.
         11    1    1    2    0    0  0.21202787215E+02  0.15110882454E+02 -0.31513090292E+02  0.40877522112E+02  0.00000000000E+00 0. -1.
</event>
<event>
 7    1  0.2732144E-009  0.1045036E+03  0.7561462E-02  0.1271101E+00
          2   -1    0    0  501    0  0.00000000000E+00  0.00000000000E+00  0.11342958201E+03  0.11342958201E+03  0.00000000000E+00 0. -1.
         -2   -1    0    0    0  501 -0.00000000000E+00 -0.00000000000E+00 -0.15451863830E+03  0.15451863830E+03  0.00000000000E+00 0.  1.
         25    2    1    2    0    0  0.65500404200E+02  0.12435315934E+02  0.13038213960E+02  0.14234959962E+03  0.12509385858E+03 0.  0.
          5    1    3    3  502    0 -0.28007193314E+02 -0.27965148852E+02  0.31264121439E+01  0.39921163316E+02  0.41800000000E+01 0. -1.
         -5    1    3    3    0  502  0.93507597513E+02  0.40400464787E+02  0.99118018164E+01  0.10242843630E+03  0.41800000000E+01 0. -1.
        -11    1    1    2    0    0 -0.19724960972E+02  0.36903219238E+00 -0.72123734755E+02  0.74773279887E+02  0.00000000000E+00 0.  1.
         11    1    1    2    0    0 -0.45775443228E+02 -0.12804348127E+02  0.17996464507E+02  0.50825340809E+02  0.00000000000E+00 0. -1.
</event>
<event>
 7    1  0.2732144E-009  0.1055114E+03  0.7561462E-02  0.1269115E+00
          2   -1    0    0  501    0  0.00000000000E+00  0.00000000000E+00  0.18620166796E+03  0.18620166796E+03  0.00000000000E+00 0. -1.
         -2   -1    0    0    0  501 -0.00000000000E+00 -0.00000000000E+00 -0.10328129904E+03  0.10328129904E+03  0.00000000000E+00 0.  1.
         25    2    1    2    0    0 -0.46345142847E+02 -0.68580964175E+01 -0.31501860064E+02  0.13727829290E+03  0.12513215719E+03 0.  0.
          5    1    3    3  502    0  0.33396911921E+02 -0.95071117281E+01  0.21820679604E+02  0.41223213820E+02  0.41800000000E+01 0. -1.
         -5    1    3    3    0  502 -0.79742054768E+02  0.26490153107E+01 -0.53322539668E+02  0.96055079081E+02  0.41800000000E+01 0. -1.
        -11    1    1    2    0    0  0.57679359071E+02 -0.24606852151E+02  0.52316469656E+02  0.81666508636E+02  0.00000000000E+00 0.  1.
         11    1    1    2    0    0 -0.11334216224E+02  0.31464948568E+02  0.62105759324E+02  0.70538165464E+02  0.00000000000E+00 0. -1.
</event>
<event>
 7    1  0.2732144E-009  0.1071803E+03  0.7561462E-02  0.1265882E+00
          2   -1    0    0  501    0  0.00000000000E+00  0.00000000000E+00  0.69718500653E+03  0.69718500653E+03  0.00000000000E+00 0. -1.
         -2   -1    0    0    0  501 -0.00000000000E+00 -0.00000000000E+00 -0.19770969822E+02  0.19770969822E+02  0.00000000000E+00 0.  1.
         25    2    1    2    0    0  0.29606955423E+02 -0.35780041415E+02  0.37941740495E+03  0.40219384502E+03  0.12508212749E+03 0.  0.
          5    1    3    3  502    0  0.59465435353E+02 -0.58117977490E+02  0.16828387812E+03  0.18775189305E+03  0.41800000000E+01 0.  1.
         -5    1    3    3    0  502 -0.29858479930E+02  0.22337936075E+02  0.21113352683E+03  0.21444195196E+03  0.41800000000E+01 0.  1.
        -11    1    1    2    0    0  0.23659027222E+02  0.32522151364E+02  0.71217057543E+02  0.81788197091E+02  0.00000000000E+00 0.  1.
         11    1    1    2    0    0 -0.53265982644E+02  0.32578900511E+01  0.22677957421E+03  0.23297393424E+03  0.00000000000E+00 0. -1.
</event>
<event>
 7    1  0.2732144E-009  0.1658670E+03  0.7561462E-02  0.1182228E+00
         -1   -1    0    0    0  501 -0.00000000000E+00  0.00000000000E+00  0.43290836356E+03  0.43290836356E+03  0.00000000000E+00 0.  1.
          1   -1    0    0  501    0  0.00000000000E+00 -0.00000000000E+00 -0.66696518137E+02  0.66696518137E+02  0.00000000000E+00 0. -1.
         25    2    1    2    0    0 -0.12288693823E+03 -0.36356284474E+02  0.14534751172E+03  0.23064171395E+03  0.12508685798E+03 0.  0.
          5    1    3    3  502    0 -0.13729771982E+03 -0.60552995895E+02  0.12817718443E+03  0.19739349581E+03  0.41800000000E+01 0.  1.
         -5    1    3    3    0  502  0.14410781592E+02  0.24196711421E+02  0.17170327294E+02  0.33248218134E+02  0.41800000000E+01 0.  1.
        -11    1    1    2    0    0  0.53702302363E+02 -0.26309217038E+02  0.77539553437E+02  0.97920858490E+02  0.00000000000E+00 0. -1.
         11    1    1    2    0    0  0.69184635868E+02  0.62665501512E+02  0.14332478026E+03  0.17104230926E+03  0.00000000000E+00 0.  1.
</event>
<event>
 7    1  0.2732144E-009  0.1592685E+03  0.7561462E-02  0.1189525E+00
          4   -1    0    0  501    0  0.00000000000E+00  0.00000000000E+00  0.15173195538E+04  0.15173195538E+04  0.00000000000E+00 0.  1.
         -4   -1    0    0    0  501 -0.00000000000E+00 -0.00000000000E+00 -0.20662775281E+02  0.20662775281E+02  0.00000000000E+00 0. -1.
         25    2    1    2    0    0 -0.82092146871E+02  0.87441118527E+02  0.10773929349E+04  0.10912428363E+04  0.12510124572E+03 0.  0.
          5    1    3    3  502    0 -0.37949335103E+02  0.11491017489E+03  0.73957490630E+03  0.74942178696E+03  0.41800000000E+01 0. -1.
         -5    1    3    3    0  502 -0.44142811768E+02 -0.27469056363E+02  0.33781802864E+03  0.34182104933E+03  0.41800000000E+01 0. -1.
        -11    1    1    2    0    0  0.30505715895E+02 -0.88586478293E+02  0.19133213665E+03  0.21304025289E+03  0.00000000000E+00 0. -1.
         11    1    1    2    0    0  0.51586430976E+02  0.11453597657E+01  0.22793170693E+03  0.23369923990E+03  0.00000000000E+00 0.  1.
</event>
<event>
 7    1  0.3477162E-009  0.1224967E+03  0.7561462E-02  0.1239034E+00
          4   -1    0    0  501    0  0.00000000000E+00  0.00000000000E+00  0.25725947113E+03  0.25725947113E+03  0.00000000000E+00 0. -1.
         -4   -1    0    0    0  501 -0.00000000000E+00 -0.00000000000E+00 -0.86719656147E+02  0.86719656147E+02  0.00000000000E+00 0.  1.
         25    2    1    2    0    0  0.98139205713E+02  0.19953607145E+02  0.68647570663E+02  0.17432506937E+03  0.12508913109E+03 0.  0.
          5    1    3    3  502    0  0.67307826386E+02 -0.21160042848E+02 -0.18506506134E+02  0.73061987896E+02  0.41800000000E+01 0. -1.
         -5    1    3    3    0  502  0.30831379327E+02  0.41113649992E+02  0.87154076797E+02  0.10126308147E+03  0.41800000000E+01 0. -1.
        -11    1    1    2    0    0 -0.63895389958E+02  0.22921883993E+02  0.91297536634E+02  0.11376850979E+03  0.00000000000E+00 0. -1.
         11    1    1    2    0    0 -0.34243815755E+02 -0.42875491137E+02  0.10594707685E+02  0.55885548120E+02  0.00000000000E+00 0.  1.
</event>
<event>
 7    1  0.3268192E-009  0.9090705E+02  0.7561462E-02  0.1300670E+00
         -1   -1    0    0    0  501 -0.00000000000E+00  0.00000000000E+00  0.12070990616E+03  0.12070990616E+03  0.00000000000E+00 0.  1.
          1   -1    0    0  501    0  0.00000000000E+00 -0.00000000000E+00 -0.20009190648E+03  0.20009190648E+03  0.00000000000E+00 0. -1.
         25    2    1    2    0    0  0.31700235198E+02 -0.55424658369E+02  0.50878687361E+02  0.14937140120E+03  0.12508547878E+03 0.  0.
          5    1    3    3  502    0 -0.20897482520E+02 -0.41594320286E+02  0.76077262799E+02  0.89286138737E+02  0.41800000000E+01 0. -1.
         -5    1    3    3    0  502  0.52597717717E+02 -0.13830338083E+02 -0.25198575438E+02  0.60085262458E+02  0.41800000000E+01 0. -1.
        -11    1    1    2    0    0 -0.71436730131E+01  0.55517489825E+02 -0.21549277588E+02  0.59979955861E+02  0.00000000000E+00 0.  1.
         11    1    1    2    0    0 -0.24556562184E+02 -0.92831456216E-01 -0.10871141010E+03  0.11145045558E+03  0.00000000000E+00 0. -1.
</event>
<event>
 7    1  0.2732144E-009  0.7456827E+02  0.7561462E-02  0.1345213E+00
         -2   -1    0    0    0  501 -0.00000000000E+00  0.00000000000E+00  0.46400690289E+02  0.46400690289E+02  0.00000000000E+00 0. -1.
          2   -1    0    0  501    0  0.00000000000E+00 -0.00000000000E+00 -0.67310949460E+03  0.67310949460E+03  0.00000000000E+00 0.  1.
         25    2    1    2    0    0  0.34104287602E+02  0.32344828315E+02 -0.59808502888E+03  0.61283164761E+03  0.12509051197E+03 0.  0.
          5    1    3    3  502    0  0.26039184430E+02  0.49652522315E+02 -0.10287047097E+03  0.11723147315E+03  0.41800000000E+01 0. -1.
         -5    1    3    3    0  502  0.80651031715E+01 -0.17307694000E+02 -0.49521455791E+03  0.49560017446E+03  0.41800000000E+01 0. -1.
        -11    1    1    2    0    0  0.13346732275E+02 -0.20498486902E+02 -0.48158214844E+02  0.54014228539E+02  0.00000000000E+00 0.  1.
         11    1    1    2    0    0 -0.47451019877E+02 -0.11846341414E+02  0.19534439413E+02  0.52664308744E+02  0.00000000000E+00 0. -1.
</event>
<event>
 7    1  0.2732144E-009  0.1369358E+03  0.7561462E-02  0.1217513E+00
         -1   -1    0    0    0  501 -0.00000000000E+00  0.00000000000E+00  0.76470989090E+02  0.76470989090E+02  0.00000000000E+00 0.  1.
          1   -1    0    0  501    0  0.00000000000E+00 -0.00000000000E+00 -0.28189373622E+03  0.28189373622E+03  0.00000000000E+00 0. -1.
         25    2    1    2    0    0 -0.34353553911E+02  0.90833532425E+02 -0.89759543120E+02  0.18204369251E+03  0.12510888507E+03 0.  0.
          5    1    3    3  502    0 -0.75085965950E+02  0.51846738467E+02 -0.85876333927E+02  0.12537226049E+03  0.41800000000E+01 0.  1.
         -5    1    3    3    0  502  0.40732412039E+02  0.38986793958E+02 -0.38832091922E+01  0.56671432020E+02  0.41800000000E+01 0.  1.
        -11    1    1    2    0    0  0.23021837208E+02 -0.10520204202E+03 -0.73570655015E+02  0.13042283509E+03  0.00000000000E+00 0.  1.
         11    1    1    2    0    0  0.11331716703E+02  0.14368509599E+02 -0.42092549000E+02  0.45898197708E+02  0.00000000000E+00 0. -1.
</event>
<event>
 7    1  0.2732144E-009  0.6930649E+02  0.7561462E-02  0.1362467E+00
         -3   -1    0    0    0  501 -0.00000000000E+00  0.00000000000E+00  0.25065222567E+02  0.25065222567E+02  0.00000000000E+00 0.  1.
          3   -1    0    0  501    0  0.00000000000E+00 -0.00000000000E+00 -0.13014996259E+04  0.13014996259E+04  0.00000000000E+00 0. -1.
         25    2    1    2    0    0 -0.13487870198E+02  0.15920495352E+02 -0.11975097560E+04  0.12042056686E+04  0.12508513752E+03 0.  0.
          5    1    3    3  502    0 -0.22372093057E+02  0.39672982231E+02 -0.16082346039E+03  0.16720081902E+03  0.41800000000E+01 0. -1.
         -5    1    3    3    0  502  0.88842228588E+01 -0.23752486879E+02 -0.10366862956E+04  0.10370048496E+04  0.41800000000E+01 0. -1.
        -11    1    1    2    0    0 -0.81452744787E+01 -0.36450522378E+02 -0.84163332257E+02  0.92078513100E+02  0.00000000000E+00 0. -1.
         11    1    1    2    0    0  0.21633144677E+02  0.20530027026E+02  0.52386849970E+01  0.30280666749E+02  0.00000000000E+00 0.  1.
</event>
<event>
 7    1  0.2732144E-009  0.1344367E+03  0.7561462E-02  0.1221017E+00
          3   -1    0    0  501    0  0.00000000000E+00  0.00000000000E+00  0.63088067554E+02  0.63088067554E+02  0.00000000000E+00 0.  1.
         -3   -1    0    0    0  501 -0.00000000000E+00 -0.00000000000E+00 -0.33595604622E+03  0.33595604622E+03  0.00000000000E+00 0. -1.
         25    2    1    2    0    0  0.41187599028E+02  0.60587395109E+02 -0.74487597793E+02  0.16298249541E+03  0.12509053051E+03 0.  0.
          5    1    3    3  502    0  0.79471220173E+02  0.69127532444E+02 -0.51403261594E+02  0.11727769728E+03  0.41800000000E+01 0. -1.
         -5    1    3    3    0  502 -0.38283621145E+02 -0.85401373353E+01 -0.23084336199E+02  0.45704798122E+02  0.41800000000E+01 0. -1.
        -11    1    1    2    0    0 -0.54780192310E+02  0.68627037022E+01 -0.11784463699E+03  0.13013579307E+03  0.00000000000E+00 0.  1.
         11    1    1    2    0    0  0.13592593282E+02 -0.67450098811E+02 -0.80535743884E+02  0.10592582530E+03  0.00000000000E+00 0. -1.
</event>
<event>
 7    1  0.2732144E-009  0.1157069E+03  0.7561462E-02  0.1250352E+00
         -1   -1    0    0    0  501 -0.00000000000E+00  0.00000000000E+00  0.93545897063E+02  0.93545897063E+02  0.00000000000E+00 0.  1.
          1   -1    0    0  501    0  0.00000000000E+00 -0.00000000000E+00 -0.15975707425E+03  0.15975707425E+03  0.00000000000E+00 0. -1.
         25    2    1    2    0    0 -0.15139811065E+02 -0.48400924997E+02 -0.13821804927E+02  0.13568633835E+03  0.12509147335E+03 0.  0.
          5    1    3    3  502    0 -0.30578081464E+02 -0.85686169771E+02 -0.23331441107E+02  0.94015782187E+02  0.41800000000E+01 0. -1.
         -5    1    3    3    0  502  0.15438270398E+02  0.37285244774E+02  0.95096361803E+01  0.41670556164E+02  0.41800000000E+01 0. -1.
        -11    1    1    2    0    0 -0.25120127467E+02 -0.11473853013E+02  0.13527562856E+01  0.27649594147E+02  0.00000000000E+00 0.  1.
         11    1    1    2    0    0  0.40259938532E+02  0.59874778010E+02 -0.53742128542E+02  0.89967038812E+02  0.00000000000E+00 0. -1.
</event>
<event>
 7    1  0.2732144E-009  0.1446079E+03  0.7561462E-02  0.1207260E+00
          2   -1    0    0  501    0  0.00000000000E+00  0.00000000000E+00  0.74966505158E+03  0.74966505158E+03  0.00000000000E+00 0. -1.
         -2   -1    0    0    0  501 -0.00000000000E+00 -0.00000000000E+00 -0.38676618596E+02  0.38676618596E+02  0.00000000000E+00 0.  1.
         25    2    1    2    0    0 -0.12743818771E+03 -0.43969090695E+01  0.34464779340E+03  0.38818678957E+03  0.12508819929E+03 0.  0.
          5    1    3    3  502    0 -0.83834827998E+02 -0.20018015439E+02  0.32740786780E+03  0.33858881202E+03  0.41800000000E+01 0.  1.
         -5    1    3    3    0  502 -0.43603359707E+02  0.15621106369E+02  0.17239925602E+02  0.49597977547E+02  0.41800000000E+01 0.  1.
        -11    1    1    2    0    0  0.13904972262E+03 -0.81926513731E+01  0.28737118868E+03  0.31934956550E+03  0.00000000000E+00 0.  1.
         11    1    1    2    0    0 -0.11611534916E+02  0.12589560443E+02  0.78969450895E+02  0.80805315109E+02  0.00000000000E+00 0. -1.
</event>
<event>
 7    1  0.2913485E-009  0.1042508E+03  0.7561462E-02  0.1271603E+00
         -1   -1    0    0    0  501 -0.00000000000E+00  0.00000000000E+00  0.31388678324E+02  0.31388678324E+02  0.00000000000E+00 0.  1.
          1   -1    0    0  501    0  0.00000000000E+00 -0.00000000000E+00 -0.60111180947E+03  0.60111180947E+03  0.00000000000E+00 0. -1.
         25    2    1    2    0    0 -0.77394025931E+02  0.28554992817E+02 -0.27258815442E+03  0.31105594850E+03  0.12508508424E+03 0.  0.
          5    1    3    3  502    0  0.93185521305E+00 -0.25040156543E+02 -0.16740915237E+03  0.16932564629E+03  0.41800000000E+01 0. -1.
         -5    1    3    3    0  502 -0.78325881144E+02  0.53595149360E+02 -0.10517900205E+03  0.14173030221E+03  0.41800000000E+01 0. -1.
        -11    1    1    2    0    0  0.30457757530E+02  0.43643635623E+01 -0.16304065881E+02  0.34821620113E+02  0.00000000000E+00 0.  1.
         11    1    1    2    0    0  0.46936268402E+02 -0.32919356379E+02 -0.28083091084E+03  0.28662291918E+03  0.00000000000E+00 0. -1.
</event>
<event>
 7    1  0.2732144E-009  0.1198031E+03  0.7561462E-02  0.1243422E+00
         -1   -1    0    0    0  501 -0.00000000000E+00  0.00000000000E+00  0.28661005520E+02  0.28661005520E+02  0.00000000000E+00 0.  1.
          1   -1    0    0  501    0  0.00000000000E+00 -0.00000000000E+00 -0.58370739527E+03  0.58370739527E+03  0.00000000000E+00 0. -1.
         25    2    1    2    0    0 -0.23752286051E+01 -0.61320137106E+02 -0.22560717430E+03  0.26516259278E+03  0.12508717995E+03 0.  0.
          5    1    3    3  502    0  0.53970398228E+02 -0.60047404196E+02 -0.11035441572E+03  0.13679935710E+03  0.41800000000E+01 0.  1.
         -5    1    3    3    0  502 -0.56345626834E+02 -0.12727329108E+01 -0.11525275858E+03  0.12836323568E+03  0.41800000000E+01 0.  1.
        -11    1    1    2    0    0 -0.37805305684E+02  0.14356745866E+02 -0.19626938486E+03  0.20039218728E+03  0.00000000000E+00 0. -1.
         11    1    1    2    0    0  0.40180534290E+02  0.46963391241E+02 -0.13316983059E+03  0.14681362073E+03  0.00000000000E+00 0.  1.
</event>
<event>
 7    1  0.2732144E-009  0.1105525E+03  0.7561462E-02  0.1259550E+00
          1   -1    0    0  501    0  0.00000000000E+00  0.00000000000E+00  0.69732528192E+02  0.69732528192E+02  0.00000000000E+00 0. -1.
         -1   -1    0    0    0  501 -0.00000000000E+00 -0.00000000000E+00 -0.22568516841E+03  0.22568516841E+03  0.00000000000E+00 0.  1.
         25    2    1    2    0    0 -0.42550255413E+02  0.45191055299E+02 -0.91692077943E+02  0.16705662771E+03  0.12509086293E+03 0.  0.
          5    1    3    3  502    0 -0.73093851925E+02  0.97300258456E+01 -0.12404246231E+02  0.74891403490E+02  0.41800000000E+01 0.  1.
         -5    1    3    3    0  502  0.30543596512E+02  0.35461029454E+02 -0.79287831712E+02  0.92165224219E+02  0.41800000000E+01 0.  1.
        -11    1    1    2    0    0  0.26579914430E+02 -0.67660058541E+02 -0.18618271927E+02  0.75040092100E+02  0.00000000000E+00 0. -1.
         11    1    1    2    0    0  0.15970340983E+02  0.22469003242E+02 -0.45642290350E+02  0.53320976793E+02  0.00000000000E+00 0.  1.
</event>
<event>
 7    1  0.2732144E-009  0.1410623E+03  0.7561462E-02  0.1211907E+00
         -2   -1    0    0    0  501 -0.00000000000E+00  0.00000000000E+00  0.29317940922E+02  0.29317940922E+02  0.00000000000E+00 0.  1.
          2   -1    0    0  501    0  0.00000000000E+00 -0.00000000000E+00 -0.75048188021E+03  0.75048188021E+03  0.00000000000E+00 0. -1.
         25    2    1    2    0    0  0.17533968202E+02  0.99411559443E+02 -0.37742305048E+03  0.41022657171E+03  0.12509029902E+03 0.  0.
          5    1    3    3  502    0 -0.37368557369E+02  0.98431115969E+02 -0.25959125810E+03  0.28016100255E+03  0.41800000000E+01 0. -1.
         -5    1    3    3    0  502  0.54902525571E+02  0.98044347421E+00 -0.11783179238E+03  0.13006556915E+03  0.41800000000E+01 0. -1.
        -11    1    1    2    0    0 -0.43849713710E+02 -0.63171842948E+02 -0.12874860009E+03  0.14996559992E+03  0.00000000000E+00 0.  1.
         11    1    1    2    0    0  0.26315745507E+02 -0.36239716495E+02 -0.21499228871E+03  0.21960764950E+03  0.00000000000E+00 0. -1.
</event>
<event>
 7    1  0.2732144E-009  0.1494894E+03  0.7561462E-02  0.1201102E+00
          3   -1    0    0  501    0  0.00000000000E+00  0.00000000000E+00  0.12531384124E+04  0.12531384124E+04  0.00000000000E+00 0. -1.
         -3   -1    0    0    0  501 -0.00000000000E+00 -0.00000000000E+00 -0.25791875304E+02  0.25791875304E+02  0.00000000000E+00 0.  1.
         25    2    1    2    0    0 -0.20364108862E+02 -0.10761395165E+03  0.93773829777E+03  0.95236346928E+03  0.12509037934E+03 0.  0.
          5    1    3    3  502    0  0.38680410997E+02  0.31785670578E+00  0.32985571397E+03  0.33214234850E+03  0.41800000000E+01 0. -1.
         -5    1    3    3    0  502 -0.59044519859E+02 -0.10793180836E+03  0.60788258379E+03  0.62022112078E+03  0.41800000000E+01 0. -1.
        -11    1    1    2    0    0  0.44649050816E+02  0.10299182812E+03  0.16522156084E+03  0.19974738688E+03  0.00000000000E+00 0.  1.
         11    1    1    2    0    0 -0.24284941953E+02  0.46221235308E+01  0.12438667851E+03  0.12681943156E+03  0.00000000000E+00 0. -1.
</event>
<event>
 7    1  0.2732144E-009  0.1525762E+03  0.7561462E-02  0.1197343E+00
          2   -1    0    0  501    0  0.00000000000E+00  0.00000000000E+00  0.27213272376E+03  0.27213272376E+03  0.00000000000E+00 0. -1.
         -2   -1    0    0    0  501 -0.00000000000E+00 -0.00000000000E+00 -0.92498691045E+02  0.92498691045E+02  0.00000000000E+00 0.  1.
         25    2    1    2    0    0 -0.81261386416E+02  0.80073615841E+02  0.85727572024E+02  0.18977078387E+03  0.12509411228E+03 0.  0.
          5    1    3    3  502    0  0.15252004763E+02  0.70251827063E+02  0.40985610412E+02  0.82856716782E+02  0.41800000000E+01 0. -1.
         -5    1    3    3    0  502 -0.96513391180E+02  0.98217887782E+01  0.44741961612E+02  0.10691406709E+03  0.41800000000E+01 0. -1.
        -11    1    1    2    0    0  0.10754542856E+02 -0.62443779103E+02  0.77945824829E+02  0.10045116898E+03  0.00000000000E+00 0. -1.
         11    1    1    2    0    0  0.70506843560E+02 -0.17629836738E+02  0.15960635863E+02  0.74409461961E+02  0.00000000000E+00 0.  1.
</event>
<event>
 7    1  0.2732144E-009  0.1726122E+03  0.7561462E-02  0.1175151E+00
         -4   -1    0    0    0  501 -0.00000000000E+00  0.00000000000E+00  0.81755037229E+02  0.81755037229E+02  0.00000000000E+00 0.  1.
          4   -1    0    0  501    0  0.00000000000E+00 -0.00000000000E+00 -0.41022934401E+03  0.41022934401E+03  0.00000000000E+00 0. -1.
         25    2    1    2    0    0  0.87177558402E+02 -0.11421502740E+03 -0.21666649876E+03  0.28850734290E+03  0.12508843291E+03 0.  0.
          5    1    3    3  502    0  0.84439393451E+02 -0.23563889679E+02 -0.15700389941E+03  0.17986929947E+03  0.41800000000E+01 0. -1.
         -5    1    3    3    0  502  0.27381649511E+01 -0.90651137722E+02 -0.59662599351E+02  0.10863804342E+03  0.41800000000E+01 0. -1.
        -11    1    1    2    0    0 -0.10334704448E+03  0.87360211002E+02 -0.10528998661E+03  0.17145961434E+03  0.00000000000E+00 0. -1.
         11    1    1    2    0    0  0.16169486076E+02  0.26854816399E+02 -0.65178214057E+01  0.32017424001E+02  0.00000000000E+00 0.  1.
</event>
<event>
 7    1  0.2732144E-009  0.1243665E+03  0.7561462E-02  0.1236063E+00
          1   -1    0    0  501    0  0.00000000000E+00  0.00000000000E+00  0.66671055091E+03  0.66671055091E+03  0.00000000000E+00 0. -1.
         -1   -1    0    0    0  501 -0.00000000000E+00 -0.00000000000E+00 -0.27902463194E+02  0.27902463194E+02  0.00000000000E+00 0.  1.
         25    2    1    2    0    0 -0.51302890683E+02 -0.64635240502E+02  0.32892631601E+03  0.36145525972E+03  0.12509069711E+03 0.  0.
          5    1    3    3  502    0 -0.13024841124E+02 -0.96790538345E+02  0.18853009177E+03  0.21236554029E+03  0.41800000000E+01 0. -1.
         -5    1    3    3    0  502 -0.38278049559E+02  0.32155297843E+02  0.14039622424E+03  0.14908971943E+03  0.41800000000E+01 0. -1.
        -11    1    1    2    0    0  0.49662545931E+02  0.16035902584E+02  0.64324855123E+02  0.82832394790E+02  0.00000000000E+00 0.  1.
         11    1    1    2    0    0  0.16403447521E+01  0.48599337918E+02  0.24555691658E+03  0.25032535959E+03  0.00000000000E+00 0. -1.
</event>
<event>
 7    1  0.2732144E-009  0.1197597E+03  0.7561462E-02  0.1243494E+00
          1   -1    0    0  501    0  0.00000000000E+00  0.00000000000E+00  0.31487498367E+03  0.31487498367E+03  0.00000000000E+00 0. -1.
         -1   -1    0    0    0  501 -0.00000000000E+00 -0.00000000000E+00 -0.10449740490E+03  0.10449740490E+03  0.00000000000E+00 0.  1.
         25    2    1    2    0    0 -0.80762227777E+02  0.12772206371E+02 -0.27251947587E+02  0.15190502644E+03  0.12508717648E+03 0.  0.
          5    1    3    3  502    0 -0.88660115936E+02  0.47297386391E+02  0.90946561496E+01  0.10098437546E+03  0.41800000000E+01 0.  1.
         -5    1    3    3    0  502  0.78978881591E+01 -0.34525180020E+02 -0.36346603737E+02  0.50920650978E+02  0.41800000000E+01 0.  1.
        -11    1    1    2    0    0  0.19316620921E+02 -0.33301329641E+02  0.16802508173E+03  0.17237905467E+03  0.00000000000E+00 0. -1.
         11    1    1    2    0    0  0.61445606856E+02  0.20529123270E+02  0.69604444627E+02  0.95088307462E+02  0.00000000000E+00 0.  1.
</event>
<event>
 7    1  0.2732144E-009  0.1270722E+03  0.7561462E-02  0.1231866E+00
          2   -1    0    0  501    0  0.00000000000E+00  0.00000000000E+00  0.13885724652E+04  0.13885724652E+04  0.00000000000E+00 0.  1.
         -2   -1    0    0    0  501 -0.00000000000E+00 -0.00000000000E+00 -0.24819042748E+02  0.24819042748E+02  0.00000000000E+00 0. -1.
         25    2    1    2    0    0 -0.47737356362E+02 -0.10483811597E+03  0.10826191623E+04  0.10958919024E+04  0.12507967636E+03 0.  0.
          5    1    3    3  502    0 -0.46186479837E+02 -0.71269594810E+02  0.10287847438E+04  0.10322926269E+04  0.41800000000E+01 0.  1.
         -5    1    3    3    0  502 -0.15508765250E+01 -0.33568521161E+02  0.53834418496E+02  0.63599275513E+02  0.41800000000E+01 0.  1.
        -11    1    1    2    0    0 -0.61850864949E+01 -0.80467348500E+01  0.40537116339E+00  0.10157241873E+02  0.00000000000E+00 0. -1.
         11    1    1    2    0    0  0.53922442857E+02  0.11288485082E+03  0.28072888898E+03  0.30734236365E+03  0.00000000000E+00 0.  1.
</event>
<event>
 6    1  0.2732144E-009  0.9539684E+02  0.7561462E-02  0.1290285E+00
          1   -1    0    0  501    0  0.00000000000E+00  0.00000000000E+00  0.50653386402E+03  0.50653386402E+03  0.00000000000E+00 0. -1.
         -1   -1    0    0    0  501 -0.00000000000E+00 -0.00000000000E+00 -0.25174255901E+02  0.25174255901E+02  0.00000000000E+00 0.  1.
          5    1    1    2  502    0 -0.52379344678E+02 -0.11865785942E+02  0.44918049547E+02  0.70139120325E+02  0.41800000000E+01 0. -1.
         -5    1    1    2    0  502  0.43529336333E+02 -0.53779398474E+01  0.21903769450E+03  0.22342495244E+03  0.41800000000E+01 0. -1.
        -11    1    1    2    0    0 -0.39435976779E+02 -0.49094008649E+01  0.59569593983E+02  0.71608903138E+02  0.00000000000E+00 0.  1.
         11    1    1    2    0    0  0.48285985124E+02  0.22153126654E+02  0.15783427009E+03  0.16653514402E+03  0.00000000000E+00 0. -1.
</event>
<event>
 7    1  0.2732144E-009  0.1811217E+03  0.7561462E-02  0.1166722E+00
          1   -1    0    0  501    0  0.00000000000E+00  0.00000000000E+00  0.41217224404E+02  0.41217224404E+02  0.00000000000E+00 0. -1.
         -1   -1    0    0    0  501 -0.00000000000E+00 -0.00000000000E+00 -0.86753578428E+03  0.86753578428E+03  0.00000000000E+00 0.  1.
         25    2    1    2    0    0 -0.14867232001E+03  0.34186838391E+02 -0.49076059531E+03  0.52892893350E+03  0.12509059169E+03 0.  0.
          5    1    3    3  502    0 -0.11899220549E+02  0.52999930418E+02 -0.19565441571E+03  0.20309777660E+03  0.41800000000E+01 0.  1.
         -5    1    3    3    0  502 -0.13677309946E+03 -0.18813092027E+02 -0.29510617960E+03  0.32583115690E+03  0.41800000000E+01 0.  1.
        -11    1    1    2    0    0  0.10023843384E+03  0.14126162018E+02 -0.25365996089E+03  0.27311292139E+03  0.00000000000E+00 0. -1.
         11    1    1    2    0    0  0.48433886169E+02 -0.48313000409E+02 -0.81898003678E+02  0.10671115380E+03  0.00000000000E+00 0.  1.
</event>
<event>
 7    1  0.2732144E-009  0.1562192E+03  0.7561462E-02  0.1193033E+00
          1   -1    0    0  501    0  0.00000000000E+00  0.00000000000E+00  0.35139044608E+02  0.35139044608E+02  0.00000000000E+00 0. -1.
         -1   -1    0    0    0  501 -0.00000000000E+00 -0.00000000000E+00 -0.76985688829E+03  0.76985688829E+03  0.00000000000E+00 0.  1.
         25    2    1    2    0    0  0.95775629858E+02 -0.63240776460E+02 -0.27853684705E+03  0.32619358409E+03  0.12508841696E+03 0.  0.
          5    1    3    3  502    0  0.39263162681E+02 -0.94883244153E+02 -0.14508681216E+03  0.17779786677E+03  0.41800000000E+01 0. -1.
         -5    1    3    3    0  502  0.56512467178E+02  0.31642467693E+02 -0.13345003489E+03  0.14839571732E+03  0.41800000000E+01 0. -1.
        -11    1    1    2    0    0 -0.11116936964E+03  0.65764969426E+02 -0.39106941731E+03  0.41184821125E+03  0.00000000000E+00 0.  1.
         11    1    1    2    0    0  0.15393739785E+02 -0.25241929667E+01 -0.65111579312E+02  0.66954137551E+02  0.00000000000E+00 0. -1.
</event>
<event>
 7    1  0.2732144E-009  0.2163402E+03  0.7561462E-02  0.1136641E+00
         -3   -1    0    0    0  501 -0.00000000000E+00  0.00000000000E+00  0.11324384483E+03  0.11324384483E+03  0.00000000000E+00 0.  1.
          3   -1    0    0  501    0  0.00000000000E+00 -0.00000000000E+00 -0.48454867930E+03  0.48454867930E+03  0.00000000000E+00 0. -1.
         25    2    1    2    0    0  0.90462018630E+02 -0.16615236386E+03 -0.29875655474E+03  0.37509010307E+03  0.12508845505E+03 0.  0.
          5    1    3    3  502    0  0.11857499818E+03 -0.12435107107E+03 -0.19677440325E+03  0.26126778838E+03  0.41800000000E+01 0.  1.
         -5    1    3    3    0  502 -0.28112979550E+02 -0.41801292787E+02 -0.10198215149E+03  0.11382231468E+03  0.41800000000E+01 0.  1.
        -11    1    1    2    0    0 -0.33501789178E+02  0.14606740864E+03 -0.46316961829E+02  0.15685445068E+03  0.00000000000E+00 0.  1.
         11    1    1    2    0    0 -0.56960229452E+02  0.20084955218E+02 -0.26231317890E+02  0.65847970383E+02  0.00000000000E+00 0. -1.
</event>
<event>
 7    1  0.2732144E-009  0.1121509E+03  0.7561462E-02  0.1256638E+00
          2   -1    0    0  501    0  0.00000000000E+00  0.00000000000E+00  0.95270723435E+03  0.95270723435E+03  0.00000000000E+00 0. -1.
         -2   -1    0    0    0  501 -0.00000000000E+00 -0.00000000000E+00 -0.15370462189E+02  0.15370462189E+02  0.00000000000E+00 0.  1.
         25    2    1    2    0    0 -0.42328990512E+00  0.60837772570E+01  0.62770467155E+03  0.64007359369E+03  0.12507541375E+03 0.  0.
          5    1    3    3  502    0  0.58772289658E+02  0.23120240735E+02  0.33533804286E+03  0.34125914340E+03  0.41800000000E+01 0.  1.
         -5    1    3    3    0  502 -0.59195579563E+02 -0.17036463478E+02  0.29236662869E+03  0.29881445029E+03  0.41800000000E+01 0.  1.
        -11    1    1    2    0    0  0.49658720326E+02 -0.10717727434E-01  0.22024274404E+03  0.22577168760E+03  0.00000000000E+00 0.  1.
         11    1    1    2    0    0 -0.49235430421E+02 -0.60730595296E+01  0.89389356564E+02  0.10223241525E+03  0.00000000000E+00 0. -1.
</event>
<event>
 7    1  0.2732144E-009  0.1073737E+03  0.7561462E-02  0.1265512E+00
          2   -1    0    0  501    0  0.00000000000E+00  0.00000000000E+00  0.18430896914E+02  0.18430896914E+02  0.00000000000E+00 0. -1.
         -2   -1    0    0    0  501 -0.00000000000E+00 -0.00000000000E+00 -0.73730655626E+03  0.73730655626E+03  0.00000000000E+00 0.  1.
         25    2    1    2    0    0 -0.18845751595E+02 -0.11197006543E+01 -0.28352556506E+03  0.31046801562E+03  0.12508887477E+03 0.  0.
          5    1    3    3  502    0  0.50699103457E+02 -0.72836096551E+01 -0.78360219377E+02  0.93708305085E+02  0.41800000000E+01 0. -1.
         -5    1    3    3    0  502 -0.69544855052E+02  0.61639090008E+01 -0.20516534569E+03  0.21675971053E+03  0.41800000000E+01 0. -1.
        -11    1    1    2    0    0 -0.29774082486E+02  0.25339103253E+02 -0.18920962315E+03  0.19320674842E+03  0.00000000000E+00 0.  1.
         11    1    1    2    0    0  0.48619834081E+02 -0.24219402599E+02 -0.24614047113E+03  0.25206268914E+03  0.00000000000E+00 0. -1.
</event>
<event>
 7    1  0.2732144E-009  0.1277375E+03  0.7561462E-02  0.1230852E+00
          2   -1    0    0  501    0  0.00000000000E+00  0.00000000000E+00  0.72401303520E+02  0.72401303520E+02  0.00000000000E+00 0. -1.
         -2   -1    0    0    0  501 -0.00000000000E+00 -0.00000000000E+00 -0.31508357745E+03  0.31508357745E+03  0.00000000000E+00 0.  1.
         25    2    1    2    0    0 -0.49954075682E+02 -0.89884702119E+02 -0.11206496423E+03  0.19693933764E+03  0.12510746240E+03 0.  0.
          5    1    3    3  502    0 -0.61959289506E+02 -0.94548171723E+02 -0.34588307418E+02  0.11828834999E+03  0.41800000000E+01 0. -1.
         -5    1    3    3    0  502  0.12005213824E+02  0.46634696034E+01 -0.77476656814E+02  0.78650987653E+02  0.41800000000E+01 0. -1.
        -11    1    1    2    0    0  0.14332836584E-01  0.77319975948E+02 -0.11135099484E+03  0.13556335397E+03  0.00000000000E+00 0.  1.
         11    1    1    2    0    0  0.49939742845E+02  0.12564726172E+02 -0.19266314854E+02  0.54982189364E+02  0.00000000000E+00 0. -1.
</event>
<event>
 7    1  0.2732144E-009  0.1078911E+03  0.7561462E-02  0.1264526E+00
          3   -1    0    0  501    0  0.00000000000E+00  0.00000000000E+00  0.14487322826E+03  0.14487322826E+03  0.00000000000E+00 0. -1.
         -3   -1    0    0    0  501 -0.00000000000E+00 -0.00000000000E+00 -0.29394153596E+03  0.29394153596E+03  0.00000000000E+00 0.  1.
         25    2    1    2    0    0 -0.68491386320E+02 -0.14404809103E+02  0.93171941163E+02  0.17094437482E+03  0.12506958118E+03 0.  0.
          5    1    3    3  502    0 -0.98832216264E+02  0.15931123181E+02  0.66379019568E+02  0.12018841166E+03  0.41800000000E+01 0. -1.
         -5    1    3    3    0  502  0.30340829945E+02 -0.30335932284E+02  0.26792921595E+02  0.50755963166E+02  0.41800000000E+01 0. -1.
        -11    1    1    2    0    0  0.25958256620E+02  0.14924153347E+02 -0.97042036927E+01  0.31475911571E+02  0.00000000000E+00 0. -1.
         11    1    1    2    0    0  0.42533129699E+02 -0.51934424445E+00 -0.23253604517E+03  0.23639447782E+03  0.00000000000E+00 0.  1.
</event>
<event>
 7    1  0.2732144E-009  0.1253633E+03  0.7561462E-02  0.1234503E+00
          2   -1    0    0  501    0  0.00000000000E+00  0.00000000000E+00  0.56018486801E+03  0.56018486801E+03  0.00000000000E+00 0. -1.
         -2   -1    0    0    0  501 -0.00000000000E+00 -0.00000000000E+00 -0.51227580915E+02  0.51227580915E+02  0.00000000000E+00 0.  1.
         25    2    1    2    0    0  0.61134205426E+02 -0.63128265016E+02  0.44266535551E+03  0.46832000107E+03  0.12509371491E+03 0.  0.
          5    1    3    3  502    0  0.78452816855E+02 -0.92145485179E+01  0.14391602969E+03  0.16422255746E+03  0.41800000000E+01 0. -1.
         -5    1    3    3    0  502 -0.17318611429E+02 -0.53913716498E+02  0.29874932582E+03  0.30409744361E+03  0.41800000000E+01 0. -1.
        -11    1    1    2    0    0 -0.77472655070E+02  0.41970674083E+02  0.74225311255E+02  0.11520827487E+03  0.00000000000E+00 0. -1.
         11    1    1    2    0    0  0.16338449644E+02  0.21157590933E+02 -0.79333796680E+01  0.27884172998E+02  0.00000000000E+00 0.  1.
</event>
<event>
 7    1  0.2732144E-009  0.1112622E+03  0.7561462E-02  0.1258250E+00
         -1   -1    0    0    0  501 -0.00000000000E+00  0.00000000000E+00  0.69413454915E+02  0.69413454915E+02  0.00000000000E+00 0.  1.
          1   -1    0    0  501    0  0.00000000000E+00 -0.00000000000E+00 -0.26972291637E+03  0.26972291637E+03  0.00000000000E+00 0. -1.
         25    2    1    2    0    0  0.13017322168E+02  0.80655207825E+02 -0.93759682127E+02  0.17639149748E+03  0.12509344173E+03 0.  0.
          5    1    3    3  502    0  0.59937012608E+02  0.67808478411E+02 -0.89548032937E+02  0.12738429192E+03  0.41800000000E+01 0. -1.
         -5    1    3    3    0  502 -0.46919690440E+02  0.12846729414E+02 -0.42116491904E+01  0.49007205557E+02  0.41800000000E+01 0. -1.
        -11    1    1    2    0    0  0.34621026588E+01 -0.11524843572E+02  0.16634270091E+02  0.20530638461E+02  0.00000000000E+00 0.  1.
         11    1    1    2    0    0 -0.16479424827E+02 -0.69130364253E+02 -0.12318404942E+03  0.14221423535E+03  0.00000000000E+00 0. -1.
</event>
<event>
 7    1  0.2732144E-009  0.1029829E+03  0.7561462E-02  0.1274145E+00
         -1   -1    0    0    0  501 -0.00000000000E+00  0.00000000000E+00  0.23120350534E+03  0.23120350534E+03  0.00000000000E+00 0.  1.
          1   -1    0    0  501    0  0.00000000000E+00 -0.00000000000E+00 -0.11688794644E+03  0.11688794644E+03  0.00000000000E+00 0. -1.
         25    2    1    2    0    0  0.27051304285E+02 -0.29673134913E+01 -0.65879586043E+02  0.14397521552E+03  0.12509262494E+03 0.  0.
          5    1    3    3  502    0 -0.40222595540E+02 -0.28694903433E+02 -0.49351858952E+02  0.69959510125E+02  0.41800000000E+01 0.  1.
         -5    1    3    3    0  502  0.67273899825E+02  0.25727589942E+02 -0.16527727091E+02  0.74015705392E+02  0.41800000000E+01 0.  1.
        -11    1    1    2    0    0 -0.48155334323E+02 -0.20794220356E+02  0.15477022970E+03  0.16341713443E+03  0.00000000000E+00 0.  1.
         11    1    1    2    0    0  0.21104030038E+02  0.23761533847E+02  0.25424915244E+02  0.40699101830E+02  0.00000000000E+00 0. -1.
</event>
<event>
 7    1  0.2732144E-009  0.1762623E+03  0.7561462E-02  0.1171470E+00
          2   -1    0    0  501    0  0.00000000000E+00  0.00000000000E+00  0.66006593833E+03  0.66006593833E+03  0.00000000000E+00 0.  1.
         -2   -1    0    0    0  501 -0.00000000000E+00 -0.00000000000E+00 -0.57962798410E+02  0.57962798410E+02  0.00000000000E+00 0. -1.
         25    2    1    2    0    0 -0.13987435769E+03 -0.62954971313E+02  0.40975374431E+03  0.45505324115E+03  0.12508859642E+03 0.  0.
          5    1    3    3  502    0 -0.12833097173E+02 -0.55115643043E+02  0.21496271912E+03  0.22232603424E+03  0.41800000000E+01 0. -1.
         -5    1    3    3    0  502 -0.12704126051E+03 -0.78393282702E+01  0.19479102519E+03  0.23272720691E+03  0.41800000000E+01 0. -1.
        -11    1    1    2    0    0  0.11462582719E+03  0.78361599851E+02  0.18700705509E+03  0.23291899717E+03  0.00000000000E+00 0.  1.
         11    1    1    2    0    0  0.25248530499E+02 -0.15406628537E+02  0.53423405266E+01  0.30056498425E+02  0.00000000000E+00 0. -1.
</event>
<event>
 7    1  0.2732144E-009  0.3474234E+03  0.7561462E-02  0.1063678E+00
         -1   -1    0    0    0  501 -0.00000000000E+00  0.00000000000E+00  0.15763769235E+03  0.15763769235E+03  0.00000000000E+00 0.  1.
          1   -1    0    0  501    0  0.00000000000E+00 -0.00000000000E+00 -0.87156399352E+03  0.87156399352E+03  0.00000000000E+00 0. -1.
         25    2    1    2    0    0 -0.25282548849E+03 -0.23265210980E+03 -0.47953874985E+03  0.60303708022E+03  0.12509426719E+03 0.  0.
          5    1    3    3  502    0 -0.10309385354E+02 -0.84801766345E+01 -0.95458191955E+02  0.96477643179E+02  0.41800000000E+01 0.  1.
         -5    1    3    3    0  502 -0.24251610313E+03 -0.22417193317E+03 -0.38408055790E+03  0.50655943704E+03  0.41800000000E+01 0.  1.
        -11    1    1    2    0    0  0.13275342502E+03  0.75216880088E+02 -0.13893707345E+03  0.20636027060E+03  0.00000000000E+00 0.  1.
         11    1    1    2    0    0  0.12007206346E+03  0.15743522971E+03 -0.95450477871E+02  0.21980433505E+03  0.00000000000E+00 0. -1.
</event>
<event>
 7    1  0.2732144E-009  0.1271116E+03  0.7561462E-02  0.1231806E+00
          2   -1    0    0  501    0  0.00000000000E+00  0.00000000000E+00  0.88275838523E+03  0.88275838523E+03  0.00000000000E+00 0.  1.
         -2   -1    0    0    0  501 -0.00000000000E+00 -0.00000000000E+00 -0.28836415552E+02  0.28836415552E+02  0.00000000000E+00 0. -1.
         25    2    1    2    0    0 -0.81295548070E+02 -0.87457890056E+02  0.45073769321E+03  0.48277362988E+03  0.12509220982E+03 0.  0.
          5    1    3    3  502    0 -0.17602416981E+02 -0.19243757233E+02  0.44157945270E+01  0.26779449534E+02  0.41800000000E+01 0.  1.
         -5    1    3    3    0  502 -0.63693131089E+02 -0.68214132823E+02  0.44632189869E+03  0.45599418035E+03  0.41800000000E+01 0.  1.
        -11    1    1    2    0    0  0.57764516939E+02  0.17162353288E+02  0.26754099892E+03  0.27424345369E+03  0.00000000000E+00 0.  1.
         11    1    1    2    0    0  0.23531031132E+02  0.70295536767E+02  0.13564327754E+03  0.15457771721E+03  0.00000000000E+00 0. -1.
</event>
<event>
 7    1  0.2732144E-009  0.1620975E+03  0.7561462E-02  0.1186349E+00
         -1   -1    0    0    0  501 -0.00000000000E+00  0.00000000000E+00  0.96167185842E+02  0.96167185842E+02  0.00000000000E+00 0.  1.
          1   -1    0    0  501    0  0.00000000000E+00 -0.00000000000E+00 -0.52320630316E+03  0.52320630316E+03  0.00000000000E+00 0. -1.
         25    2    1    2    0    0 -0.14424123860E+03 -0.11035096981E+02 -0.40294934849E+03  0.44602739499E+03  0.12507977996E+03 0.  0.
          5    1    3    3  502    0 -0.38179453191E+02 -0.48082304657E+02 -0.63419962027E+02  0.88369353571E+02  0.41800000000E+01 0. -1.
         -5    1    3    3    0  502 -0.10606178541E+03  0.37047207676E+02 -0.33952938646E+03  0.35765804142E+03  0.41800000000E+01 0. -1.
        -11    1    1    2    0    0  0.15881304139E+02 -0.11892833201E+02 -0.37339065557E+02  0.42283106785E+02  0.00000000000E+00 0. -1.
         11    1    1    2    0    0  0.12835993446E+03  0.22927930182E+02  0.13249296725E+02  0.13106298723E+03  0.00000000000E+00 0.  1.
</event>
<event>
 7    1  0.2732144E-009  0.1350161E+03  0.7561462E-02  0.1220197E+00
          2   -1    0    0  501    0  0.00000000000E+00  0.00000000000E+00  0.48086969879E+03  0.48086969879E+03  0.00000000000E+00 0. -1.
         -2   -1    0    0    0  501 -0.00000000000E+00 -0.00000000000E+00 -0.50404000192E+02  0.50404000192E+02  0.00000000000E+00 0.  1.
         25    2    1    2    0    0 -0.88979416670E+02  0.15428348112E+02  0.12178314161E+03  0.19655580267E+03  0.12509068498E+03 0.  0.
          5    1    3    3  502    0 -0.33391623965E+02 -0.50474178805E+02  0.21786325827E+02  0.64457425252E+02  0.41800000000E+01 0. -1.
         -5    1    3    3    0  502 -0.55587792705E+02  0.65902526916E+02  0.99996815778E+02  0.13209837742E+03  0.41800000000E+01 0. -1.
        -11    1    1    2    0    0 -0.32808757030E+01  0.22908992117E+02  0.10907378686E+03  0.11150191499E+03  0.00000000000E+00 0.  1.
         11    1    1    2    0    0  0.92260292373E+02 -0.38337340229E+02  0.19960877013E+03  0.22321598133E+03  0.00000000000E+00 0. -1.
</event>
<event>
 7    1  0.2732144E-009  0.1220524E+03  0.7561462E-02  0.1239749E+00
          2   -1    0    0  501    0  0.00000000000E+00  0.00000000000E+00  0.30575426864E+03  0.30575426864E+03  0.00000000000E+00 0. -1.
         -2   -1    0    0    0  501 -0.00000000000E+00 -0.00000000000E+00 -0.54741502281E+02  0.54741502281E+02  0.00000000000E+00 0.  1.
         25    2    1    2    0    0 -0.67848105054E+02 -0.40171968588E+01  0.12033430356E+03  0.18640733619E+03  0.12509135519E+03 0.  0.
          5    1    3    3  502    0 -0.11747282448E+02 -0.56261462394E+02  0.22072321828E+02  0.61709080259E+02  0.41800000000E+01 0.  1.
         -5    1    3    3    0  502 -0.56100822606E+02  0.52244265535E+02  0.98261981734E+02  0.12469825593E+03  0.41800000000E+01 0.  1.
        -11    1    1    2    0    0 -0.55871042631E+01 -0.28751742664E+02  0.14206455465E+02  0.32553061563E+02  0.00000000000E+00 0.  1.
         11    1    1    2    0    0  0.73435209317E+02  0.32768939523E+02  0.11647200733E+03  0.14153537316E+03  0.00000000000E+00 0. -1.
</event>
<event>
 7    1  0.2732144E-009  0.1056040E+03  0.7561462E-02  0.1268934E+00
         -1   -1    0    0    0  501 -0.00000000000E+00  0.00000000000E+00  0.25781263146E+03  0.25781263146E+03  0.00000000000E+00 0.  1.
          1   -1    0    0  501    0  0.00000000000E+00 -0.00000000000E+00 -0.75539094304E+02  0.75539094304E+02  0.00000000000E+00 0. -1.
         25    2    1    2    0    0  0.51794182762E+02  0.15469670622E+02  0.18714877831E+03  0.23150235961E+03  0.12508688661E+03 0.  0.
          5    1    3    3  502    0  0.81324288113E+02 -0.18442056452E+02  0.15503271143E+03  0.17608623824E+03  0.41800000000E+01 0.  1.
         -5    1    3    3    0  502 -0.29530105352E+02  0.33911727074E+02  0.32116066879E+02  0.55416121364E+02  0.41800000000E+01 0.  1.
        -11    1    1    2    0    0 -0.27437477922E+02  0.23814465682E+02  0.27373598075E+02  0.45489095858E+02  0.00000000000E+00 0.  1.
         11    1    1    2    0    0 -0.24356704840E+02 -0.39284136304E+02 -0.32248839237E+02  0.56360270296E+02  0.00000000000E+00 0. -1.
</event>
<event>
 7    1  0.2732144E-009  0.2045021E+03  0.7561462E-02  0.1145995E+00
         -3   -1    0    0    0  501 -0.00000000000E+00  0.00000000000E+00  0.14818705463E+03  0.14818705463E+03  0.00000000000E+00 0.  1.
          3   -1    0    0  501    0  0.00000000000E+00 -0.00000000000E+00 -0.39954438779E+03  0.39954438779E+03  0.00000000000E+00 0. -1.
         25    2    1    2    0    0  0.70582958349E+02 -0.17050466518E+03 -0.25964032612E+03  0.34221878133E+03  0.12508717154E+03 0.  0.
          5    1    3    3  502    0  0.55504025498E+02 -0.23588406210E+02 -0.26054905315E+02  0.65828870908E+02  0.41800000000E+01 0. -1.
         -5    1    3    3    0  502  0.15078932851E+02 -0.14691625897E+03 -0.23358542081E+03  0.27638991042E+03  0.41800000000E+01 0. -1.
        -11    1    1    2    0    0 -0.16507474692E+01  0.10720290870E+03  0.25855035838E+02  0.11028903608E+03  0.00000000000E+00 0.  1.
         11    1    1    2    0    0 -0.68932210880E+02  0.63301756484E+02 -0.17572042872E+02  0.95223625017E+02  0.00000000000E+00 0. -1.
</event>
<event>
 7    1  0.2732144E-009  0.1027247E+03  0.7561462E-02  0.1274668E+00
         -4   -1    0    0    0  501 -0.00000000000E+00  0.00000000000E+00  0.94251697554E+01  0.94251697554E+01  0.00000000000E+00 0.  1.
          4   -1    0    0  501    0  0.00000000000E+00 -0.00000000000E+00 -0.17788316235E+04  0.17788316235E+04  0.00000000000E+00 0. -1.
         25    2    1    2    0    0 -0.14098825361E+02  0.19937237707E+02 -0.14445397093E+04  0.14501515365E+04  0.12509291275E+03 0.  0.
          5    1    3    3  502    0  0.51724808730E+02  0.25395231231E+02 -0.50758951828E+03  0.51086687608E+03  0.41800000000E+01 0. -1.
         -5    1    3    3    0  502 -0.65823634091E+02 -0.54579935248E+01 -0.93695019104E+03  0.93928466047E+03  0.41800000000E+01 0. -1.
        -11    1    1    2    0    0  0.92340505167E+01 -0.50098571115E+02 -0.27457794960E+03  0.27926364769E+03  0.00000000000E+00 0. -1.
         11    1    1    2    0    0  0.48647748444E+01  0.30161333409E+02 -0.50288794863E+02  0.58841609054E+02  0.00000000000E+00 0.  1.
</event>
<event>
 6    1  0.2732144E-009  0.1068924E+03  0.7561462E-02  0.1266435E+00
         -3   -1    0    0    0  501 -0.00000000000E+00  0.00000000000E+00  0.33934124276E+03  0.33934124276E+03  0.00000000000E+00 0.  1.
          3   -1    0    0  501    0  0.00000000000E+00 -0.00000000000E+00 -0.40260296515E+02  0.40260296515E+02  0.00000000000E+00 0. -1.
          5    1    1    2  502    0  0.61578650681E+02 -0.19110516947E+02  0.65130052848E+02  0.91741693148E+02  0.41800000000E+01 0.  1.
         -5    1    1    2    0  502 -0.59313927349E+02  0.64135929826E+01  0.38980835938E+02  0.71388053082E+02  0.41800000000E+01 0.  1.
        -11    1    1    2    0    0  0.34682781871E+02 -0.19994625964E+02  0.12190999707E+03  0.12831495552E+03  0.00000000000E+00 0.  1.
         11    1    1    2    0    0 -0.36947505204E+02  0.32691549928E+02  0.73060060395E+02  0.88156837525E+02  0.00000000000E+00 0. -1.
</event>
<event>
 7    1  0.2732144E-009  0.1046032E+03  0.7561462E-02  0.1270903E+00
          1   -1    0    0  501    0  0.00000000000E+00  0.00000000000E+00  0.49559323977E+03  0.49559323977E+03  0.00000000000E+00 0. -1.
         -1   -1    0    0    0  501 -0.00000000000E+00 -0.00000000000E+00 -0.48796267448E+02  0.48796267448E+02  0.00000000000E+00 0.  1.
         25    2    1    2    0    0 -0.87905931382E+02 -0.23602592489E+01  0.12097678192E+03  0.19497750247E+03  0.12509125113E+03 0.  0.
          5    1    3    3  502    0 -0.80861775236E+02  0.10245191901E+02  0.14514366691E+03  0.16651650698E+03  0.41800000000E+01 0.  1.
         -5    1    3    3    0  502 -0.70441561459E+01 -0.12605451150E+02 -0.24166884989E+02  0.28460995495E+02  0.41800000000E+01 0.  1.
        -11    1    1    2    0    0  0.65791579373E+02 -0.30844743751E+02  0.12429900284E+03  0.14397976330E+03  0.00000000000E+00 0.  1.
         11    1    1    2    0    0  0.22114352009E+02  0.33205003000E+02  0.20152118756E+03  0.20543224144E+03  0.00000000000E+00 0. -1.
</event>
<event>
 7    1  0.2732144E-009  0.1189522E+03  0.7561462E-02  0.1244836E+00
          2   -1    0    0  501    0  0.00000000000E+00  0.00000000000E+00  0.18911707623E+04  0.18911707623E+04  0.00000000000E+00 0. -1.
         -2   -1    0    0    0  501 -0.00000000000E+00 -0.00000000000E+00 -0.14277670255E+02  0.14277670255E+02  0.00000000000E+00 0.  1.
         25    2    1    2    0    0  0.65482683295E+02  0.35527057249E+02  0.15737911901E+04  0.15805113654E+04  0.12508921737E+03 0.  0.
          5    1    3    3  502    0  0.66945485731E+02 -0.16171962624E+02  0.42630373053E+03  0.43185133263E+03  0.41800000000E+01 0.  1.
         -5    1    3    3    0  502 -0.14628024363E+01  0.51699019873E+02  0.11474874596E+04  0.11486600327E+04  0.41800000000E+01 0.  1.
        -11    1    1    2    0    0 -0.77377020313E+02  0.22531783101E+01  0.19455162219E+03  0.20938627887E+03  0.00000000000E+00 0. -1.
         11    1    1    2    0    0  0.11894337018E+02 -0.37780235559E+02  0.10855027975E+03  0.11555078834E+03  0.00000000000E+00 0.  1.
</event>
<event>
 7    1  0.2732144E-009  0.1449373E+03  0.7561462E-02  0.1206836E+00
         -1   -1    0    0    0  501 -0.00000000000E+00  0.00000000000E+00  0.33632212022E+03  0.33632212022E+03  0.00000000000E+00 0.  1.
          1   -1    0    0  501    0  0.00000000000E+00 -0.00000000000E+00 -0.78036624234E+02  0.78036624234E+02  0.00000000000E+00 0. -1.
         25    2    1    2    0    0  0.10767339771E+03 -0.46021632085E+02  0.10577950326E+03  0.20137307804E+03  0.12510100741E+03 0.  0.
          5    1    3    3  502    0  0.10066998770E+03 -0.30387641803E+01  0.11872718328E+03  0.15574754239E+03  0.41800000000E+01 0. -1.
         -5    1    3    3    0  502  0.70034100091E+01 -0.42982867905E+02 -0.12947680022E+02  0.45625535647E+02  0.41800000000E+01 0. -1.
        -11    1    1    2    0    0 -0.43751786612E+02 -0.24497995692E+02  0.32239012909E+02  0.59613124210E+02  0.00000000000E+00 0. -1.
         11    1    1    2    0    0 -0.63921611099E+02  0.70519627778E+02  0.12026697982E+03  0.15337254220E+03  0.00000000000E+00 0.  1.
</event>
<event>
 7    1  0.2732144E-009  0.9388921E+02  0.7561462E-02  0.1293698E+00
          1   -1    0    0  501    0  0.00000000000E+00  0.00000000000E+00  0.20641140946E+03  0.20641140946E+03  0.00000000000E+00 0. -1.
         -1   -1    0    0    0  501 -0.00000000000E+00 -0.00000000000E+00 -0.59428727165E+02  0.59428727165E+02  0.00000000000E+00 0.  1.
         25    2    1    2    0    0 -0.77458456129E+01  0.16416737522E+02  0.10563481164E+03  0.16472854577E+03  0.12508906013E+03 0.  0.
          5    1    3    3  502    0 -0.43099299265E+02 -0.17245982813E+02 -0.18051101369E+01  0.46644446003E+02  0.41800000000E+01 0. -1.
         -5    1    3    3    0  502  0.35353453652E+02  0.33662720335E+02  0.10743992178E+03  0.11808409977E+03  0.41800000000E+01 0. -1.
        -11    1    1    2    0    0 -0.39839302684E+02  0.46963166761E+01  0.20298667137E+02  0.44958439877E+02  0.00000000000E+00 0.  1.
         11    1    1    2    0    0  0.47585148297E+02 -0.21113054198E+02  0.21049203513E+02  0.56153150976E+02  0.00000000000E+00 0. -1.
</event>
<event>
 7    1  0.2732144E-009  0.1357978E+03  0.7561462E-02  0.1219098E+00
         -2   -1    0    0    0  501 -0.00000000000E+00  0.00000000000E+00  0.43532314980E+03  0.43532314980E+03  0.00000000000E+00 0.  1.
          2   -1    0    0  501    0  0.00000000000E+00 -0.00000000000E+00 -0.54808614898E+02  0.54808614898E+02  0.00000000000E+00 0. -1.
         25    2    1    2    0    0 -0.92747711711E+02  0.60117014498E+02  0.22620887967E+03  0.28113169346E+03  0.12509347851E+03 0.  0.
          5    1    3    3  502    0 -0.64067821201E+02  0.86828777950E+02  0.93988482473E+02  0.14316155081E+03  0.41800000000E+01 0.  1.
         -5    1    3    3    0  502 -0.28679890511E+02 -0.26711763452E+02  0.13222039720E+03  0.13797014264E+03  0.41800000000E+01 0.  1.
        -11    1    1    2    0    0  0.86388996776E+02 -0.27057047032E+02  0.14980675407E+03  0.17503487117E+03  0.00000000000E+00 0.  1.
         11    1    1    2    0    0  0.63587149357E+01 -0.33059967466E+02  0.44989011591E+01  0.33965200075E+02  0.00000000000E+00 0. -1.
</event>
<event>
 7    1  0.2732144E-009  0.1234630E+03  0.7561462E-02  0.1237491E+00
          1   -1    0    0  501    0  0.00000000000E+00  0.00000000000E+00  0.45587554936E+03  0.45587554936E+03  0.00000000000E+00 0. -1.
         -1   -1    0    0    0  501 -0.00000000000E+00 -0.00000000000E+00 -0.44209173196E+02  0.44209173196E+02  0.00000000000E+00 0.  1.
         25    2    1    2    0    0  0.65155339393E+02  0.40372475848E+02  0.31215701954E+03  0.34491411286E+03  0.12509430580E+03 0.  0.
          5    1    3    3  502    0  0.10076164535E+03  0.35381418087E+02  0.26285298072E+03  0.28374974149E+03  0.41800000000E+01 0. -1.
         -5    1    3    3    0  502 -0.35606305957E+02  0.49910577608E+01  0.49304038821E+02  0.61164371373E+02  0.41800000000E+01 0. -1.
        -11    1    1    2    0    0 -0.31687167399E+02  0.18091984296E+02  0.18565206417E+01  0.36535505230E+02  0.00000000000E+00 0.  1.
         11    1    1    2    0    0 -0.33468171994E+02 -0.58464460144E+02  0.97652835980E+02  0.11863510447E+03  0.00000000000E+00 0. -1.
</event>
<event>
 7    1  0.2732144E-009  0.6381755E+02  0.7561462E-02  0.1382475E+00
          1   -1    0    0  501    0  0.00000000000E+00  0.00000000000E+00  0.25349955405E+03  0.25349955405E+03  0.00000000000E+00 0. -1.
         -1   -1    0    0    0  501 -0.00000000000E+00 -0.00000000000E+00 -0.52542306336E+02  0.52542306336E+02  0.00000000000E+00 0.  1.
         25    2    1    2    0    0  0.23794678724E+02 -0.74032808869E+01  0.66977650270E+02  0.14406743492E+03  0.12509366437E+03 0.  0.
          5    1    3    3  502    0  0.13229669840E+01  0.15464025020E+02  0.97970280461E+02  0.99280081412E+02  0.41800000000E+01 0.  1.
         -5    1    3    3    0  502  0.22471711740E+02 -0.22867305907E+02 -0.30992630191E+02  0.44787353507E+02  0.41800000000E+01 0.  1.
        -11    1    1    2    0    0 -0.48307833265E+02 -0.97873237840E+01  0.11834270674E+03  0.12819685917E+03  0.00000000000E+00 0. -1.
         11    1    1    2    0    0  0.24513154541E+02  0.17190604671E+02  0.15636890708E+02  0.33777566305E+02  0.00000000000E+00 0.  1.
</event>
<event>
 6    1  0.2732144E-009  0.1299127E+03  0.7561462E-02  0.1227585E+00
          1   -1    0    0  501    0  0.00000000000E+00  0.00000000000E+00  0.61377171101E+03  0.61377171101E+03  0.00000000000E+00 0. -1.
         -1   -1    0    0    0  501 -0.00000000000E+00 -0.00000000000E+00 -0.46859909786E+02  0.46859909786E+02  0.00000000000E+00 0.  1.
          5    1    1    2  502    0 -0.14917946301E+02 -0.39387231273E+01 -0.12156127851E+02  0.20082392936E+02  0.41800000000E+01 0. -1.
         -5    1    1    2    0  502 -0.77581769680E+02  0.88150228679E+02  0.25057400875E+03  0.27675657185E+03  0.41800000000E+01 0. -1.
        -11    1    1    2    0    0  0.14357477115E+02 -0.53613161170E+01 -0.17163313634E+01  0.15421629387E+02  0.00000000000E+00 0.  1.
         11    1    1    2    0    0  0.78142238866E+02 -0.78850189435E+02  0.33021025170E+03  0.34837102663E+03  0.00000000000E+00 0. -1.
</event>
<event>
 7    1  0.2978542E-009  0.1270739E+03  0.7561462E-02  0.1231863E+00
          2   -1    0    0  501    0  0.00000000000E+00  0.00000000000E+00  0.12921829914E+04  0.12921829914E+04  0.00000000000E+00 0. -1.
         -2   -1    0    0    0  501 -0.00000000000E+00 -0.00000000000E+00 -0.19670574962E+02  0.19670574962E+02  0.00000000000E+00 0.  1.
         25    2    1    2    0    0 -0.24886870225E+02  0.11301017927E+03  0.64098719996E+03  0.66325094617E+03  0.12508625085E+03 0.  0.
          5    1    3    3  502    0 -0.24407446802E+02  0.55052034562E+02  0.85105718078E+02  0.10434033553E+03  0.41800000000E+01 0.  1.
         -5    1    3    3    0  502 -0.47942342270E+00  0.57958144703E+02  0.55588148188E+03  0.55891061064E+03  0.41800000000E+01 0. -1.
        -11    1    1    2    0    0  0.34423168758E+02 -0.15594449001E+02  0.80221278724E+02  0.88676913270E+02  0.00000000000E+00 0.  1.
         11    1    1    2    0    0 -0.95362985329E+01 -0.97415730265E+02  0.55130393775E+03  0.55992570692E+03  0.00000000000E+00 0. -1.
</event>
<event>
 7    1  0.2732144E-009  0.1060292E+03  0.7561462E-02  0.1268105E+00
         -2   -1    0    0    0  501 -0.00000000000E+00  0.00000000000E+00  0.28884226072E+02  0.28884226072E+02  0.00000000000E+00 0.  1.
          2   -1    0    0  501    0  0.00000000000E+00 -0.00000000000E+00 -0.44569478509E+03  0.44569478509E+03  0.00000000000E+00 0. -1.
         25    2    1    2    0    0  0.98784851336E-01  0.32703351704E+02 -0.25765827294E+03  0.28827928515E+03  0.12509053387E+03 0.  0.
          5    1    3    3  502    0 -0.50916336240E+02 -0.56571949010E+01 -0.18243109149E+03  0.18953377718E+03  0.41800000000E+01 0.  1.
         -5    1    3    3    0  502  0.51015121091E+02  0.38360546605E+02 -0.75227181449E+02  0.98745507971E+02  0.41800000000E+01 0.  1.
        -11    1    1    2    0    0  0.13475922082E+02 -0.62507382482E+02 -0.11003354548E+03  0.12726411305E+03  0.00000000000E+00 0. -1.
         11    1    1    2    0    0 -0.13574706934E+02  0.29804030777E+02 -0.49118740604E+02  0.59035612959E+02  0.00000000000E+00 0.  1.
</event>
<event>
 7    1  0.2732144E-009  0.7380428E+02  0.7561462E-02  0.1347614E+00
         -1   -1    0    0    0  501 -0.00000000000E+00  0.00000000000E+00  0.91638290816E+02  0.91638290816E+02  0.00000000000E+00 0.  1.
          1   -1    0    0  501    0  0.00000000000E+00 -0.00000000000E+00 -0.15601229065E+03  0.15601229065E+03  0.00000000000E+00 0. -1.
         25    2    1    2    0    0 -0.76488228333E+00  0.28809385874E+02 -0.67883706573E+02  0.14520535117E+03  0.12508329477E+03 0.  0.
          5    1    3    3  502    0  0.29071342927E+02  0.40948103139E+02  0.17901090493E+02  0.53477206089E+02  0.41800000000E+01 0.  1.
         -5    1    3    3    0  502 -0.29836225210E+02 -0.12138717265E+02 -0.85784797066E+02  0.91728145077E+02  0.41800000000E+01 0.  1.
        -11    1    1    2    0    0  0.18901129434E+01  0.17906479392E+02 -0.36647229324E+02  0.40831776208E+02  0.00000000000E+00 0. -1.
         11    1    1    2    0    0 -0.11252306600E+01 -0.46715865266E+02  0.40156936061E+02  0.61613454094E+02  0.00000000000E+00 0.  1.
</event>
<event>
 7    1  0.2732144E-009  0.9705557E+02  0.7561462E-02  0.1286612E+00
         -2   -1    0    0    0  501 -0.00000000000E+00  0.00000000000E+00  0.55591562501E+02  0.55591562501E+02  0.00000000000E+00 0.  1.
          2   -1    0    0  501    0  0.00000000000E+00 -0.00000000000E+00 -0.38269303797E+03  0.38269303797E+03  0.00000000000E+00 0. -1.
         25    2    1    2    0    0  0.44812695777E+02  0.50819913256E+02 -0.71812493900E+02  0.15936136445E+03  0.12509264133E+03 0.  0.
          5    1    3    3  502    0  0.13647619241E+02 -0.16140223770E+02 -0.81913030344E+02  0.84699358170E+02  0.41800000000E+01 0. -1.
         -5    1    3    3    0  502  0.31165076536E+02  0.66960137026E+02  0.10100536443E+02  0.74662006285E+02  0.41800000000E+01 0. -1.
        -11    1    1    2    0    0 -0.27200311824E+02 -0.68457823432E+02 -0.23650716987E+03  0.24771348763E+03  0.00000000000E+00 0. -1.
         11    1    1    2    0    0 -0.17612383953E+02  0.17637910176E+02 -0.18781811699E+02  0.31209748390E+02  0.00000000000E+00 0.  1.
</event>
<event>
 7    1  0.2732144E-009  0.1044764E+03  0.7561462E-02  0.1271155E+00
         -3   -1    0    0    0  501 -0.00000000000E+00  0.00000000000E+00  0.19423140637E+03  0.19423140637E+03  0.00000000000E+00 0.  1.
          3   -1    0    0  501    0  0.00000000000E+00 -0.00000000000E+00 -0.65897486661E+02  0.65897486661E+02  0.00000000000E+00 0. -1.
         25    2    1    2    0    0  0.12578851067E+02 -0.19389841202E+02  0.98500046505E+02  0.16088544867E+03  0.12509066711E+03 0.  0.
          5    1    3    3  502    0  0.37225616311E+02  0.38617387784E+02  0.14377729453E+02  0.55688783908E+02  0.41800000000E+01 0.  1.
         -5    1    3    3    0  502 -0.24646765244E+02 -0.58007228986E+02  0.84122317053E+02  0.10519666477E+03  0.41800000000E+01 0.  1.
        -11    1    1    2    0    0 -0.29086500503E+02  0.49635523396E+02  0.71099008849E+01  0.57967752975E+02  0.00000000000E+00 0.  1.
         11    1    1    2    0    0  0.16507649436E+02 -0.30245682194E+02  0.22723972321E+02  0.41275691385E+02  0.00000000000E+00 0. -1.
</event>
<event>
 7    1  0.2732144E-009  0.9965314E+02  0.7561462E-02  0.1281027E+00
         -2   -1    0    0    0  501 -0.00000000000E+00  0.00000000000E+00  0.43168413301E+02  0.43168413301E+02  0.00000000000E+00 0.  1.
          2   -1    0    0  501    0  0.00000000000E+00 -0.00000000000E+00 -0.50649148745E+03  0.50649148745E+03  0.00000000000E+00 0. -1.
         25    2    1    2    0    0 -0.48455121684E+02  0.67729320159E+02 -0.14661802222E+03  0.20995051772E+03  0.12508883173E+03 0.  0.
          5    1    3    3  502    0 -0.24982803414E+02  0.39296436242E+02 -0.16286561089E+03  0.16944329428E+03  0.41800000000E+01 0.  1.
         -5    1    3    3    0  502 -0.23472318270E+02  0.28432883916E+02  0.16247588670E+02  0.40507223434E+02  0.41800000000E+01 0.  1.
        -11    1    1    2    0    0 -0.13097189679E+02 -0.49571999663E+02 -0.84865227257E+02  0.99151532139E+02  0.00000000000E+00 0.  1.
         11    1    1    2    0    0  0.61552311363E+02 -0.18157320495E+02 -0.23183982467E+03  0.24055785089E+03  0.00000000000E+00 0. -1.
</event>
<event>
 7    1  0.2732144E-009  0.9391806E+02  0.7561462E-02  0.1293632E+00
          2   -1    0    0  501    0  0.00000000000E+00  0.00000000000E+00  0.19276292310E+04  0.19276292310E+04  0.00000000000E+00 0. -1.
         -2   -1    0    0    0  501 -0.00000000000E+00 -0.00000000000E+00 -0.13080574257E+02  0.13080574257E+02  0.00000000000E+00 0.  1.
         25    2    1    2    0    0 -0.18838647360E+02 -0.63707365102E+02  0.16130602971E+04  0.16192665833E+04  0.12508885939E+03 0.  0.
          5    1    3    3  502    0 -0.22975739005E+02  0.60239497511E+01  0.60497599076E+02  0.65127601271E+02  0.41800000000E+01 0.  1.
         -5    1    3    3    0  502  0.41370916459E+01 -0.69731314853E+02  0.15525626980E+04  0.15541389820E+04  0.41800000000E+01 0.  1.
        -11    1    1    2    0    0  0.19557390879E+02 -0.86457867909E+01  0.15412836551E+02  0.26358996525E+02  0.00000000000E+00 0.  1.
         11    1    1    2    0    0 -0.71874351989E+00  0.72353151893E+02  0.28607552314E+03  0.29508422547E+03  0.00000000000E+00 0. -1.
</event>
<event>
 7    1  0.2732144E-009  0.1184334E+03  0.7561462E-02  0.1245704E+00
          2   -1    0    0  501    0  0.00000000000E+00  0.00000000000E+00  0.75747917095E+03  0.75747917095E+03  0.00000000000E+00 0. -1.
         -2   -1    0    0    0  501 -0.00000000000E+00 -0.00000000000E+00 -0.32244429489E+02  0.32244429489E+02  0.00000000000E+00 0.  1.
         25    2    1    2    0    0 -0.95205097139E+00  0.11064402173E+03  0.37069722160E+03  0.40658196363E+03  0.12509779018E+03 0.  0.
          5    1    3    3  502    0  0.21440598642E+02  0.12127769466E+02  0.29169321314E+01  0.25154779972E+02  0.41800000000E+01 0. -1.
         -5    1    3    3    0  502 -0.22392649614E+02  0.98516252259E+02  0.36778028947E+03  0.38142718366E+03  0.41800000000E+01 0. -1.
        -11    1    1    2    0    0  0.29528463438E+01 -0.48457576169E+02  0.28793341188E+03  0.29199744120E+03  0.00000000000E+00 0. -1.
         11    1    1    2    0    0 -0.20007953724E+01 -0.62186445556E+02  0.66604107990E+02  0.91144195614E+02  0.00000000000E+00 0.  1.
</event>
<event>
 7    1  0.2732144E-009  0.1610081E+03  0.7561462E-02  0.1187563E+00
         -2   -1    0    0    0  501 -0.00000000000E+00  0.00000000000E+00  0.19346427347E+03  0.19346427347E+03  0.00000000000E+00 0.  1.
          2   -1    0    0  501    0  0.00000000000E+00 -0.00000000000E+00 -0.18371739801E+03  0.18371739801E+03  0.00000000000E+00 0. -1.
         25    2    1    2    0    0 -0.77442302795E+02 -0.13090479712E+03  0.26871904624E+02  0.19875787655E+03  0.12509683474E+03 0.  0.
          5    1    3    3  502    0 -0.85569264269E+02 -0.13399436161E+03  0.55579297220E+02  0.16847290171E+03  0.41800000000E+01 0.  1.
         -5    1    3    3    0  502  0.81269614733E+01  0.30895644881E+01 -0.28707392596E+02  0.30284974842E+02  0.41800000000E+01 0.  1.
        -11    1    1    2    0    0  0.75203486623E+02  0.11592295027E+03  0.18783583760E+02  0.13945077202E+03  0.00000000000E+00 0.  1.
         11    1    1    2    0    0  0.22388161725E+01  0.14981846855E+02 -0.35908612920E+02  0.38973022912E+02  0.00000000000E+00 0. -1.
</event>
<event>
 7    1  0.2732144E-009  0.1457235E+03  0.7561462E-02  0.1205829E+00
          2   -1    0    0  501    0  0.00000000000E+00  0.00000000000E+00  0.57384140817E+03  0.57384140817E+03  0.00000000000E+00 0.  1.
         -2   -1    0    0    0  501 -0.00000000000E+00 -0.00000000000E+00 -0.40656381367E+02  0.40656381367E+02  0.00000000000E+00 0. -1.
         25    2    1    2    0    0 -0.19002562864E+02 -0.96635984843E+02  0.19916350102E+03  0.25498309745E+03  0.12510263342E+03 0.  0.
          5    1    3    3  502    0  0.28633655347E+02 -0.10630389915E+03  0.13120672963E+03  0.17132741606E+03  0.41800000000E+01 0. -1.
         -5    1    3    3    0  502 -0.47636218211E+02  0.96679143057E+01  0.67956771383E+02  0.83655681393E+02  0.41800000000E+01 0. -1.
        -11    1    1    2    0    0  0.43800475312E+02  0.98318134429E+02  0.28254418099E+03  0.30235104003E+03  0.00000000000E+00 0.  1.
         11    1    1    2    0    0 -0.24797912448E+02 -0.16821495867E+01  0.51477344800E+02  0.57163652059E+02  0.00000000000E+00 0. -1.
</event>
<event>
 7    1  0.2732144E-009  0.1020073E+03  0.7561462E-02  0.1276131E+00
          2   -1    0    0  501    0  0.00000000000E+00  0.00000000000E+00  0.60919822835E+03  0.60919822835E+03  0.00000000000E+00 0. -1.
         -2   -1    0    0    0  501 -0.00000000000E+00 -0.00000000000E+00 -0.20903567968E+02  0.20903567968E+02  0.00000000000E+00 0.  1.
         25    2    1    2    0    0 -0.17121263796E+01 -0.29911125706E+02  0.36959904411E+03  0.39134184571E+03  0.12508948788E+03 0.  0.
          5    1    3    3  502    0  0.94555059662E+01  0.43681863908E+02  0.74564428571E+02  0.87033546611E+02  0.41800000000E+01 0.  1.
         -5    1    3    3    0  502 -0.11167632346E+02 -0.73592989615E+02  0.29503461554E+03  0.30430829910E+03  0.41800000000E+01 0.  1.
        -11    1    1    2    0    0  0.18466564600E+02 -0.22755545418E+02  0.29202462164E+02  0.41371640671E+02  0.00000000000E+00 0.  1.
         11    1    1    2    0    0 -0.16754438220E+02  0.52666671124E+02  0.18949315411E+03  0.19738830994E+03  0.00000000000E+00 0. -1.
</event>
<event>
 7    1  0.2732144E-009  0.1426777E+03  0.7561462E-02  0.1209771E+00
         -4   -1    0    0    0  501 -0.00000000000E+00  0.00000000000E+00  0.16585437695E+03  0.16585437695E+03  0.00000000000E+00 0.  1.
          4   -1    0    0  501    0  0.00000000000E+00 -0.00000000000E+00 -0.28455013540E+03  0.28455013540E+03  0.00000000000E+00 0. -1.
         25    2    1    2    0    0 -0.12193824245E+03 -0.46536157414E+02 -0.20173962704E+03  0.27089133214E+03  0.12509471527E+03 0.  0.
          5    1    3    3  502    0 -0.38759478762E+00 -0.31745135968E+02  0.31377646762E+01  0.32174863706E+02  0.41800000000E+01 0.  1.
         -5    1    3    3    0  502 -0.12155064767E+03 -0.14791021447E+02 -0.20487739171E+03  0.23871646843E+03  0.41800000000E+01 0.  1.
        -11    1    1    2    0    0  0.53255187999E+02  0.25029079742E+02  0.89652566151E+02  0.10723876398E+03  0.00000000000E+00 0.  1.
         11    1    1    2    0    0  0.68683054456E+02  0.21507077673E+02 -0.66086975666E+01  0.72274416241E+02  0.00000000000E+00 0. -1.
</event>
<event>
 7    1  0.2732144E-009  0.1842016E+03  0.7561462E-02  0.1163798E+00
          1   -1    0    0  501    0  0.00000000000E+00  0.00000000000E+00  0.57206412780E+03  0.57206412780E+03  0.00000000000E+00 0. -1.
         -1   -1    0    0    0  501 -0.00000000000E+00 -0.00000000000E+00 -0.73382568601E+02  0.73382568601E+02  0.00000000000E+00 0.  1.
         25    2    1    2    0    0 -0.33052193723E+02  0.16856973553E+03  0.29459462176E+03  0.36323920801E+03  0.12509407587E+03 0.  0.
          5    1    3    3  502    0  0.95000322037E+01  0.10925592188E+03  0.78017994606E+02  0.13465283866E+03  0.41800000000E+01 0. -1.
         -5    1    3    3    0  502 -0.42552225927E+02  0.59313813646E+02  0.21657662715E+03  0.22858636934E+03  0.41800000000E+01 0. -1.
        -11    1    1    2    0    0 -0.17818410627E+02 -0.13553913270E+02  0.19910566619E+01  0.22475956684E+02  0.00000000000E+00 0.  1.
         11    1    1    2    0    0  0.50870604351E+02 -0.15501582226E+03  0.20209588078E+03  0.25973153171E+03  0.00000000000E+00 0. -1.
</event>
<event>
 6    1  0.2732144E-009  0.2069724E+03  0.7561462E-02  0.1143986E+00
         -3   -1    0    0    0  501 -0.00000000000E+00  0.00000000000E+00  0.14840933341E+03  0.14840933341E+03  0.00000000000E+00 0.  1.
          3   -1    0    0  501    0  0.00000000000E+00 -0.00000000000E+00 -0.34938177307E+03  0.34938177307E+03  0.00000000000E+00 0. -1.
          5    1    1    2  502    0  0.56685541517E+02  0.68390047678E+01  0.25442424539E+02  0.62648319768E+02  0.41800000000E+01 0. -1.
         -5    1    1    2    0  502  0.12846255150E+03  0.67881165707E+02 -0.13202633804E+03  0.19636421805E+03  0.41800000000E+01 0. -1.
        -11    1    1    2    0    0 -0.16140149770E+03 -0.35138503859E+02 -0.98692589056E+02  0.19241981459E+03  0.00000000000E+00 0. -1.
         11    1    1    2    0    0 -0.23746595317E+02 -0.39581666615E+02  0.43040628973E+01  0.46358754067E+02  0.00000000000E+00 0.  1.
</event>
<event>
 7    1  0.2732144E-009  0.2023116E+03  0.7561462E-02  0.1147803E+00
          1   -1    0    0  501    0  0.00000000000E+00  0.00000000000E+00  0.70796352537E+03  0.70796352537E+03  0.00000000000E+00 0. -1.
         -1   -1    0    0    0  501 -0.00000000000E+00 -0.00000000000E+00 -0.67463858610E+02  0.67463858610E+02  0.00000000000E+00 0.  1.
         25    2    1    2    0    0  0.76479886184E+02  0.16611858122E+03  0.26690706287E+03  0.34688773649E+03  0.12508863058E+03 0.  0.
          5    1    3    3  502    0  0.10103460724E+03  0.16424888242E+03  0.21227690171E+03  0.28681813512E+03  0.41800000000E+01 0. -1.
         -5    1    3    3    0  502 -0.24554721060E+02  0.18696988050E+01  0.54630161168E+02  0.60069601374E+02  0.41800000000E+01 0. -1.
        -11    1    1    2    0    0 -0.26777416997E+02 -0.10300798069E+03  0.11035078259E+03  0.15331330460E+03  0.00000000000E+00 0.  1.
         11    1    1    2    0    0 -0.49702469187E+02 -0.63110600528E+02  0.26324182129E+03  0.27522634289E+03  0.00000000000E+00 0. -1.
</event>
<event>
 7    1  0.2732144E-009  0.1184470E+03  0.7561462E-02  0.1245681E+00
         -2   -1    0    0    0  501 -0.00000000000E+00  0.00000000000E+00  0.68961945044E+02  0.68961945044E+02  0.00000000000E+00 0.  1.
          2   -1    0    0  501    0  0.00000000000E+00 -0.00000000000E+00 -0.25256477792E+03  0.25256477792E+03  0.00000000000E+00 0. -1.
         25    2    1    2    0    0 -0.52095624711E+02 -0.23342621814E+02 -0.53103163311E+02  0.14739885570E+03  0.12509054561E+03 0.  0.
          5    1    3    3  502    0 -0.50691196555E+02  0.44942883398E+02 -0.36155894206E+02  0.76903714228E+02  0.41800000000E+01 0.  1.
         -5    1    3    3    0  502 -0.14044281562E+01 -0.68285505212E+02 -0.16947269105E+02  0.70495141468E+02  0.41800000000E+01 0.  1.
        -11    1    1    2    0    0  0.43148999325E+02  0.53732053358E+02 -0.12389045091E+03  0.14176675748E+03  0.00000000000E+00 0. -1.
         11    1    1    2    0    0  0.89466253860E+01 -0.30389431544E+02 -0.66092186573E+01  0.32361109786E+02  0.00000000000E+00 0.  1.
</event>
<event>
 7    1  0.2732144E-009  0.1273651E+03  0.7561462E-02  0.1231419E+00
         -4   -1    0    0    0  501 -0.00000000000E+00  0.00000000000E+00  0.70926568626E+02  0.70926568626E+02  0.00000000000E+00 0.  1.
          4   -1    0    0  501    0  0.00000000000E+00 -0.00000000000E+00 -0.39554151988E+03  0.39554151988E+03  0.00000000000E+00 0. -1.
         25    2    1    2    0    0 -0.86512557852E+02  0.44683388287E+02 -0.28496498574E+03  0.32608799807E+03  0.12508921428E+03 0.  0.
          5    1    3    3  502    0 -0.11653871734E+03  0.48787471412E+02 -0.24571812515E+03  0.27632654493E+03  0.41800000000E+01 0. -1.
         -5    1    3    3    0  502  0.30026159487E+02 -0.41040831249E+01 -0.39246860598E+02  0.49761453140E+02  0.41800000000E+01 0. -1.
        -11    1    1    2    0    0  0.44400018266E+02 -0.18220866391E+02  0.28646484508E+02  0.55892599409E+02  0.00000000000E+00 0.  1.
         11    1    1    2    0    0  0.42112539586E+02 -0.26462521897E+02 -0.68296450013E+02  0.84487491026E+02  0.00000000000E+00 0. -1.
</event>
<event>
 7    1  0.2732144E-009  0.1291731E+03  0.7561462E-02  0.1228688E+00
         -1   -1    0    0    0  501 -0.00000000000E+00  0.00000000000E+00  0.32055349164E+02  0.32055349164E+02  0.00000000000E+00 0. -1.
          1   -1    0    0  501    0  0.00000000000E+00 -0.00000000000E+00 -0.70512234582E+03  0.70512234582E+03  0.00000000000E+00 0.  1.
         25    2    1    2    0    0 -0.10231101310E+03 -0.18130893773E+02 -0.34301601992E+03  0.37960959763E+03  0.12508870446E+03 0.  0.
          5    1    3    3  502    0  0.24250585056E+02  0.51936612665E+01 -0.20862276911E+02  0.32676780606E+02  0.41800000000E+01 0.  1.
         -5    1    3    3    0  502 -0.12656159816E+03 -0.23324555039E+02 -0.32215374301E+03  0.34693281703E+03  0.41800000000E+01 0.  1.
        -11    1    1    2    0    0  0.69659714914E+02  0.17287924427E+02 -0.31220457629E+03  0.32034831928E+03  0.00000000000E+00 0.  1.
         11    1    1    2    0    0  0.32651298187E+02  0.84296934604E+00 -0.17846400454E+02  0.37219778073E+02  0.00000000000E+00 0. -1.
</event>
<event>
 7    1  0.2732144E-009  0.1396129E+03  0.7561462E-02  0.1213851E+00
         -2   -1    0    0    0  501 -0.00000000000E+00  0.00000000000E+00  0.12839897955E+02  0.12839897955E+02  0.00000000000E+00 0.  1.
          2   -1    0    0  501    0  0.00000000000E+00 -0.00000000000E+00 -0.17222096512E+04  0.17222096512E+04  0.00000000000E+00 0. -1.
         25    2    1    2    0    0  0.81189346392E+02 -0.54071653097E+02 -0.11933602526E+04  0.12038565477E+04  0.12508573511E+03 0.  0.
          5    1    3    3  502    0  0.11214568982E+03 -0.54124489218E+02 -0.10325967890E+04  0.10400863989E+04  0.41800000000E+01 0.  1.
         -5    1    3    3    0  502 -0.30956343431E+02  0.52836120578E-01 -0.16076346359E+03  0.16377014873E+03  0.41800000000E+01 0.  1.
        -11    1    1    2    0    0 -0.91888554347E+02  0.29357793386E+02 -0.44284469518E+03  0.45322931338E+03  0.00000000000E+00 0.  1.
         11    1    1    2    0    0  0.10699207955E+02  0.24713859711E+02 -0.73164805457E+02  0.77963688152E+02  0.00000000000E+00 0. -1.
</event>
<event>
 7    1  0.3300032E-009  0.1008895E+03  0.7561462E-02  0.1278437E+00
          1   -1    0    0  501    0  0.00000000000E+00  0.00000000000E+00  0.32549685349E+02  0.32549685349E+02  0.00000000000E+00 0. -1.
         -1   -1    0    0    0  501 -0.00000000000E+00 -0.00000000000E+00 -0.39333439714E+03  0.39333439714E+03  0.00000000000E+00 0.  1.
         25    2    1    2    0    0  0.13160722084E+02 -0.16017076210E+02 -0.15742239804E+03  0.20213687240E+03  0.12509097667E+03 0.  0.
          5    1    3    3  502    0 -0.56037789210E+02 -0.30969304513E+01 -0.69832771781E+02  0.89687865469E+02  0.41800000000E+01 0. -1.
         -5    1    3    3    0  502  0.69198511294E+02 -0.12920145758E+02 -0.87589626263E+02  0.11244900693E+03  0.41800000000E+01 0. -1.
        -11    1    1    2    0    0 -0.21162597991E+02 -0.25250291580E+02 -0.15999017864E+03  0.16334714580E+03  0.00000000000E+00 0.  1.
         11    1    1    2    0    0  0.80018759075E+01  0.41267367789E+02 -0.43372135105E+02  0.60400064287E+02  0.00000000000E+00 0. -1.
</event>
<event>
 7    1  0.2732144E-009  0.1623678E+03  0.7561462E-02  0.1186049E+00
         -2   -1    0    0    0  501 -0.00000000000E+00  0.00000000000E+00  0.23882565907E+02  0.23882565907E+02  0.00000000000E+00 0.  1.
          2   -1    0    0  501    0  0.00000000000E+00 -0.00000000000E+00 -0.11796742077E+04  0.11796742077E+04  0.00000000000E+00 0. -1.
         25    2    1    2    0    0  0.10383031013E+03  0.74113620893E+02 -0.62619467425E+03  0.65118309610E+03  0.12508434148E+03 0.  0.
          5    1    3    3  502    0  0.20515957766E+02  0.81814209413E+02 -0.42386294760E+03  0.43219410007E+03  0.41800000000E+01 0.  1.
         -5    1    3    3    0  502  0.83314352369E+02 -0.77005885196E+01 -0.20233172665E+03  0.21898899603E+03  0.41800000000E+01 0.  1.
        -11    1    1    2    0    0 -0.14420616580E+02  0.21319092766E+02 -0.10406963770E+03  0.10720516495E+03  0.00000000000E+00 0. -1.
         11    1    1    2    0    0 -0.89409693555E+02 -0.95432713660E+02 -0.42552732988E+03  0.44516851260E+03  0.00000000000E+00 0.  1.
</event>
<event>
 7    1  0.2732144E-009  0.9085289E+02  0.7561462E-02  0.1300799E+00
          2   -1    0    0  501    0  0.00000000000E+00  0.00000000000E+00  0.13637263012E+03  0.13637263012E+03  0.00000000000E+00 0. -1.
         -2   -1    0    0    0  501 -0.00000000000E+00 -0.00000000000E+00 -0.10228932077E+03  0.10228932077E+03  0.00000000000E+00 0.  1.
         25    2    1    2    0    0 -0.31221305583E+02 -0.30874774240E+02  0.32941711891E+02  0.13661924892E+03  0.12510651936E+03 0.  0.
          5    1    3    3  502    0 -0.64802684689E+02  0.22607679807E+02  0.11001771135E+02  0.69634808087E+02  0.41800000000E+01 0.  1.
         -5    1    3    3    0  502  0.33581379106E+02 -0.53482454047E+02  0.21939940756E+02  0.66984440834E+02  0.41800000000E+01 0.  1.
        -11    1    1    2    0    0  0.15805845297E+02  0.75878617737E+00  0.44394189697E+02  0.47130081486E+02  0.00000000000E+00 0. -1.
         11    1    1    2    0    0  0.15415460286E+02  0.30115988063E+02 -0.43252592241E+02  0.54912620484E+02  0.00000000000E+00 0.  1.
</event>
<event>
 7    1  0.2732144E-009  0.1057126E+03  0.7561462E-02  0.1268722E+00
         -2   -1    0    0    0  501 -0.00000000000E+00  0.00000000000E+00  0.71185370399E+02  0.71185370399E+02  0.00000000000E+00 0.  1.
          2   -1    0    0  501    0  0.00000000000E+00 -0.00000000000E+00 -0.20263642018E+03  0.20263642018E+03  0.00000000000E+00 0. -1.
         25    2    1    2    0    0  0.40121563755E+02  0.20307613239E+02 -0.10126392915E+03  0.16710002648E+03  0.12508355796E+03 0.  0.
          5    1    3    3  502    0 -0.14546153212E+01 -0.50278271831E+02 -0.32191909977E+02  0.59864947942E+02  0.41800000000E+01 0. -1.
         -5    1    3    3    0  502  0.41576179077E+02  0.70585885070E+02 -0.69072019168E+02  0.10723507854E+03  0.41800000000E+01 0. -1.
        -11    1    1    2    0    0  0.16915210091E+02 -0.13182899428E+02  0.20808072002E+02  0.29881248806E+02  0.00000000000E+00 0.  1.
         11    1    1    2    0    0 -0.57036773847E+02 -0.71247138108E+01 -0.50995192635E+02  0.76840515288E+02  0.00000000000E+00 0. -1.
</event>
<event>
 7    1  0.2732144E-009  0.6282798E+02  0.7561462E-02  0.1386333E+00
          1   -1    0    0  501    0  0.00000000000E+00  0.00000000000E+00  0.46274713237E+03  0.46274713237E+03  0.00000000000E+00 0. -1.
         -1   -1    0    0    0  501 -0.00000000000E+00 -0.00000000000E+00 -0.30079006315E+02  0.30079006315E+02  0.00000000000E+00 0.  1.
         25    2    1    2    0    0  0.31137614867E+02 -0.17537594125E+02  0.30301508416E+03  0.32976164049E+03  0.12508988784E+03 0.  0.
          5    1    3    3  502    0 -0.90531976504E+01 -0.18660945009E+02  0.28452453430E+03  0.28531013700E+03  0.41800000000E+01 0.  1.
         -5    1    3    3    0  502  0.40190812518E+02  0.11233508836E+01  0.18490549862E+02  0.44451503487E+02  0.41800000000E+01 0.  1.
        -11    1    1    2    0    0 -0.45100478764E+02  0.20907473749E+02  0.13784096146E+03  0.14653090561E+03  0.00000000000E+00 0. -1.
         11    1    1    2    0    0  0.13962863897E+02 -0.33698796237E+01 -0.81879195687E+01  0.16533592584E+02  0.00000000000E+00 0.  1.
</event>
<event>
 7    1  0.2732144E-009  0.1204910E+03  0.7561462E-02  0.1242289E+00
          2   -1    0    0  501    0  0.00000000000E+00  0.00000000000E+00  0.45434994007E+03  0.45434994007E+03  0.00000000000E+00 0. -1.
         -2   -1    0    0    0  501 -0.00000000000E+00 -0.00000000000E+00 -0.49315045407E+02  0.49315045407E+02  0.00000000000E+00 0.  1.
         25    2    1    2    0    0 -0.52932223670E+01 -0.91890287283E+02  0.29244391060E+03  0.33111646773E+03  0.12507130468E+03 0.  0.
          5    1    3    3  502    0 -0.23521851789E+02  0.15983712010E+02  0.14103189508E+02  0.32017634446E+02  0.41800000000E+01 0.  1.
         -5    1    3    3    0  502  0.18228629422E+02 -0.10787399929E+03  0.27834072109E+03  0.29909883328E+03  0.41800000000E+01 0.  1.
        -11    1    1    2    0    0 -0.15191730539E+02  0.74043497961E+02  0.12223644409E+03  0.14371839316E+03  0.00000000000E+00 0. -1.
         11    1    1    2    0    0  0.20484952907E+02  0.17846789322E+02 -0.96454600300E+01  0.28830124590E+02  0.00000000000E+00 0.  1.
</event>
<event>
 7    1  0.2732144E-009  0.1150949E+03  0.7561462E-02  0.1251416E+00
         -1   -1    0    0    0  501 -0.00000000000E+00  0.00000000000E+00  0.37592485412E+02  0.37592485412E+02  0.00000000000E+00 0.  1.
          1   -1    0    0  501    0  0.00000000000E+00 -0.00000000000E+00 -0.61773657735E+03  0.61773657735E+03  0.00000000000E+00 0. -1.
         25    2    1    2    0    0 -0.92634502271E+02 -0.22251253195E+02 -0.20949713511E+03  0.26193431108E+03  0.12507703396E+03 0.  0.
          5    1    3    3  502    0 -0.34283135812E+02 -0.41657214840E+02 -0.18959389057E+03  0.19716483634E+03  0.41800000000E+01 0.  1.
         -5    1    3    3    0  502 -0.58351366458E+02  0.19405961645E+02 -0.19903244539E+02  0.64769474740E+02  0.41800000000E+01 0.  1.
        -11    1    1    2    0    0  0.27409054986E+02 -0.22399224859E+02 -0.39921575079E+02  0.53354603609E+02  0.00000000000E+00 0.  1.
         11    1    1    2    0    0  0.65225447285E+02  0.44650478054E+02 -0.33072538175E+03  0.34004014807E+03  0.00000000000E+00 0. -1.
</event>
<event>
 7    1  0.2732144E-009  0.9357156E+02  0.7561462E-02  0.1294426E+00
          3   -1    0    0  501    0  0.00000000000E+00  0.00000000000E+00  0.48505330863E+02  0.48505330863E+02  0.00000000000E+00 0. -1.
         -3   -1    0    0    0  501 -0.00000000000E+00 -0.00000000000E+00 -0.38129615746E+03  0.38129615746E+03  0.00000000000E+00 0.  1.
         25    2    1    2    0    0  0.35901272448E+02  0.61005760052E+02 -0.23957670143E+03  0.27938483024E+03  0.12509309884E+03 0.  0.
          5    1    3    3  502    0  0.38092531229E+02  0.82430829520E+02 -0.24082537631E+03  0.25741059975E+03  0.41800000000E+01 0. -1.
         -5    1    3    3    0  502 -0.21912587817E+01 -0.21425069469E+02  0.12486748759E+01  0.21974230492E+02  0.41800000000E+01 0. -1.
        -11    1    1    2    0    0  0.23909570500E+00 -0.18528479562E+02 -0.92812148289E+02  0.94643840749E+02  0.00000000000E+00 0.  1.
         11    1    1    2    0    0 -0.36140368153E+02 -0.42477280490E+02 -0.40197688030E+00  0.55772817335E+02  0.00000000000E+00 0. -1.
</event>
<event>
 7    1  0.2732144E-009  0.1028358E+03  0.7561462E-02  0.1274443E+00
         -1   -1    0    0    0  501 -0.00000000000E+00  0.00000000000E+00  0.20346415775E+02  0.20346415775E+02  0.00000000000E+00 0.  1.
          1   -1    0    0  501    0  0.00000000000E+00 -0.00000000000E+00 -0.68847286016E+03  0.68847286016E+03  0.00000000000E+00 0. -1.
         25    2    1    2    0    0 -0.15482183956E+02 -0.11933020559E+01 -0.24380649654E+03  0.27446302054E+03  0.12508884802E+03 0.  0.
          5    1    3    3  502    0  0.42021155018E+02  0.28728256858E+02 -0.56255666202E+02  0.75981988596E+02  0.41800000000E+01 0. -1.
         -5    1    3    3    0  502 -0.57503338974E+02 -0.29921558914E+02 -0.18755083034E+03  0.19848103195E+03  0.41800000000E+01 0. -1.
        -11    1    1    2    0    0  0.51174805540E+02  0.11577589352E+02 -0.30160536639E+03  0.30613509817E+03  0.00000000000E+00 0. -1.
         11    1    1    2    0    0 -0.35692621584E+02 -0.10384287296E+02 -0.12271458146E+03  0.12822115723E+03  0.00000000000E+00 0.  1.
</event>
<event>
 7    1  0.2732144E-009  0.1084146E+03  0.7561462E-02  0.1263534E+00
          2   -1    0    0  501    0  0.00000000000E+00  0.00000000000E+00  0.25275479676E+02  0.25275479676E+02  0.00000000000E+00 0. -1.
         -2   -1    0    0    0  501 -0.00000000000E+00 -0.00000000000E+00 -0.54004969474E+03  0.54004969474E+03  0.00000000000E+00 0.  1.
         25    2    1    2    0    0  0.40006455174E+02  0.63711897641E+01 -0.25147713628E+03  0.28377528396E+03  0.12508618309E+03 0.  0.
          5    1    3    3  502    0  0.51683576848E+02 -0.44001673363E+02 -0.19763192707E+03  0.20900524006E+03  0.41800000000E+01 0. -1.
         -5    1    3    3    0  502 -0.11677121675E+02  0.50372863127E+02 -0.53845209209E+02  0.74770043901E+02  0.41800000000E+01 0. -1.
        -11    1    1    2    0    0 -0.35704944949E+02 -0.45356597415E+02 -0.12296684706E+03  0.13584148667E+03  0.00000000000E+00 0. -1.
         11    1    1    2    0    0 -0.43015102249E+01  0.38985407651E+02 -0.14033023172E+03  0.14570840379E+03  0.00000000000E+00 0.  1.
</event>
<event>
 7    1  0.2732144E-009  0.1035364E+03  0.7561462E-02  0.1273030E+00
         -1   -1    0    0    0  501 -0.00000000000E+00  0.00000000000E+00  0.63258948015E+02  0.63258948015E+02  0.00000000000E+00 0.  1.
          1   -1    0    0  501    0  0.00000000000E+00 -0.00000000000E+00 -0.23726562658E+03  0.23726562658E+03  0.00000000000E+00 0. -1.
         25    2    1    2    0    0  0.60932937490E+01 -0.57054521957E+02 -0.92088925838E+02  0.16558823522E+03  0.12508695646E+03 0.  0.
          5    1    3    3  502    0  0.14954765986E+02 -0.87525329152E+02 -0.26748273489E+02  0.92829256183E+02  0.41800000000E+01 0.  1.
         -5    1    3    3    0  502 -0.88614722373E+01  0.30470807195E+02 -0.65340652349E+02  0.72758979038E+02  0.41800000000E+01 0.  1.
        -11    1    1    2    0    0  0.24845365720E+02  0.45899956449E+01  0.78489743580E+01  0.26456882966E+02  0.00000000000E+00 0.  1.
         11    1    1    2    0    0 -0.30938659469E+02  0.52464526312E+02 -0.89766727081E+02  0.10847945640E+03  0.00000000000E+00 0. -1.
</event>
<event>
 7    1  0.2732144E-009  0.1545932E+03  0.7561462E-02  0.1194940E+00
          1   -1    0    0  501    0  0.00000000000E+00  0.00000000000E+00  0.31277053397E+02  0.31277053397E+02  0.00000000000E+00 0. -1.
         -1   -1    0    0    0  501 -0.00000000000E+00 -0.00000000000E+00 -0.90718827045E+03  0.90718827045E+03  0.00000000000E+00 0.  1.
         25    2    1    2    0    0  0.11282372913E+03 -0.46235370479E+02 -0.35215183178E+03  0.39309314101E+03  0.12507758210E+03 0.  0.
          5    1    3    3  502    0 -0.21611453275E+02 -0.25104890059E+02 -0.11379614791E+03  0.11859319583E+03  0.41800000000E+01 0. -1.
         -5    1    3    3    0  502  0.13443518241E+03 -0.21130480421E+02 -0.23835568387E+03  0.27449994519E+03  0.41800000000E+01 0. -1.
        -11    1    1    2    0    0 -0.33998833330E+02 -0.17538099144E+02 -0.63972789649E+02  0.74538737613E+02  0.00000000000E+00 0. -1.
         11    1    1    2    0    0 -0.78824895803E+02  0.63773469623E+02 -0.45978659562E+03  0.47083344522E+03  0.00000000000E+00 0.  1.
</event>
<event>
 7    1  0.2732144E-009  0.1590320E+03  0.7561462E-02  0.1189794E+00
         -1   -1    0    0    0  501 -0.00000000000E+00  0.00000000000E+00  0.44420312438E+02  0.44420312438E+02  0.00000000000E+00 0.  1.
          1   -1    0    0  501    0  0.00000000000E+00 -0.00000000000E+00 -0.70291011994E+03  0.70291011994E+03  0.00000000000E+00 0. -1.
         25    2    1    2    0    0  0.12335680619E+02 -0.11029225788E+03 -0.40730275541E+03  0.44029668834E+03  0.12509631502E+03 0.  0.
          5    1    3    3  502    0  0.64165863758E+02 -0.62133960685E+02 -0.16292526358E+03  0.18584940423E+03  0.41800000000E+01 0. -1.
         -5    1    3    3    0  502 -0.51830183140E+02 -0.48158297198E+02 -0.24437749183E+03  0.25444728411E+03  0.41800000000E+01 0. -1.
        -11    1    1    2    0    0 -0.39229560595E+02  0.12221398984E+03 -0.13140165091E+03  0.18368889895E+03  0.00000000000E+00 0.  1.
         11    1    1    2    0    0  0.26893879977E+02 -0.11921731956E+02 -0.11978540118E+03  0.12334484509E+03  0.00000000000E+00 0. -1.
</event>
<event>
 7    1  0.2732144E-009  0.1011555E+03  0.7561462E-02  0.1277885E+00
          1   -1    0    0  501    0  0.00000000000E+00  0.00000000000E+00  0.26352631246E+03  0.26352631246E+03  0.00000000000E+00 0. -1.
         -1   -1    0    0    0  501 -0.00000000000E+00 -0.00000000000E+00 -0.67764195636E+02  0.67764195636E+02  0.00000000000E+00 0.  1.
         25    2    1    2    0    0 -0.45984463701E+01  0.27821736904E+02  0.17371770486E+02  0.12937245923E+03  0.12506102528E+03 0.  0.
          5    1    3    3  502    0 -0.26524790371E+02 -0.43465431731E+02 -0.51533938102E+01  0.51350152166E+02  0.41800000000E+01 0. -1.
         -5    1    3    3    0  502  0.21926344000E+02  0.71287168635E+02  0.22525164296E+02  0.78022307065E+02  0.41800000000E+01 0. -1.
        -11    1    1    2    0    0 -0.25160005221E+01  0.24040686257E+02  0.11044532302E+02  0.26575675873E+02  0.00000000000E+00 0.  1.
         11    1    1    2    0    0  0.71144468923E+01 -0.51862423161E+02  0.16734581404E+03  0.17534237299E+03  0.00000000000E+00 0. -1.
</event>
<event>
 7    1  0.2732144E-009  0.1335284E+03  0.7561462E-02  0.1222312E+00
          2   -1    0    0  501    0  0.00000000000E+00  0.00000000000E+00  0.59244120018E+02  0.59244120018E+02  0.00000000000E+00 0. -1.
         -2   -1    0    0    0  501 -0.00000000000E+00 -0.00000000000E+00 -0.33373336449E+03  0.33373336449E+03  0.00000000000E+00 0.  1.
         25    2    1    2    0    0  0.49210852517E+02 -0.66345674059E+02 -0.20035466020E+03  0.25022986075E+03  0.12509810901E+03 0.  0.
          5    1    3    3  502    0  0.31169930249E+02  0.34880979220E+02 -0.65423897600E+02  0.80535743867E+02  0.41800000000E+01 0.  1.
         -5    1    3    3    0  502  0.18040922267E+02 -0.10122665328E+03 -0.13493076260E+03  0.16969411689E+03  0.41800000000E+01 0.  1.
        -11    1    1    2    0    0 -0.68441433741E+02  0.69676721781E+02 -0.75105135980E+02  0.12320656176E+03  0.00000000000E+00 0.  1.
         11    1    1    2    0    0  0.19230581224E+02 -0.33310477221E+01  0.97055170734E+00  0.19541061991E+02  0.00000000000E+00 0. -1.
</event>
<event>
 7    1  0.2732144E-009  0.1279571E+03  0.7561462E-02  0.1230519E+00
          2   -1    0    0  501    0  0.00000000000E+00  0.00000000000E+00  0.10021411129E+04  0.10021411129E+04  0.00000000000E+00 0. -1.
         -2   -1    0    0    0  501 -0.00000000000E+00 -0.00000000000E+00 -0.22890397493E+02  0.22890397493E+02  0.00000000000E+00 0.  1.
         25    2    1    2    0    0 -0.17797515879E+02 -0.10283142870E+03  0.49575443063E+03  0.52183434847E+03  0.12509027721E+03 0.  0.
          5    1    3    3  502    0 -0.28152936544E+02  0.38323025640E+01  0.27407059296E+03  0.27557111007E+03  0.41800000000E+01 0. -1.
         -5    1    3    3    0  502  0.10355420665E+02 -0.10666373126E+03  0.22168383768E+03  0.24626323841E+03  0.41800000000E+01 0. -1.
        -11    1    1    2    0    0  0.38494166313E+02  0.81991148847E+02  0.44828415710E+03  0.45734345391E+03  0.00000000000E+00 0. -1.
         11    1    1    2    0    0 -0.20696650434E+02  0.20840279849E+02  0.35212127695E+02  0.45853708031E+02  0.00000000000E+00 0.  1.
</event>
<event>
 7    1  0.2732144E-009  0.1259762E+03  0.7561462E-02  0.1233552E+00
         -1   -1    0    0    0  501 -0.00000000000E+00  0.00000000000E+00  0.46060842336E+02  0.46060842336E+02  0.00000000000E+00 0.  1.
          1   -1    0    0  501    0  0.00000000000E+00 -0.00000000000E+00 -0.42317575530E+03  0.42317575530E+03  0.00000000000E+00 0. -1.
         25    2    1    2    0    0  0.40956119097E+02 -0.77230485871E+02 -0.19781451281E+03  0.24983940925E+03  0.12508875768E+03 0.  0.
          5    1    3    3  502    0 -0.28580568227E+02  0.15606762287E+02 -0.69216953380E+02  0.76608608814E+02  0.41800000000E+01 0.  1.
         -5    1    3    3    0  502  0.69536687323E+02 -0.92837248158E+02 -0.12859755943E+03  0.17323080044E+03  0.41800000000E+01 0.  1.
        -11    1    1    2    0    0 -0.54293415904E+02  0.67048020458E+02 -0.18290794132E+03  0.20223384251E+03  0.00000000000E+00 0. -1.
         11    1    1    2    0    0  0.13337296808E+02  0.10182465413E+02  0.36075411734E+01  0.17163345867E+02  0.00000000000E+00 0.  1.
</event>
<event>
 7    1  0.2732144E-009  0.1221649E+03  0.7561462E-02  0.1239568E+00
          1   -1    0    0  501    0  0.00000000000E+00  0.00000000000E+00  0.20071281863E+04  0.20071281863E+04  0.00000000000E+00 0. -1.
         -1   -1    0    0    0  501 -0.00000000000E+00 -0.00000000000E+00 -0.17743986984E+02  0.17743986984E+02  0.00000000000E+00 0.  1.
         25    2    1    2    0    0 -0.96447419085E+02  0.29784501848E+02  0.16772624862E+04  0.16849462512E+04  0.12508077646E+03 0.  0.
          5    1    3    3  502    0 -0.41528137398E+02  0.34848498610E+02  0.14511092284E+04  0.14521275665E+04  0.41800000000E+01 0. -1.
         -5    1    3    3    0  502 -0.54919281687E+02 -0.50639967623E+01  0.22615325774E+03  0.23281868471E+03  0.41800000000E+01 0. -1.
        -11    1    1    2    0    0 -0.95494675423E+01 -0.26970887755E+02  0.65883347622E+02  0.71827826158E+02  0.00000000000E+00 0. -1.
         11    1    1    2    0    0  0.10599688663E+03 -0.28136140928E+01  0.24623836557E+03  0.26809809599E+03  0.00000000000E+00 0.  1.
</event>
<event>
 7    1  0.2732144E-009  0.9143317E+02  0.7561462E-02  0.1299418E+00
          2   -1    0    0  501    0  0.00000000000E+00  0.00000000000E+00  0.19656401649E+03  0.19656401649E+03  0.00000000000E+00 0.  1.
         -2   -1    0    0    0  501 -0.00000000000E+00 -0.00000000000E+00 -0.68461492111E+02  0.68461492111E+02  0.00000000000E+00 0. -1.
         25    2    1    2    0    0  0.27313135789E+02  0.59644845547E+01  0.38071315872E+02  0.13370836506E+03  0.12508764660E+03 0.  0.
          5    1    3    3  502    0  0.20136720872E+02  0.53396466174E+02 -0.17823410675E+02  0.59931765329E+02  0.41800000000E+01 0. -1.
         -5    1    3    3    0  502  0.71764149176E+01 -0.47431981620E+02  0.55894726547E+02  0.73776599727E+02  0.41800000000E+01 0. -1.
        -11    1    1    2    0    0 -0.19303989452E+02  0.32718765656E+02  0.82879772388E+02  0.91171367797E+02  0.00000000000E+00 0.  1.
         11    1    1    2    0    0 -0.80091463371E+01 -0.38683250210E+02  0.71514361191E+01  0.40145775748E+02  0.00000000000E+00 0. -1.
</event>
<event>
 7    1  0.2732144E-009  0.7646509E+02  0.7561462E-02  0.1339393E+00
          2   -1    0    0  501    0  0.00000000000E+00  0.00000000000E+00  0.58600962109E+02  0.58600962109E+02  0.00000000000E+00 0. -1.
         -2   -1    0    0    0  501 -0.00000000000E+00 -0.00000000000E+00 -0.21021400252E+03  0.21021400252E+03  0.00000000000E+00 0.  1.
         25    2    1    2    0    0 -0.21315185596E+02 -0.18223899470E+02 -0.10167334732E+03  0.16362173290E+03  0.12509258281E+03 0.  0.
          5    1    3    3  502    0  0.48910968900E+01 -0.31599352057E+02 -0.12292669933E+03  0.12708614278E+03  0.41800000000E+01 0.  1.
         -5    1    3    3    0  502 -0.26206282485E+02  0.13375452588E+02  0.21253352011E+02  0.36535590119E+02  0.41800000000E+01 0.  1.
        -11    1    1    2    0    0  0.37910797148E+02 -0.24494842919E+02 -0.14994870141E+02  0.47561244733E+02  0.00000000000E+00 0. -1.
         11    1    1    2    0    0 -0.16595611552E+02  0.42718742388E+02 -0.34944822952E+02  0.57631986996E+02  0.00000000000E+00 0.  1.
</event>
<event>
 7    1  0.2732144E-009  0.2534763E+03  0.7561462E-02  0.1111127E+00
          1   -1    0    0  501    0  0.00000000000E+00  0.00000000000E+00  0.14510737327E+03  0.14510737327E+03  0.00000000000E+00 0. -1.
         -1   -1    0    0    0  501 -0.00000000000E+00 -0.00000000000E+00 -0.62044239203E+03  0.62044239203E+03  0.00000000000E+00 0.  1.
         25    2    1    2    0    0  0.16907083283E+03 -0.17531601276E+03 -0.41756855490E+03  0.49933150366E+03  0.12509117341E+03 0.  0.
          5    1    3    3  502    0  0.66090720092E+02 -0.38305915765E+02 -0.43890542712E+02  0.88199651952E+02  0.41800000000E+01 0. -1.
         -5    1    3    3    0  502  0.10298011273E+03 -0.13701009699E+03 -0.37367801219E+03  0.41113185171E+03  0.41800000000E+01 0. -1.
        -11    1    1    2    0    0 -0.78296915100E+02  0.14228484017E+03 -0.25623942960E+02  0.16441401737E+03  0.00000000000E+00 0.  1.
         11    1    1    2    0    0 -0.90773917726E+02  0.33031172592E+02 -0.32142520893E+02  0.10180424427E+03  0.00000000000E+00 0. -1.
</event>
<event>
 7    1  0.2732144E-009  0.6206310E+02  0.7561462E-02  0.1389372E+00
         -2   -1    0    0    0  501 -0.00000000000E+00  0.00000000000E+00  0.35389085682E+02  0.35389085682E+02  0.00000000000E+00 0.  1.
          2   -1    0    0  501    0  0.00000000000E+00 -0.00000000000E+00 -0.34079654125E+03  0.34079654125E+03  0.00000000000E+00 0. -1.
         25    2    1    2    0    0 -0.13068475778E+01 -0.15276948849E+02 -0.16575840104E+03  0.20822459633E+03  0.12508613825E+03 0.  0.
          5    1    3    3  502    0  0.59013483925E+01  0.69186920134E+01  0.19253741239E+02  0.21699612064E+02  0.41800000000E+01 0. -1.
         -5    1    3    3    0  502 -0.72081959703E+01 -0.22195640862E+02 -0.18501214228E+03  0.18652498426E+03  0.41800000000E+01 0. -1.
        -11    1    1    2    0    0  0.94348831077E+01  0.51973938386E+02 -0.10140711328E+03  0.11434032497E+03  0.00000000000E+00 0. -1.
         11    1    1    2    0    0 -0.81280355299E+01 -0.36696989537E+02 -0.38241941242E+02  0.53620705633E+02  0.00000000000E+00 0.  1.
</event>
<event>
 7    1  0.2732144E-009  0.1416900E+03  0.7561462E-02  0.1211073E+00
         -2   -1    0    0    0  501 -0.00000000000E+00  0.00000000000E+00  0.11455073601E+02  0.11455073601E+02  0.00000000000E+00 0. -1.
          2   -1    0    0  501    0  0.00000000000E+00 -0.00000000000E+00 -0.20169919546E+04  0.20169919546E+04  0.00000000000E+00 0.  1.
         25    2    1    2    0    0 -0.67155942907E+02  0.70643376071E+02 -0.13583743810E+04  0.13675995392E+04  0.12508850146E+03 0.  0.
          5    1    3    3  502    0 -0.35557091021E+02  0.10510270061E+03 -0.89800677657E+03  0.90484502958E+03  0.41800000000E+01 0. -1.
         -5    1    3    3    0  502 -0.31598851886E+02 -0.34459324541E+02 -0.46036760447E+03  0.46275450958E+03  0.41800000000E+01 0. -1.
        -11    1    1    2    0    0  0.84993344724E+02 -0.63908837905E+02 -0.60869527228E+03  0.61791434901E+03  0.00000000000E+00 0.  1.
         11    1    1    2    0    0 -0.17837401817E+02 -0.67345381658E+01 -0.38467227674E+02  0.42933140029E+02  0.00000000000E+00 0. -1.
</event>
<event>
 7    1  0.2741006E-009  0.1069282E+03  0.7561462E-02  0.1266366E+00
          2   -1    0    0  501    0  0.00000000000E+00  0.00000000000E+00  0.35694688625E+03  0.35694688625E+03  0.00000000000E+00 0. -1.
         -2   -1    0    0    0  501 -0.00000000000E+00 -0.00000000000E+00 -0.47756074975E+02  0.47756074975E+02  0.00000000000E+00 0.  1.
         25    2    1    2    0    0 -0.62212381531E+02 -0.12820708519E+02  0.11741731513E+03  0.18295338818E+03  0.12510142035E+03 0.  0.
          5    1    3    3  502    0 -0.72749728025E+02  0.26637945531E+02  0.11878218860E+03  0.14187594510E+03  0.41800000000E+01 0.  1.
         -5    1    3    3    0  502  0.10537346494E+02 -0.39458654051E+02 -0.13648734725E+01  0.41077443083E+02  0.41800000000E+01 0.  1.
        -11    1    1    2    0    0 -0.11477187047E+02  0.17996324773E+02  0.65315865147E+01  0.22321629650E+02  0.00000000000E+00 0.  1.
         11    1    1    2    0    0  0.73689568577E+02 -0.51756162537E+01  0.18524190964E+03  0.19942794339E+03  0.00000000000E+00 0. -1.
</event>
<event>
 7    1  0.2732144E-009  0.9607515E+02  0.7561462E-02  0.1288773E+00
         -2   -1    0    0    0  501 -0.00000000000E+00  0.00000000000E+00  0.12621674014E+03  0.12621674014E+03  0.00000000000E+00 0.  1.
          2   -1    0    0  501    0  0.00000000000E+00 -0.00000000000E+00 -0.95442886557E+02  0.95442886557E+02  0.00000000000E+00 0. -1.
         25    2    1    2    0    0  0.67593964798E+01  0.11118920223E+02  0.37275715620E+02  0.13117530344E+03  0.12509261142E+03 0.  0.
          5    1    3    3  502    0 -0.40528712883E+02 -0.36550398024E+02  0.10041539704E+01  0.54744761292E+02  0.41800000000E+01 0. -1.
         -5    1    3    3    0  502  0.47288109363E+02  0.47669318248E+02  0.36271561649E+02  0.76430542153E+02  0.41800000000E+01 0. -1.
        -11    1    1    2    0    0 -0.12484703195E+02 -0.39376049795E+02  0.24597345749E+02  0.48076715042E+02  0.00000000000E+00 0.  1.
         11    1    1    2    0    0  0.57253067153E+01  0.28257129572E+02 -0.31099207789E+02  0.42407608206E+02  0.00000000000E+00 0. -1.
</event>
<event>
 7    1  0.2732144E-009  0.1070435E+03  0.7561462E-02  0.1266145E+00
          2   -1    0    0  501    0  0.00000000000E+00  0.00000000000E+00  0.13847825923E+03  0.13847825923E+03  0.00000000000E+00 0. -1.
         -2   -1    0    0    0  501 -0.00000000000E+00 -0.00000000000E+00 -0.89321918026E+02  0.89321918026E+02  0.00000000000E+00 0.  1.
         25    2    1    2    0    0  0.10337906821E+02  0.23684583388E+02  0.59426792487E+01  0.12786531797E+03  0.12508553991E+03 0.  0.
          5    1    3    3  502    0 -0.43894908894E+02  0.48225194204E+02  0.16185586510E+02  0.67319224546E+02  0.41800000000E+01 0. -1.
         -5    1    3    3    0  502  0.54232815715E+02 -0.24540610816E+02 -0.10242907261E+02  0.60546093423E+02  0.41800000000E+01 0. -1.
        -11    1    1    2    0    0 -0.16252392654E+02 -0.54922261243E+02  0.34905715408E+02  0.67074615281E+02  0.00000000000E+00 0. -1.
         11    1    1    2    0    0  0.59144858326E+01  0.31237677855E+02  0.83079465488E+01  0.32860244008E+02  0.00000000000E+00 0.  1.
</event>
<event>
 7    1  0.2732144E-009  0.1042088E+03  0.7561462E-02  0.1271686E+00
         -1   -1    0    0    0  501 -0.00000000000E+00  0.00000000000E+00  0.39066293098E+02  0.39066293098E+02  0.00000000000E+00 0.  1.
          1   -1    0    0  501    0  0.00000000000E+00 -0.00000000000E+00 -0.32210815310E+03  0.32210815310E+03  0.00000000000E+00 0. -1.
         25    2    1    2    0    0  0.41623857582E+01 -0.25406496720E+02 -0.13994343791E+03  0.18945864273E+03  0.12509035119E+03 0.  0.
          5    1    3    3  502    0 -0.46794689716E+00  0.50369896376E+02 -0.68475466425E+02  0.85109972021E+02  0.41800000000E+01 0. -1.
         -5    1    3    3    0  502  0.46303326554E+01 -0.75776393095E+02 -0.71467971480E+02  0.10434867071E+03  0.41800000000E+01 0. -1.
        -11    1    1    2    0    0 -0.25986208202E+02  0.45355313836E+02 -0.12853263150E+03  0.13875526970E+03  0.00000000000E+00 0. -1.
         11    1    1    2    0    0  0.21823822444E+02 -0.19948817116E+02 -0.14565790594E+02  0.32960533764E+02  0.00000000000E+00 0.  1.
</event>
<event>
 7    1  0.2732144E-009  0.1171660E+03  0.7561462E-02  0.1247847E+00
          3   -1    0    0  501    0  0.00000000000E+00  0.00000000000E+00  0.15258837538E+03  0.15258837538E+03  0.00000000000E+00 0. -1.
         -3   -1    0    0    0  501 -0.00000000000E+00 -0.00000000000E+00 -0.11084602992E+03  0.11084602992E+03  0.00000000000E+00 0.  1.
         25    2    1    2    0    0 -0.56237779781E+02 -0.28521964345E+02  0.55838035282E+02  0.15080630933E+03  0.12509383048E+03 0.  0.
          5    1    3    3  502    0 -0.52425454605E+02  0.37417654629E+02  0.54714727100E+02  0.84614909621E+02  0.41800000000E+01 0. -1.
         -5    1    3    3    0  502 -0.38123251758E+01 -0.65939618974E+02  0.11233081819E+01  0.66191399705E+02  0.41800000000E+01 0. -1.
        -11    1    1    2    0    0  0.30126494551E+02  0.57306240146E+02 -0.29083597105E+02  0.70975111512E+02  0.00000000000E+00 0.  1.
         11    1    1    2    0    0  0.26111285230E+02 -0.28784275801E+02  0.14987907279E+02  0.41652984459E+02  0.00000000000E+00 0. -1.
</event>
<event>
 7    1  0.2732144E-009  0.1902901E+03  0.7561462E-02  0.1158200E+00
         -2   -1    0    0    0  501 -0.00000000000E+00  0.00000000000E+00  0.84513106149E+02  0.84513106149E+02  0.00000000000E+00 0. -1.
          2   -1    0    0  501    0  0.00000000000E+00 -0.00000000000E+00 -0.54674072898E+03  0.54674072898E+03  0.00000000000E+00 0.  1.
         25    2    1    2    0    0 -0.15425053225E+03 -0.27040813919E+02 -0.38655444311E+03  0.43542655375E+03  0.12509002323E+03 0.  0.
          5    1    3    3  502    0 -0.16752754957E+03 -0.48631823707E+02 -0.32935844766E+03  0.37272643264E+03  0.41800000000E+01 0. -1.
         -5    1    3    3    0  502  0.13277017322E+02  0.21591009788E+02 -0.57195995441E+02  0.62700121109E+02  0.41800000000E+01 0. -1.
        -11    1    1    2    0    0  0.84567584314E+02  0.59623978806E+02 -0.38637994477E+02  0.11045175319E+03  0.00000000000E+00 0.  1.
         11    1    1    2    0    0  0.69682947933E+02 -0.32583164888E+02 -0.37035185245E+02  0.85375528185E+02  0.00000000000E+00 0. -1.
</event>
<event>
 7    1  0.2732144E-009  0.1184790E+03  0.7561462E-02  0.1245627E+00
          3   -1    0    0  501    0  0.00000000000E+00  0.00000000000E+00  0.11325251689E+03  0.11325251689E+03  0.00000000000E+00 0. -1.
         -3   -1    0    0    0  501 -0.00000000000E+00 -0.00000000000E+00 -0.14245573503E+03  0.14245573503E+03  0.00000000000E+00 0.  1.
         25    2    1    2    0    0 -0.31896534072E+02  0.56434392265E+02 -0.98631391737E+01  0.14123601884E+03  0.12509237381E+03 0.  0.
          5    1    3    3  502    0  0.44882668866E+02  0.40774124851E+02  0.63315836024E+01  0.61110920242E+02  0.41800000000E+01 0. -1.
         -5    1    3    3    0  502 -0.76779202937E+02  0.15660267414E+02 -0.16194722776E+02  0.80125098596E+02  0.41800000000E+01 0. -1.
        -11    1    1    2    0    0  0.53109423679E+02 -0.22485726753E+02  0.17291933056E+02  0.60209880751E+02  0.00000000000E+00 0. -1.
         11    1    1    2    0    0 -0.21212889608E+02 -0.33948665512E+02 -0.36632012029E+02  0.54262352334E+02  0.00000000000E+00 0.  1.
</event>
<event>
 7    1  0.2732144E-009  0.2935602E+03  0.7561462E-02  0.1088505E+00
         -1   -1    0    0    0  501 -0.00000000000E+00  0.00000000000E+00  0.72829793409E+02  0.72829793409E+02  0.00000000000E+00 0.  1.
          1   -1    0    0  501    0  0.00000000000E+00 -0.00000000000E+00 -0.12623577519E+04  0.12623577519E+04  0.00000000000E+00 0. -1.
         25    2    1    2    0    0 -0.26303440147E+03 -0.99419162310E+02 -0.67525632694E+03  0.74208450153E+03  0.12508810552E+03 0.  0.
          5    1    3    3  502    0 -0.10423728530E+03 -0.93870771834E+02 -0.40409909775E+03  0.42777410703E+03  0.41800000000E+01 0.  1.
         -5    1    3    3    0  502 -0.15879711617E+03 -0.55483904760E+01 -0.27115722920E+03  0.31431039449E+03  0.41800000000E+01 0.  1.
        -11    1    1    2    0    0  0.19259676071E+02  0.27682294566E+02 -0.11486627823E+03  0.11971426995E+03  0.00000000000E+00 0.  1.
         11    1    1    2    0    0  0.24377472540E+03  0.71736867744E+02 -0.39940535336E+03  0.47338877387E+03  0.00000000000E+00 0. -1.
</event>
<event>
 7    1  0.2732144E-009  0.2981493E+03  0.7561462E-02  0.1086169E+00
         -1   -1    0    0    0  501 -0.00000000000E+00  0.00000000000E+00  0.12891969264E+03  0.12891969264E+03  0.00000000000E+00 0.  1.
          1   -1    0    0  501    0  0.00000000000E+00 -0.00000000000E+00 -0.76424203743E+03  0.76424203743E+03  0.00000000000E+00 0. -1.
         25    2    1    2    0    0  0.16432770707E+03 -0.24290110113E+03 -0.28456403886E+03  0.42735096617E+03  0.12509043064E+03 0.  0.
          5    1    3    3  502    0  0.28599100543E+02 -0.70994548215E+02 -0.11879568272E+02  0.77567589690E+02  0.41800000000E+01 0. -1.
         -5    1    3    3    0  502  0.13572860653E+03 -0.17190655292E+03 -0.27268447059E+03  0.34978337648E+03  0.41800000000E+01 0. -1.
        -11    1    1    2    0    0 -0.12976209587E+03  0.13490411676E+03 -0.17251817807E+03  0.25455813483E+03  0.00000000000E+00 0.  1.
         11    1    1    2    0    0 -0.34565611204E+02  0.10799698438E+03 -0.17824012785E+03  0.21125262907E+03  0.00000000000E+00 0. -1.
</event>
<event>
 7    1  0.3243220E-009  0.1499522E+03  0.7561462E-02  0.1200532E+00
         -1   -1    0    0    0  501 -0.00000000000E+00  0.00000000000E+00  0.25814435162E+03  0.25814435162E+03  0.00000000000E+00 0.  1.
          1   -1    0    0  501    0  0.00000000000E+00 -0.00000000000E+00 -0.10632235109E+03  0.10632235109E+03  0.00000000000E+00 0. -1.
         25    2    1    2    0    0 -0.10130396849E+03 -0.42123541320E+02  0.14652656801E+03  0.22171256235E+03  0.12509811512E+03 0.  0.
          5    1    3    3  502    0 -0.12778554239E+03 -0.16655655005E+02  0.10661999644E+03  0.16730765592E+03  0.41800000000E+01 0. -1.
         -5    1    3    3    0  502  0.26481573900E+02 -0.25467886315E+02  0.39906571566E+02  0.54404906431E+02  0.41800000000E+01 0. -1.
        -11    1    1    2    0    0  0.21850963496E+02 -0.22657330342E+02  0.22651438565E+02  0.38780238434E+02  0.00000000000E+00 0.  1.
         11    1    1    2    0    0  0.79453004998E+02  0.64780871662E+02 -0.17356006041E+02  0.10397390193E+03  0.00000000000E+00 0. -1.
</event>
<event>
 7    1  0.2732144E-009  0.9524540E+02  0.7561462E-02  0.1290624E+00
          2   -1    0    0  501    0  0.00000000000E+00  0.00000000000E+00  0.14748694793E+03  0.14748694793E+03  0.00000000000E+00 0. -1.
         -2   -1    0    0    0  501 -0.00000000000E+00 -0.00000000000E+00 -0.11716118284E+03  0.11716118284E+03  0.00000000000E+00 0.  1.
         25    2    1    2    0    0  0.24499163371E+02 -0.15647613485E+02  0.87838812664E+02  0.15559286563E+03  0.12509366895E+03 0.  0.
          5    1    3    3  502    0  0.35021402304E+02 -0.50347416902E+02  0.99774037983E+02  0.11719083609E+03  0.41800000000E+01 0. -1.
         -5    1    3    3    0  502 -0.10522238933E+02  0.34699803417E+02 -0.11935225319E+02  0.38402029539E+02  0.41800000000E+01 0. -1.
        -11    1    1    2    0    0 -0.35321359269E+02 -0.29544429888E+02 -0.31606577780E+02  0.55852014440E+02  0.00000000000E+00 0.  1.
         11    1    1    2    0    0  0.10822195898E+02  0.45192043373E+02 -0.25906469792E+02  0.53203250703E+02  0.00000000000E+00 0. -1.
</event>
<event>
 7    1  0.2732144E-009  0.1254260E+03  0.7561462E-02  0.1234405E+00
          1   -1    0    0  501    0  0.00000000000E+00  0.00000000000E+00  0.38809861120E+03  0.38809861120E+03  0.00000000000E+00 0. -1.
         -1   -1    0    0    0  501 -0.00000000000E+00 -0.00000000000E+00 -0.56779575847E+02  0.56779575847E+02  0.00000000000E+00 0.  1.
         25    2    1    2    0    0  0.86232098694E+02  0.34903540220E+02  0.23553282187E+03  0.28244989142E+03  0.12509196224E+03 0.  0.
          5    1    3    3  502    0 -0.27361856464E+02 -0.10078058115E+02  0.75678113130E+02  0.81208913621E+02  0.41800000000E+01 0.  1.
         -5    1    3    3    0  502  0.11359395516E+03  0.44981598335E+02  0.15985470874E+03  0.20124097780E+03  0.41800000000E+01 0.  1.
        -11    1    1    2    0    0 -0.65664118570E+02 -0.41343098035E+02  0.15277890931E+02  0.79085031289E+02  0.00000000000E+00 0.  1.
         11    1    1    2    0    0 -0.20567980125E+02  0.64395578157E+01  0.80508322554E+02  0.83343264346E+02  0.00000000000E+00 0. -1.
</event>
<event>
 7    1  0.2732144E-009  0.8790148E+02  0.7561462E-02  0.1308015E+00
          3   -1    0    0  501    0  0.00000000000E+00  0.00000000000E+00  0.14043170153E+03  0.14043170153E+03  0.00000000000E+00 0. -1.
         -3   -1    0    0    0  501 -0.00000000000E+00 -0.00000000000E+00 -0.11038871437E+03  0.11038871437E+03  0.00000000000E+00 0.  1.
         25    2    1    2    0    0 -0.21994627960E+02 -0.54633067659E+02  0.25080578945E+02  0.14051647698E+03  0.12508920466E+03 0.  0.
          5    1    3    3  502    0  0.23305759838E+02 -0.36531266836E+02 -0.39969391804E+02  0.59099209634E+02  0.41800000000E+01 0. -1.
         -5    1    3    3    0  502 -0.45300387798E+02 -0.18101800823E+02  0.65049970749E+02  0.81417267346E+02  0.41800000000E+01 0. -1.
        -11    1    1    2    0    0  0.15043596665E+02 -0.10153284809E+02 -0.30968899984E+02  0.35895288816E+02  0.00000000000E+00 0.  1.
         11    1    1    2    0    0  0.69510312957E+01  0.64786352468E+02  0.35931308194E+02  0.74408650106E+02  0.00000000000E+00 0. -1.
</event>
<event>
 7    1  0.2732144E-009  0.1260257E+03  0.7561462E-02  0.1233475E+00
          2   -1    0    0  501    0  0.00000000000E+00  0.00000000000E+00  0.17584601667E+03  0.17584601667E+03  0.00000000000E+00 0. -1.
         -2   -1    0    0    0  501 -0.00000000000E+00 -0.00000000000E+00 -0.13036763363E+03  0.13036763363E+03  0.00000000000E+00 0.  1.
         25    2    1    2    0    0  0.47121288834E+02  0.43722768021E+02  0.10135919566E+03  0.17335918276E+03  0.12509046085E+03 0.  0.
          5    1    3    3  502    0  0.25303871769E+01  0.80615516147E+02  0.72601407459E+02  0.10859880786E+03  0.41800000000E+01 0.  1.
         -5    1    3    3    0  502  0.44590901657E+02 -0.36892748126E+02  0.28757788201E+02  0.64760374899E+02  0.41800000000E+01 0.  1.
        -11    1    1    2    0    0 -0.46327398655E+02 -0.71651018206E+02 -0.60418308635E+02  0.10454887993E+03  0.00000000000E+00 0.  1.
         11    1    1    2    0    0 -0.79389017875E+00  0.27928250184E+02  0.45374960247E+01  0.28305587614E+02  0.00000000000E+00 0. -1.
</event>
<event>
 7    1  0.2732144E-009  0.3231661E+03  0.7561462E-02  0.1074201E+00
          2   -1    0    0  501    0  0.00000000000E+00  0.00000000000E+00  0.46215292434E+03  0.46215292434E+03  0.00000000000E+00 0. -1.
         -2   -1    0    0    0  501 -0.00000000000E+00 -0.00000000000E+00 -0.25010101251E+03  0.25010101251E+03  0.00000000000E+00 0.  1.
         25    2    1    2    0    0 -0.29690745708E+03 -0.10981531350E+03  0.41435651374E+02  0.34289305764E+03  0.12508115215E+03 0.  0.
          5    1    3    3  502    0 -0.19671357297E+03 -0.11071645773E+03 -0.17714809552E+02  0.22646335395E+03  0.41800000000E+01 0.  1.
         -5    1    3    3    0  502 -0.10019388411E+03  0.90114423112E+00  0.59150460927E+02  0.11642970369E+03  0.41800000000E+01 0.  1.
        -11    1    1    2    0    0  0.16672044036E+02  0.19921310189E+02 -0.52708351585E+01  0.26506553062E+02  0.00000000000E+00 0.  1.
         11    1    1    2    0    0  0.28023541304E+03  0.89894003313E+02  0.17588709562E+03  0.34285432615E+03  0.00000000000E+00 0. -1.
</event>
<event>
 7    1  0.2732144E-009  0.7571270E+02  0.7561462E-02  0.1341678E+00
         -2   -1    0    0    0  501 -0.00000000000E+00  0.00000000000E+00  0.26442478846E+02  0.26442478846E+02  0.00000000000E+00 0.  1.
          2   -1    0    0  501    0  0.00000000000E+00 -0.00000000000E+00 -0.54088165966E+03  0.54088165966E+03  0.00000000000E+00 0. -1.
         25    2    1    2    0    0  0.28878049992E+02  0.12829180593E+02 -0.38312619978E+03  0.40426801227E+03  0.12509360953E+03 0.  0.
          5    1    3    3  502    0 -0.11025239739E+02 -0.21003895059E+01  0.55791727837E+01  0.13212384960E+02  0.41800000000E+01 0. -1.
         -5    1    3    3    0  502  0.39903289731E+02  0.14929570099E+02 -0.38870537256E+03  0.39105562731E+03  0.41800000000E+01 0. -1.
        -11    1    1    2    0    0  0.24578429764E+00 -0.49673746975E+02 -0.65607467831E+02  0.82291441740E+02  0.00000000000E+00 0.  1.
         11    1    1    2    0    0 -0.29123834290E+02  0.36844566383E+02 -0.65705513206E+02  0.80764684494E+02  0.00000000000E+00 0. -1.
</event>
<event>
 7    1  0.2732144E-009  0.1364766E+03  0.7561462E-02  0.1218150E+00
         -2   -1    0    0    0  501 -0.00000000000E+00  0.00000000000E+00  0.28316482474E+02  0.28316482474E+02  0.00000000000E+00 0.  1.
          2   -1    0    0  501    0  0.00000000000E+00 -0.00000000000E+00 -0.96768669040E+03  0.96768669040E+03  0.00000000000E+00 0. -1.
         25    2    1    2    0    0 -0.82763393785E+02 -0.21511443228E+02 -0.76920594981E+03  0.78399016008E+03  0.12510098453E+03 0.  0.
          5    1    3    3  502    0 -0.71158836551E+02 -0.68074165370E+02 -0.41614644145E+03  0.42765991763E+03  0.41800000000E+01 0. -1.
         -5    1    3    3    0  502 -0.11604557234E+02  0.46562722142E+02 -0.35305950836E+03  0.35633024245E+03  0.41800000000E+01 0. -1.
        -11    1    1    2    0    0  0.39523102563E+02  0.57628555737E+02 -0.87591333508E+02  0.11205073752E+03  0.00000000000E+00 0. -1.
         11    1    1    2    0    0  0.43240291222E+02 -0.36117112509E+02 -0.82572924602E+02  0.99962275276E+02  0.00000000000E+00 0.  1.
</event>
<event>
 7    1  0.2816848E-009  0.1236445E+03  0.7561462E-02  0.1237203E+00
          2   -1    0    0  501    0  0.00000000000E+00  0.00000000000E+00  0.12061500569E+04  0.12061500569E+04  0.00000000000E+00 0. -1.
         -2   -1    0    0    0  501 -0.00000000000E+00 -0.00000000000E+00 -0.20753988533E+02  0.20753988533E+02  0.00000000000E+00 0.  1.
         25    2    1    2    0    0 -0.11316090101E+03  0.18529696732E+02  0.65107527938E+03  0.67282618891E+03  0.12508925571E+03 0.  0.
          5    1    3    3  502    0 -0.47303266218E+01  0.70503392589E+01 -0.28314464308E+01  0.98778926145E+01  0.41800000000E+01 0. -1.
         -5    1    3    3    0  502 -0.10843057439E+03  0.11479357473E+02  0.65390672581E+03  0.66294829630E+03  0.41800000000E+01 0. -1.
        -11    1    1    2    0    0  0.17617802600E+02 -0.27592224046E+02  0.46267749225E+02  0.56678235811E+02  0.00000000000E+00 0.  1.
         11    1    1    2    0    0  0.95543098414E+02  0.90625273139E+01  0.48805303973E+03  0.49739962067E+03  0.00000000000E+00 0. -1.
</event>
<event>
 7    1  0.2732144E-009  0.1337920E+03  0.7561462E-02  0.1221935E+00
         -1   -1    0    0    0  501 -0.00000000000E+00  0.00000000000E+00  0.59288753202E+03  0.59288753202E+03  0.00000000000E+00 0.  1.
          1   -1    0    0  501    0  0.00000000000E+00 -0.00000000000E+00 -0.59532832844E+02  0.59532832844E+02  0.00000000000E+00 0. -1.
         25    2    1    2    0    0 -0.10839834444E+03  0.18117127772E+02  0.46443748551E+03  0.49338490842E+03  0.12509220006E+03 0.  0.
          5    1    3    3  502    0 -0.11660670707E+03  0.41582136725E+02  0.44393242089E+03  0.46089007903E+03  0.41800000000E+01 0. -1.
         -5    1    3    3    0  502  0.82083626324E+01 -0.23465008953E+02  0.20505064622E+02  0.32494829396E+02  0.41800000000E+01 0. -1.
        -11    1    1    2    0    0  0.94823371907E+02  0.12784211126E+01  0.87427992987E+02  0.12898356553E+03  0.00000000000E+00 0.  1.
         11    1    1    2    0    0  0.13574972534E+02 -0.19395548884E+02 -0.18510779323E+02  0.30051890905E+02  0.00000000000E+00 0. -1.
</event>
<event>
 7    1  0.2732144E-009  0.1884519E+03  0.7561462E-02  0.1159865E+00
         -1   -1    0    0    0  501 -0.00000000000E+00  0.00000000000E+00  0.15352296830E+03  0.15352296830E+03  0.00000000000E+00 0.  1.
          1   -1    0    0  501    0  0.00000000000E+00 -0.00000000000E+00 -0.26918134581E+03  0.26918134581E+03  0.00000000000E+00 0. -1.
         25    2    1    2    0    0  0.13093136584E+03  0.10814824741E+03 -0.33858821614E+02  0.21361466665E+03  0.12508293261E+03 0.  0.
          5    1    3    3  502    0  0.14689030331E+03  0.64619753309E+02 -0.88543343613E+01  0.16077420614E+03  0.41800000000E+01 0.  1.
         -5    1    3    3    0  502 -0.15958937470E+02  0.43528494102E+02 -0.25004487253E+02  0.52840460509E+02  0.41800000000E+01 0.  1.
        -11    1    1    2    0    0 -0.54493602533E+02 -0.45652108952E+02  0.12935891843E+02  0.72256522658E+02  0.00000000000E+00 0.  1.
         11    1    1    2    0    0 -0.76437763307E+02 -0.62496138459E+02 -0.94735447741E+02  0.13683312479E+03  0.00000000000E+00 0. -1.
</event>
<event>
 7    1  0.2732144E-009  0.1084230E+03  0.7561462E-02  0.1263518E+00
         -1   -1    0    0    0  501 -0.00000000000E+00  0.00000000000E+00  0.98101301827E+02  0.98101301827E+02  0.00000000000E+00 0.  1.
          1   -1    0    0  501    0  0.00000000000E+00 -0.00000000000E+00 -0.17455867795E+03  0.17455867795E+03  0.00000000000E+00 0. -1.
         25    2    1    2    0    0  0.69858956217E+02 -0.38944291916E+01 -0.48838562237E+02  0.15142086097E+03  0.12509049377E+03 0.  0.
          5    1    3    3  502    0  0.88012578011E+02  0.14148187988E+02  0.73434731645E+01  0.89542080105E+02  0.41800000000E+01 0. -1.
         -5    1    3    3    0  502 -0.18153621794E+02 -0.18042617180E+02 -0.56182035401E+02  0.61878780860E+02  0.41800000000E+01 0. -1.
        -11    1    1    2    0    0 -0.27490248290E+02 -0.34761989909E+02  0.18121171010E+02  0.47879917838E+02  0.00000000000E+00 0.  1.
         11    1    1    2    0    0 -0.42368707927E+02  0.38656419100E+02 -0.45739984895E+02  0.73359200972E+02  0.00000000000E+00 0. -1.
</event>
<event>
 7    1  0.2732144E-009  0.1374605E+03  0.7561462E-02  0.1216787E+00
          2   -1    0    0  501    0  0.00000000000E+00  0.00000000000E+00  0.22458733287E+03  0.22458733287E+03  0.00000000000E+00 0. -1.
         -2   -1    0    0    0  501 -0.00000000000E+00 -0.00000000000E+00 -0.97278676924E+02  0.97278676924E+02  0.00000000000E+00 0.  1.
         25    2    1    2    0    0 -0.96547825216E+02 -0.12547974247E+02  0.95430183941E+02  0.18502633721E+03  0.12509552847E+03 0.  0.
          5    1    3    3  502    0 -0.81919262606E+02  0.37757455947E+02  0.96897750893E+02  0.13245013248E+03  0.41800000000E+01 0.  1.
         -5    1    3    3    0  502 -0.14628562610E+02 -0.50305430195E+02 -0.14675669521E+01  0.52576204730E+02  0.41800000000E+01 0.  1.
        -11    1    1    2    0    0  0.97868744342E+02 -0.19666442837E+02  0.31213557896E+02  0.10459132990E+03  0.00000000000E+00 0.  1.
         11    1    1    2    0    0 -0.13209191262E+01  0.32214417085E+02  0.66491410936E+00  0.32248342690E+02  0.00000000000E+00 0. -1.
</event>
<event>
 7    1  0.2732144E-009  0.1880576E+03  0.7561462E-02  0.1160225E+00
          2   -1    0    0  501    0  0.00000000000E+00  0.00000000000E+00  0.47601412482E+03  0.47601412482E+03  0.00000000000E+00 0. -1.
         -2   -1    0    0    0  501 -0.00000000000E+00 -0.00000000000E+00 -0.81448537158E+02  0.81448537158E+02  0.00000000000E+00 0.  1.
         25    2    1    2    0    0  0.16879171998E+03  0.27663449241E+02  0.19488019924E+03  0.28788981665E+03  0.12508534414E+03 0.  0.
          5    1    3    3  502    0  0.16666586311E+02 -0.30298185483E+02  0.83842191511E+02  0.90789540258E+02  0.41800000000E+01 0.  1.
         -5    1    3    3    0  502  0.15212513367E+03  0.57961634724E+02  0.11103800772E+03  0.19710027639E+03  0.41800000000E+01 0.  1.
        -11    1    1    2    0    0 -0.10441489329E+03 -0.41894279688E+02  0.10291098840E+03  0.15247384086E+03  0.00000000000E+00 0.  1.
         11    1    1    2    0    0 -0.64376826686E+02  0.14230830447E+02  0.96774400025E+02  0.11709900448E+03  0.00000000000E+00 0. -1.
</event>
<event>
 7    1  0.2732144E-009  0.7613732E+02  0.7561462E-02  0.1340385E+00
          1   -1    0    0  501    0  0.00000000000E+00  0.00000000000E+00  0.28651782920E+03  0.28651782920E+03  0.00000000000E+00 0. -1.
         -1   -1    0    0    0  501 -0.00000000000E+00 -0.00000000000E+00 -0.51909033205E+02  0.51909033205E+02  0.00000000000E+00 0.  1.
         25    2    1    2    0    0  0.55603726282E+02  0.98537832879E+01  0.13932106027E+03  0.19556818761E+03  0.12509071408E+03 0.  0.
          5    1    3    3  502    0  0.61192267087E+01  0.37188541503E+02 -0.70806004981E+01  0.38575119676E+02  0.41800000000E+01 0. -1.
         -5    1    3    3    0  502  0.49484499573E+02 -0.27334758215E+02  0.14640166076E+03  0.15699306793E+03  0.41800000000E+01 0. -1.
        -11    1    1    2    0    0 -0.37593557248E+02 -0.10177846412E+01 -0.73158725927E+01  0.38312314259E+02  0.00000000000E+00 0.  1.
         11    1    1    2    0    0 -0.18010169034E+02 -0.88359986468E+01  0.10260360833E+03  0.10454636054E+03  0.00000000000E+00 0. -1.
</event>
<event>
 7    1  0.2732144E-009  0.3596118E+02  0.7561462E-02  0.1540227E+00
          1   -1    0    0  501    0  0.00000000000E+00  0.00000000000E+00  0.52178278500E+02  0.52178278500E+02  0.00000000000E+00 0. -1.
         -1   -1    0    0    0  501 -0.00000000000E+00 -0.00000000000E+00 -0.28928254415E+03  0.28928254415E+03  0.00000000000E+00 0.  1.
         25    2    1    2    0    0  0.15375212068E+02  0.30940762572E+02 -0.20482826908E+03  0.24248028181E+03  0.12509332244E+03 0.  0.
          5    1    3    3  502    0  0.31969124468E+01  0.55388947743E+01  0.17101598729E+02  0.18730634895E+02  0.41800000000E+01 0.  1.
         -5    1    3    3    0  502  0.12178299622E+02  0.25401867798E+02 -0.22192986781E+03  0.22374964691E+03  0.41800000000E+01 0.  1.
        -11    1    1    2    0    0 -0.62928854173E+01 -0.22643675925E+02 -0.62272391936E+02  0.66559651920E+02  0.00000000000E+00 0.  1.
         11    1    1    2    0    0 -0.90823266511E+01 -0.82970866467E+01  0.29996395359E+02  0.32420888926E+02  0.00000000000E+00 0. -1.
</event>
<event>
 7    1  0.2732144E-009  0.1118864E+03  0.7561462E-02  0.1257116E+00
         -1   -1    0    0    0  501 -0.00000000000E+00  0.00000000000E+00  0.12815441866E+03  0.12815441866E+03  0.00000000000E+00 0. -1.
          1   -1    0    0  501    0  0.00000000000E+00 -0.00000000000E+00 -0.11570428648E+03  0.11570428648E+03  0.00000000000E+00 0.  1.
         25    2    1    2    0    0 -0.39657095568E+02  0.28356862297E+02  0.41153625010E+02  0.14041512056E+03  0.12508392527E+03 0.  0.
          5    1    3    3  502    0 -0.96856658003E+00  0.72062601954E+02  0.66843890636E+01  0.72499035709E+02  0.41800000000E+01 0.  1.
         -5    1    3    3    0  502 -0.38688528988E+02 -0.43705739657E+02  0.34469235946E+02  0.67916084847E+02  0.41800000000E+01 0.  1.
        -11    1    1    2    0    0  0.63732356159E+02 -0.14779207400E+02 -0.36245739955E+02  0.74792993374E+02  0.00000000000E+00 0.  1.
         11    1    1    2    0    0 -0.24075260591E+02 -0.13577654897E+02  0.75422471219E+01  0.28650591210E+02  0.00000000000E+00 0. -1.
</event>
<event>
 7    1  0.2732144E-009  0.1006036E+03  0.7561462E-02  0.1279032E+00
          4   -1    0    0  501    0  0.00000000000E+00  0.00000000000E+00  0.10620820352E+03  0.10620820352E+03  0.00000000000E+00 0. -1.
         -4   -1    0    0    0  501 -0.00000000000E+00 -0.00000000000E+00 -0.11327063796E+03  0.11327063796E+03  0.00000000000E+00 0.  1.
         25    2    1    2    0    0  0.29807654932E+01  0.10625612377E+02  0.49542527249E+01  0.12567372250E+03  0.12509017270E+03 0.  0.
          5    1    3    3  502    0 -0.52582928539E+02  0.28049055694E+02  0.23825426123E+02  0.64318249580E+02  0.41800000000E+01 0. -1.
         -5    1    3    3    0  502  0.55563694032E+02 -0.17423443318E+02 -0.18871173398E+02  0.61355472917E+02  0.41800000000E+01 0. -1.
        -11    1    1    2    0    0  0.22611861099E+02 -0.38870055391E+02 -0.27449576442E+02  0.52684501662E+02  0.00000000000E+00 0. -1.
         11    1    1    2    0    0 -0.25592626592E+02  0.28244443015E+02  0.15432889280E+02  0.41120617318E+02  0.00000000000E+00 0.  1.
</event>
<event>
 7    1  0.2732144E-009  0.8354007E+02  0.7561462E-02  0.1319295E+00
         -2   -1    0    0    0  501 -0.00000000000E+00  0.00000000000E+00  0.87300122857E+02  0.87300122857E+02  0.00000000000E+00 0.  1.
          2   -1    0    0  501    0  0.00000000000E+00 -0.00000000000E+00 -0.22036250076E+03  0.22036250076E+03  0.00000000000E+00 0. -1.
         25    2    1    2    0    0 -0.20754721830E+02  0.61793196542E+01 -0.16494277235E+03  0.20814072361E+03  0.12508996845E+03 0.  0.
          5    1    3    3  502    0 -0.37949103128E+02 -0.20015799580E+02 -0.17065653443E+03  0.17601673729E+03  0.41800000000E+01 0. -1.
         -5    1    3    3    0  502  0.17194381298E+02  0.26195119234E+02  0.57137620866E+01  0.32123986321E+02  0.41800000000E+01 0. -1.
        -11    1    1    2    0    0  0.39217022101E+02  0.31565836479E+02  0.27262249212E+02  0.57250389407E+02  0.00000000000E+00 0. -1.
         11    1    1    2    0    0 -0.18462300271E+02 -0.37745156133E+02  0.46181452348E+01  0.42271510598E+02  0.00000000000E+00 0.  1.
</event>
<event>
 7    1  0.2732144E-009  0.9422241E+02  0.7561462E-02  0.1292937E+00
          4   -1    0    0  501    0  0.00000000000E+00  0.00000000000E+00  0.10548326166E+03  0.10548326166E+03  0.00000000000E+00 0. -1.
         -4   -1    0    0    0  501 -0.00000000000E+00 -0.00000000000E+00 -0.13269599795E+03  0.13269599795E+03  0.00000000000E+00 0.  1.
         25    2    1    2    0    0  0.24471919979E+02 -0.39082483057E+02 -0.30111590384E+02  0.13666617612E+03  0.12507845726E+03 0.  0.
          5    1    3    3  502    0 -0.10577548303E+02  0.27101502735E+02  0.28905624486E+02  0.41223579485E+02  0.41800000000E+01 0. -1.
         -5    1    3    3    0  502  0.35049468282E+02 -0.66183985793E+02 -0.59017214870E+02  0.95442596639E+02  0.41800000000E+01 0. -1.
        -11    1    1    2    0    0  0.20004489214E+02  0.33772969001E+02 -0.27014668366E+02  0.47650659291E+02  0.00000000000E+00 0.  1.
         11    1    1    2    0    0 -0.44476409193E+02  0.53095140559E+01  0.29913522464E+02  0.53862424197E+02  0.00000000000E+00 0. -1.
</event>
<event>
 7    1  0.2732144E-009  0.1176534E+03  0.7561462E-02  0.1247019E+00
         -3   -1    0    0    0  501 -0.00000000000E+00  0.00000000000E+00  0.76646730829E+02  0.76646730829E+02  0.00000000000E+00 0.  1.
          3   -1    0    0  501    0  0.00000000000E+00 -0.00000000000E+00 -0.28935507849E+03  0.28935507849E+03  0.00000000000E+00 0. -1.
         25    2    1    2    0    0  0.93666316106E+01 -0.86337946453E+02 -0.18364155195E+03  0.23856846964E+03  0.12509484530E+03 0.  0.
          5    1    3    3  502    0 -0.17345377686E+02  0.22150400826E+02 -0.84424487381E+02  0.89086861283E+02  0.41800000000E+01 0. -1.
         -5    1    3    3    0  502  0.26712009297E+02 -0.10848834728E+03 -0.99217064567E+02  0.14948160836E+03  0.41800000000E+01 0. -1.
        -11    1    1    2    0    0  0.15196116235E+02  0.31863054282E+02  0.27807202845E+02  0.44937920589E+02  0.00000000000E+00 0.  1.
         11    1    1    2    0    0 -0.24562747846E+02  0.54474892171E+02 -0.56873998557E+02  0.82495419088E+02  0.00000000000E+00 0. -1.
</event>
<event>
 7    1  0.2732144E-009  0.8711693E+02  0.7561462E-02  0.1309988E+00
         -1   -1    0    0    0  501 -0.00000000000E+00  0.00000000000E+00  0.20636726558E+02  0.20636726558E+02  0.00000000000E+00 0.  1.
          1   -1    0    0  501    0  0.00000000000E+00 -0.00000000000E+00 -0.70167207870E+03  0.70167207870E+03  0.00000000000E+00 0. -1.
         25    2    1    2    0    0  0.23006821715E+01  0.13119466221E+02 -0.52467923500E+03  0.53955094399E+03  0.12509799353E+03 0.  0.
          5    1    3    3  502    0  0.47963992200E+02  0.46476961129E+02 -0.33313736095E+03  0.33979203364E+03  0.41800000000E+01 0.  1.
         -5    1    3    3    0  502 -0.45663310029E+02 -0.33357494908E+02 -0.19154187405E+03  0.19975891035E+03  0.41800000000E+01 0.  1.
        -11    1    1    2    0    0  0.19163846674E+01  0.18556769038E+02  0.41417261553E+01  0.19109686101E+02  0.00000000000E+00 0.  1.
         11    1    1    2    0    0 -0.42170668389E+01 -0.31676235259E+02 -0.16049784330E+03  0.16364817517E+03  0.00000000000E+00 0. -1.
</event>
<event>
 7    1  0.2732144E-009  0.6443629E+02  0.7561462E-02  0.1380105E+00
          1   -1    0    0  501    0  0.00000000000E+00  0.00000000000E+00  0.42503433190E+03  0.42503433190E+03  0.00000000000E+00 0. -1.
         -1   -1    0    0    0  501 -0.00000000000E+00 -0.00000000000E+00 -0.34497681987E+02  0.34497681987E+02  0.00000000000E+00 0.  1.
         25    2    1    2    0    0 -0.13392255330E+02  0.19100004503E+02  0.12652409856E+03  0.17944311388E+03  0.12508925185E+03 0.  0.
          5    1    3    3  502    0 -0.34493793290E+01  0.38255582399E+02  0.14541342733E+03  0.15045904775E+03  0.41800000000E+01 0.  1.
         -5    1    3    3    0  502 -0.99428760012E+01 -0.19155577896E+02 -0.18889328775E+02  0.28984066127E+02  0.41800000000E+01 0.  1.
        -11    1    1    2    0    0 -0.24777404038E+02  0.16023785586E+01  0.19017207079E+02  0.31275254324E+02  0.00000000000E+00 0.  1.
         11    1    1    2    0    0  0.38169659368E+02 -0.20702383061E+02  0.24499534428E+03  0.24881364568E+03  0.00000000000E+00 0. -1.
</event>
<event>
 7    1  0.2732144E-009  0.9374705E+02  0.7561462E-02  0.1294023E+00
         -2   -1    0    0    0  501 -0.00000000000E+00  0.00000000000E+00  0.18899987757E+03  0.18899987757E+03  0.00000000000E+00 0.  1.
          2   -1    0    0  501    0  0.00000000000E+00 -0.00000000000E+00 -0.11823961758E+03  0.11823961758E+03  0.00000000000E+00 0. -1.
         25    2    1    2    0    0  0.50571949894E+02 -0.72382137544E+02 -0.12698031128E+02  0.15364156967E+03  0.12509115070E+03 0.  0.
          5    1    3    3  502    0  0.80347261131E+00 -0.90355703214E+01 -0.59532409647E+02  0.60364453925E+02  0.41800000000E+01 0.  1.
         -5    1    3    3    0  502  0.49768477282E+02 -0.63346567223E+02  0.46834378519E+02  0.93277115742E+02  0.41800000000E+01 0.  1.
        -11    1    1    2    0    0  0.36036915203E+01  0.23798680175E+02 -0.17061026921E+02  0.29503261010E+02  0.00000000000E+00 0. -1.
         11    1    1    2    0    0 -0.54175641414E+02  0.48583457369E+02  0.10051931804E+03  0.12409466447E+03  0.00000000000E+00 0.  1.
</event>
<event>
 7    1  0.2732144E-009  0.1298566E+03  0.7561462E-02  0.1227669E+00
         -4   -1    0    0    0  501 -0.00000000000E+00  0.00000000000E+00  0.53303906566E+03  0.53303906566E+03  0.00000000000E+00 0. -1.
          4   -1    0    0  501    0  0.00000000000E+00 -0.00000000000E+00 -0.40342091606E+02  0.40342091606E+02  0.00000000000E+00 0.  1.
         25    2    1    2    0    0  0.53751892736E+02  0.82385999124E+02  0.26997049479E+03  0.31338141265E+03  0.12508846035E+03 0.  0.
          5    1    3    3  502    0 -0.80890041217E+01 -0.27358850900E+02  0.83260340753E+02  0.88111834918E+02  0.41800000000E+01 0. -1.
         -5    1    3    3    0  502  0.61840896857E+02  0.10974485002E+03  0.18671015404E+03  0.22526957773E+03  0.41800000000E+01 0. -1.
        -11    1    1    2    0    0 -0.43757766289E+01 -0.38597964683E+02  0.14331612046E+02  0.41404654359E+02  0.00000000000E+00 0.  1.
         11    1    1    2    0    0 -0.49376116107E+02 -0.43788034441E+02  0.20839486722E+03  0.21859509026E+03  0.00000000000E+00 0. -1.
</event>
<event>
 7    1  0.2732144E-009  0.1249510E+03  0.7561462E-02  0.1235146E+00
         -4   -1    0    0    0  501 -0.00000000000E+00  0.00000000000E+00  0.12137354113E+03  0.12137354113E+03  0.00000000000E+00 0.  1.
          4   -1    0    0  501    0  0.00000000000E+00 -0.00000000000E+00 -0.14780764391E+03  0.14780764391E+03  0.00000000000E+00 0. -1.
         25    2    1    2    0    0 -0.14628394545E+02  0.77666910891E+02 -0.24533533410E+02  0.14998491406E+03  0.12508973264E+03 0.  0.
          5    1    3    3  502    0 -0.60605908927E+02  0.51830070336E+02 -0.46829308311E+02  0.92573694454E+02  0.41800000000E+01 0.  1.
         -5    1    3    3    0  502  0.45977514382E+02  0.25836840555E+02  0.22295774901E+02  0.57411219610E+02  0.41800000000E+01 0.  1.
        -11    1    1    2    0    0 -0.24975964394E+02 -0.73130780135E+02 -0.11667412178E+02  0.78153939808E+02  0.00000000000E+00 0. -1.
         11    1    1    2    0    0  0.39604358939E+02 -0.45361307560E+01  0.97668428065E+01  0.41042331167E+02  0.00000000000E+00 0.  1.
</event>
<event>
 7    1  0.2732144E-009  0.1167630E+03  0.7561462E-02  0.1248535E+00
         -3   -1    0    0    0  501 -0.00000000000E+00  0.00000000000E+00  0.64605045478E+02  0.64605045478E+02  0.00000000000E+00 0.  1.
          3   -1    0    0  501    0  0.00000000000E+00 -0.00000000000E+00 -0.28069278236E+03  0.28069278236E+03  0.00000000000E+00 0. -1.
         25    2    1    2    0    0 -0.23010484302E+02  0.63028118118E+02 -0.63610472214E+02  0.15554825704E+03  0.12508773734E+03 0.  0.
          5    1    3    3  502    0  0.18424531899E+02  0.83050183610E+02 -0.68200178266E+02  0.10911247907E+03  0.41800000000E+01 0.  1.
         -5    1    3    3    0  502 -0.41435016201E+02 -0.20022065492E+02  0.45897060518E+01  0.46435777971E+02  0.41800000000E+01 0.  1.
        -11    1    1    2    0    0  0.51514564442E+02 -0.35850635483E+02 -0.13011231238E+03  0.14445841009E+03  0.00000000000E+00 0. -1.
         11    1    1    2    0    0 -0.28504080140E+02 -0.27177482635E+02 -0.22364952292E+02  0.45291160705E+02  0.00000000000E+00 0.  1.
</event>
<event>
 6    1  0.2732144E-009  0.5958980E+02  0.7561462E-02  0.1399561E+00
         -2   -1    0    0    0  501 -0.00000000000E+00  0.00000000000E+00  0.32862645846E+03  0.32862645846E+03  0.00000000000E+00 0.  1.
          2   -1    0    0  501    0  0.00000000000E+00 -0.00000000000E+00 -0.40241270593E+02  0.40241270593E+02  0.00000000000E+00 0. -1.
          5    1    1    2  502    0 -0.35771987996E+02  0.13966839131E+02  0.14722184019E+03  0.15220529015E+03  0.41800000000E+01 0.  1.
         -5    1    1    2    0  502  0.12503214475E+02 -0.11929159714E+02 -0.20701675099E+02  0.27288586911E+02  0.41800000000E+01 0.  1.
        -11    1    1    2    0    0  0.38623963975E+02 -0.16198682183E+02  0.16315572994E+03  0.16844583732E+03  0.00000000000E+00 0.  1.
         11    1    1    2    0    0 -0.15355190455E+02  0.14161002765E+02 -0.12907071649E+01  0.20928014674E+02  0.00000000000E+00 0. -1.
</event>
<event>
 7    1  0.2732144E-009  0.1068813E+03  0.7561462E-02  0.1266457E+00
          2   -1    0    0  501    0  0.00000000000E+00  0.00000000000E+00  0.49594381379E+03  0.49594381379E+03  0.00000000000E+00 0. -1.
         -2   -1    0    0    0  501 -0.00000000000E+00 -0.00000000000E+00 -0.38022487071E+02  0.38022487071E+02  0.00000000000E+00 0.  1.
         25    2    1    2    0    0 -0.34271564634E+02 -0.30654968868E+02  0.39105775544E+03  0.41314334807E+03  0.12508793188E+03 0.  0.
          5    1    3    3  502    0 -0.27549558206E+02 -0.70469676549E+02  0.14350198603E+03  0.16228137867E+03  0.41800000000E+01 0.  1.
         -5    1    3    3    0  502 -0.67220064279E+01  0.39814707681E+02  0.24755576942E+03  0.25086196940E+03  0.41800000000E+01 0.  1.
        -11    1    1    2    0    0  0.10703913033E+02 -0.30247945744E+02  0.83873322167E+01  0.33164126970E+02  0.00000000000E+00 0.  1.
         11    1    1    2    0    0  0.23567651601E+02  0.60902914613E+02  0.58476239065E+02  0.87658825828E+02  0.00000000000E+00 0. -1.
</event>
<event>
 7    1  0.3096170E-009  0.1659124E+03  0.7561462E-02  0.1182179E+00
          1   -1    0    0  501    0  0.00000000000E+00  0.00000000000E+00  0.28831430520E+03  0.28831430520E+03  0.00000000000E+00 0. -1.
         -1   -1    0    0    0  501 -0.00000000000E+00 -0.00000000000E+00 -0.11942022138E+03  0.11942022138E+03  0.00000000000E+00 0.  1.
         25    2    1    2    0    0 -0.10611185053E+03 -0.95262590399E+02  0.13988251807E+03  0.23569026565E+03  0.12509235192E+03 0.  0.
          5    1    3    3  502    0 -0.11816621122E+03 -0.28999380704E+02  0.97815150628E+02  0.15617135988E+03  0.41800000000E+01 0.  1.
         -5    1    3    3    0  502  0.12054360692E+02 -0.66263209695E+02  0.42067367438E+02  0.79518905764E+02  0.41800000000E+01 0.  1.
        -11    1    1    2    0    0  0.80783499922E+02  0.72356497820E+02  0.61698345106E+02  0.12477228228E+03  0.00000000000E+00 0. -1.
         11    1    1    2    0    0  0.25328350606E+02  0.22906092579E+02 -0.32686779345E+02  0.47271978651E+02  0.00000000000E+00 0.  1.
</event>
<event>
 7    1  0.2732144E-009  0.1402099E+03  0.7561462E-02  0.1213047E+00
          1   -1    0    0  501    0  0.00000000000E+00  0.00000000000E+00  0.11971562183E+04  0.11971562183E+04  0.00000000000E+00 0. -1.
         -1   -1    0    0    0  501 -0.00000000000E+00 -0.00000000000E+00 -0.33521043375E+02  0.33521043375E+02  0.00000000000E+00 0.  1.
         25    2    1    2    0    0 -0.72841506889E+02 -0.11327668542E+03  0.92825266986E+03  0.94627556394E+03  0.12508769412E+03 0.  0.
          5    1    3    3  502    0 -0.48572056374E+02 -0.59586007786E+02  0.81422250523E+03  0.81785420303E+03  0.41800000000E+01 0.  1.
         -5    1    3    3    0  502 -0.24269450515E+02 -0.53690677634E+02  0.11403016463E+03  0.12842136091E+03  0.41800000000E+01 0.  1.
        -11    1    1    2    0    0  0.54163330652E+02  0.36422204541E+02  0.16892337998E+03  0.18109486927E+03  0.00000000000E+00 0. -1.
         11    1    1    2    0    0  0.18678176237E+02  0.76854480879E+02  0.66459125047E+02  0.10330682843E+03  0.00000000000E+00 0.  1.
</event>
<event>
 7    1  0.2732144E-009  0.1027873E+03  0.7561462E-02  0.1274541E+00
          2   -1    0    0  501    0  0.00000000000E+00  0.00000000000E+00  0.78946351632E+03  0.78946351632E+03  0.00000000000E+00 0.  1.
         -2   -1    0    0    0  501 -0.00000000000E+00 -0.00000000000E+00 -0.20300358312E+02  0.20300358312E+02  0.00000000000E+00 0. -1.
         25    2    1    2    0    0  0.58704535173E+02  0.27988923568E+02  0.38820244420E+03  0.41301147709E+03  0.12509092786E+03 0.  0.
          5    1    3    3  502    0  0.43692656919E+02 -0.22488729044E+02  0.48306554720E+02  0.69034678470E+02  0.41800000000E+01 0. -1.
         -5    1    3    3    0  502  0.15011878254E+02  0.50477652611E+02  0.33989588948E+03  0.34397679862E+03  0.41800000000E+01 0. -1.
        -11    1    1    2    0    0  0.18994719145E+02  0.39839030191E+01  0.28952312459E+02  0.34855519439E+02  0.00000000000E+00 0. -1.
         11    1    1    2    0    0 -0.77699254317E+02 -0.31972826587E+02  0.35200840135E+03  0.36189687810E+03  0.00000000000E+00 0.  1.
</event>
<event>
 7    1  0.2732144E-009  0.1593963E+03  0.7561462E-02  0.1189380E+00
         -2   -1    0    0    0  501 -0.00000000000E+00  0.00000000000E+00  0.35823281933E+03  0.35823281933E+03  0.00000000000E+00 0. -1.
          2   -1    0    0  501    0  0.00000000000E+00 -0.00000000000E+00 -0.82010538672E+02  0.82010538672E+02  0.00000000000E+00 0.  1.
         25    2    1    2    0    0  0.10914447706E+03 -0.74495011717E+02  0.13986188611E+03  0.22950272548E+03  0.12509248648E+03 0.  0.
          5    1    3    3  502    0  0.13398620238E+03 -0.44456789233E+02  0.96525197608E+02  0.17106517679E+03  0.41800000000E+01 0. -1.
         -5    1    3    3    0  502 -0.24841725321E+02 -0.30038222484E+02  0.43336688506E+02  0.58437548696E+02  0.41800000000E+01 0. -1.
        -11    1    1    2    0    0 -0.52223588311E+02  0.11534678720E+02  0.10925220048E+03  0.12164043447E+03  0.00000000000E+00 0.  1.
         11    1    1    2    0    0 -0.56920888744E+02  0.62960332997E+02  0.27108194067E+02  0.89100198048E+02  0.00000000000E+00 0. -1.
</event>
<event>
 7    1  0.2732144E-009  0.1078085E+03  0.7561462E-02  0.1264683E+00
          2   -1    0    0  501    0  0.00000000000E+00  0.00000000000E+00  0.46634452711E+03  0.46634452711E+03  0.00000000000E+00 0. -1.
         -2   -1    0    0    0  501 -0.00000000000E+00 -0.00000000000E+00 -0.60998318895E+02  0.60998318895E+02  0.00000000000E+00 0.  1.
         25    2    1    2    0    0 -0.67177007941E+02 -0.75338630752E+02  0.34365951505E+03  0.37939379838E+03  0.12509649188E+03 0.  0.
          5    1    3    3  502    0 -0.73263148410E+01 -0.20973922051E+02  0.26680736484E+03  0.26776337058E+03  0.41800000000E+01 0. -1.
         -5    1    3    3    0  502 -0.59850693100E+02 -0.54364708701E+02  0.76852150216E+02  0.11163042779E+03  0.41800000000E+01 0. -1.
        -11    1    1    2    0    0  0.57818961320E+02  0.28833493251E+02  0.74694421332E+02  0.98760615629E+02  0.00000000000E+00 0. -1.
         11    1    1    2    0    0  0.93580466205E+01  0.46505137502E+02 -0.13007728168E+02  0.49188432001E+02  0.00000000000E+00 0.  1.
</event>
<event>
 7    1  0.2732144E-009  0.1108872E+03  0.7561462E-02  0.1258936E+00
          3   -1    0    0  501    0  0.00000000000E+00  0.00000000000E+00  0.58145129993E+02  0.58145129993E+02  0.00000000000E+00 0. -1.
         -3   -1    0    0    0  501 -0.00000000000E+00 -0.00000000000E+00 -0.51547555175E+03  0.51547555175E+03  0.00000000000E+00 0.  1.
         25    2    1    2    0    0 -0.91026220615E+02  0.39019219783E+02 -0.90666168570E+02  0.18351076503E+03  0.12509026504E+03 0.  0.
          5    1    3    3  502    0 -0.78922873022E+02  0.24974501936E+02  0.77771001849E+01  0.83249632554E+02  0.41800000000E+01 0.  1.
         -5    1    3    3    0  502 -0.12103347593E+02  0.14044717847E+02 -0.98443268755E+02  0.10026113248E+03  0.41800000000E+01 0.  1.
        -11    1    1    2    0    0  0.10164678647E+03 -0.30087962724E+02 -0.35885909222E+03  0.37418872614E+03  0.00000000000E+00 0.  1.
         11    1    1    2    0    0 -0.10620565851E+02 -0.89312570590E+01 -0.78051609716E+01  0.15921190579E+02  0.00000000000E+00 0. -1.
</event>
<event>
 7    1  0.2732144E-009  0.8998578E+02  0.7561462E-02  0.1302886E+00
          3   -1    0    0  501    0  0.00000000000E+00  0.00000000000E+00  0.43526941553E+03  0.43526941553E+03  0.00000000000E+00 0. -1.
         -3   -1    0    0    0  501 -0.00000000000E+00 -0.00000000000E+00 -0.31000237910E+02  0.31000237910E+02  0.00000000000E+00 0.  1.
         25    2    1    2    0    0 -0.40060331158E+02  0.85850688186E+01  0.24942408866E+03  0.28202616474E+03  0.12509135883E+03 0.  0.
          5    1    3    3  502    0 -0.23531645195E+02  0.39058238919E+02  0.24204304196E+03  0.24633633697E+03  0.41800000000E+01 0. -1.
         -5    1    3    3    0  502 -0.16528685963E+02 -0.30473170100E+02  0.73810467017E+01  0.35689827767E+02  0.41800000000E+01 0. -1.
        -11    1    1    2    0    0 -0.28018192223E+02  0.81078909794E+01  0.36824523148E+02  0.46976616488E+02  0.00000000000E+00 0.  1.
         11    1    1    2    0    0  0.68078523381E+02 -0.16692959798E+02  0.11802056582E+03  0.13726687222E+03  0.00000000000E+00 0. -1.
</event>
<event>
 7    1  0.2732144E-009  0.1354895E+03  0.7561462E-02  0.1219530E+00
          1   -1    0    0  501    0  0.00000000000E+00  0.00000000000E+00  0.14807150554E+03  0.14807150554E+03  0.00000000000E+00 0. -1.
         -1   -1    0    0    0  501 -0.00000000000E+00 -0.00000000000E+00 -0.15927546652E+03  0.15927546652E+03  0.00000000000E+00 0.  1.
         25    2    1    2    0    0 -0.62345619322E+02 -0.81863110052E+02  0.28940028421E+02  0.16451375883E+03  0.12505481424E+03 0.  0.
          5    1    3    3  502    0 -0.10056562986E+03 -0.52230433867E+02  0.21056054614E+02  0.11533557112E+03  0.41800000000E+01 0. -1.
         -5    1    3    3    0  502  0.38220010536E+02 -0.29632676185E+02  0.78839738079E+01  0.49178187708E+02  0.41800000000E+01 0. -1.
        -11    1    1    2    0    0  0.57270211672E+02  0.47790014780E+02  0.16633018332E+02  0.76422640340E+02  0.00000000000E+00 0. -1.
         11    1    1    2    0    0  0.50754076504E+01  0.34073095271E+02 -0.56777007733E+02  0.66410572888E+02  0.00000000000E+00 0.  1.
</event>
<event>
 7    1  0.2732144E-009  0.1063993E+03  0.7561462E-02  0.1267387E+00
          1   -1    0    0  501    0  0.00000000000E+00  0.00000000000E+00  0.60624530738E+03  0.60624530738E+03  0.00000000000E+00 0. -1.
         -1   -1    0    0    0  501 -0.00000000000E+00 -0.00000000000E+00 -0.27304985833E+02  0.27304985833E+02  0.00000000000E+00 0.  1.
         25    2    1    2    0    0 -0.18383412184E+02  0.70561941238E+02  0.35117978754E+03  0.37985812748E+03  0.12509203189E+03 0.  0.
          5    1    3    3  502    0 -0.41651411591E+02 -0.65794135626E+01  0.39587180283E+02  0.57989188760E+02  0.41800000000E+01 0. -1.
         -5    1    3    3    0  502  0.23267999407E+02  0.77141354800E+02  0.31159260726E+03  0.32186893872E+03  0.41800000000E+01 0. -1.
        -11    1    1    2    0    0  0.36633706898E+02 -0.52885393064E+02  0.21658080456E+03  0.22593392438E+03  0.00000000000E+00 0.  1.
         11    1    1    2    0    0 -0.18250294714E+02 -0.17676548174E+02  0.11179729447E+02  0.27758241353E+02  0.00000000000E+00 0. -1.
</event>
<event>
 7    1  0.2732144E-009  0.1609072E+03  0.7561462E-02  0.1187676E+00
         -1   -1    0    0    0  501 -0.00000000000E+00  0.00000000000E+00  0.44633605399E+03  0.44633605399E+03  0.00000000000E+00 0.  1.
          1   -1    0    0  501    0  0.00000000000E+00 -0.00000000000E+00 -0.75295836686E+02  0.75295836686E+02  0.00000000000E+00 0. -1.
         25    2    1    2    0    0  0.85246341105E+02  0.12021398892E+03  0.20471121821E+03  0.28155389481E+03  0.12509025150E+03 0.  0.
          5    1    3    3  502    0  0.12408092539E+02  0.52986944844E+02  0.16653895922E+03  0.17525488416E+03  0.41800000000E+01 0.  1.
         -5    1    3    3    0  502  0.72838248566E+02  0.67227044075E+02  0.38172258990E+02  0.10629901065E+03  0.41800000000E+01 0.  1.
        -11    1    1    2    0    0 -0.75533611057E+02 -0.13240689037E+03  0.16468014171E+03  0.22440245117E+03  0.00000000000E+00 0.  1.
         11    1    1    2    0    0 -0.97127300480E+01  0.12192901449E+02  0.16488573782E+01  0.15675544692E+02  0.00000000000E+00 0. -1.
</event>
<event>
 7    1  0.2732144E-009  0.6813725E+02  0.7561462E-02  0.1366544E+00
         -1   -1    0    0    0  501 -0.00000000000E+00  0.00000000000E+00  0.10517001717E+03  0.10517001717E+03  0.00000000000E+00 0.  1.
          1   -1    0    0  501    0  0.00000000000E+00 -0.00000000000E+00 -0.13601489904E+03  0.13601489904E+03  0.00000000000E+00 0. -1.
         25    2    1    2    0    0  0.13545661680E+02  0.37457647578E+02 -0.52466596197E+02  0.14137727982E+03  0.12509289037E+03 0.  0.
          5    1    3    3  502    0  0.84242243570E+01  0.49016488974E+01  0.40912678499E+02  0.42264800720E+02  0.41800000000E+01 0. -1.
         -5    1    3    3    0  502  0.51214373228E+01  0.32555998680E+02 -0.93379274696E+02  0.99112479098E+02  0.41800000000E+01 0. -1.
        -11    1    1    2    0    0 -0.44269822473E+02 -0.34785782966E+00  0.26149795415E+02  0.51417409378E+02  0.00000000000E+00 0.  1.
         11    1    1    2    0    0  0.30724160793E+02 -0.37109789748E+02 -0.45280810859E+01  0.48390227008E+02  0.00000000000E+00 0. -1.
</event>
<event>
 7    1  0.2732144E-009  0.1278547E+03  0.7561462E-02  0.1230674E+00
          2   -1    0    0  501    0  0.00000000000E+00  0.00000000000E+00  0.51490659244E+02  0.51490659244E+02  0.00000000000E+00 0. -1.
         -2   -1    0    0    0  501 -0.00000000000E+00 -0.00000000000E+00 -0.45424861927E+03  0.45424861927E+03  0.00000000000E+00 0.  1.
         25    2    1    2    0    0  0.21799419990E+01 -0.10688102002E+03 -0.18600399345E+03  0.24834147560E+03  0.12509076039E+03 0.  0.
          5    1    3    3  502    0  0.25364817195E+02 -0.75390749481E+02 -0.26324572949E+02  0.83890372508E+02  0.41800000000E+01 0. -1.
         -5    1    3    3    0  502 -0.23184875196E+02 -0.31490270541E+02 -0.15967942050E+03  0.16445110309E+03  0.41800000000E+01 0. -1.
        -11    1    1    2    0    0 -0.43433994985E+02  0.46815243945E+02 -0.79237201150E+02  0.10176793715E+03  0.00000000000E+00 0.  1.
         11    1    1    2    0    0  0.41254052987E+02  0.60065776077E+02 -0.13751676543E+03  0.15562986576E+03  0.00000000000E+00 0. -1.
</event>
<event>
 7    1  0.2732144E-009  0.9962916E+02  0.7561462E-02  0.1281078E+00
          3   -1    0    0  501    0  0.00000000000E+00  0.00000000000E+00  0.60829120017E+02  0.60829120017E+02  0.00000000000E+00 0. -1.
         -3   -1    0    0    0  501 -0.00000000000E+00 -0.00000000000E+00 -0.29183112079E+03  0.29183112079E+03  0.00000000000E+00 0.  1.
         25    2    1    2    0    0  0.29948848957E+02  0.55324455438E+02 -0.18974921611E+03  0.23581947675E+03  0.12509329189E+03 0.  0.
          5    1    3    3  502    0 -0.21706044889E+02  0.22908848878E+02  0.45260205107E+01  0.32154704218E+02  0.41800000000E+01 0. -1.
         -5    1    3    3    0  502  0.51654893846E+02  0.32415606560E+02 -0.19427523662E+03  0.20366477253E+03  0.41800000000E+01 0. -1.
        -11    1    1    2    0    0 -0.53841187443E+02 -0.61381386782E+02 -0.42718885450E+02  0.92149070981E+02  0.00000000000E+00 0.  1.
         11    1    1    2    0    0  0.23892338486E+02  0.60569313438E+01  0.14661007818E+01  0.24691693080E+02  0.00000000000E+00 0. -1.
</event>
<event>
 7    1  0.2732144E-009  0.1437078E+03  0.7561462E-02  0.1208425E+00
          2   -1    0    0  501    0  0.00000000000E+00  0.00000000000E+00  0.15336869018E+03  0.15336869018E+03  0.00000000000E+00 0. -1.
         -2   -1    0    0    0  501 -0.00000000000E+00 -0.00000000000E+00 -0.14322626030E+03  0.14322626030E+03  0.00000000000E+00 0.  1.
         25    2    1    2    0    0 -0.21055019633E+02  0.96266025456E+02 -0.40571873000E+01  0.15929373336E+03  0.12509025225E+03 0.  0.
          5    1    3    3  502    0 -0.29479992218E+02  0.12524520657E+03 -0.46696658679E+01  0.12882045602E+03  0.41800000000E+01 0. -1.
         -5    1    3    3    0  502  0.84249725847E+01 -0.28979181118E+02  0.61247856789E+00  0.30473277332E+02  0.41800000000E+01 0. -1.
        -11    1    1    2    0    0  0.35041286389E+01  0.15085122050E+02  0.18952504015E+02  0.24475237143E+02  0.00000000000E+00 0. -1.
         11    1    1    2    0    0  0.17550890994E+02 -0.11135114751E+03 -0.47528868328E+01  0.11282597998E+03  0.00000000000E+00 0.  1.
</event>
<event>
 7    1  0.2732144E-009  0.9098697E+02  0.7561462E-02  0.1300479E+00
          2   -1    0    0  501    0  0.00000000000E+00  0.00000000000E+00  0.51111593106E+02  0.51111593106E+02  0.00000000000E+00 0. -1.
         -2   -1    0    0    0  501 -0.00000000000E+00 -0.00000000000E+00 -0.34874372127E+03  0.34874372127E+03  0.00000000000E+00 0.  1.
         25    2    1    2    0    0 -0.59428658640E+02  0.20161797471E+02 -0.22331321452E+03  0.26354241312E+03  0.12509016024E+03 0.  0.
          5    1    3    3  502    0 -0.70625056796E+02  0.35653142471E+02 -0.60826186925E+02  0.99881643115E+02  0.41800000000E+01 0. -1.
         -5    1    3    3    0  502  0.11196398156E+02 -0.15491345000E+02 -0.16248702760E+03  0.16366077001E+03  0.41800000000E+01 0. -1.
        -11    1    1    2    0    0  0.10778612119E+02  0.18251553310E+02  0.16147884695E+02  0.26646798261E+02  0.00000000000E+00 0. -1.
         11    1    1    2    0    0  0.48650046521E+02 -0.38413350781E+02 -0.90466798333E+02  0.10966610299E+03  0.00000000000E+00 0.  1.
</event>
<event>
 7    1  0.2732144E-009  0.1240158E+03  0.7561462E-02  0.1236616E+00
          1   -1    0    0  501    0  0.00000000000E+00  0.00000000000E+00  0.34700826511E+02  0.34700826511E+02  0.00000000000E+00 0. -1.
         -1   -1    0    0    0  501 -0.00000000000E+00 -0.00000000000E+00 -0.46280021503E+03  0.46280021503E+03  0.00000000000E+00 0.  1.
         25    2    1    2    0    0  0.55433737489E+02  0.35504628831E+02 -0.24362249953E+03  0.28165967609E+03  0.12508706142E+03 0.  0.
          5    1    3    3  502    0 -0.26308770135E+02  0.48299903067E+02 -0.68634378720E+02  0.88052157070E+02  0.41800000000E+01 0. -1.
         -5    1    3    3    0  502  0.81742507624E+02 -0.12795274236E+02 -0.17498812081E+03  0.19360751902E+03  0.41800000000E+01 0. -1.
        -11    1    1    2    0    0 -0.74537848919E+02 -0.58675497058E+01 -0.10506784282E+03  0.12895569261E+03  0.00000000000E+00 0. -1.
         11    1    1    2    0    0  0.19104111429E+02 -0.29637079125E+02 -0.79409046166E+02  0.86885672844E+02  0.00000000000E+00 0.  1.
</event>
<event>
 7    1  0.2732144E-009  0.2111530E+03  0.7561462E-02  0.1140656E+00
         -1   -1    0    0    0  501 -0.00000000000E+00  0.00000000000E+00  0.40994445112E+03  0.40994445112E+03  0.00000000000E+00 0.  1.
          1   -1    0    0  501    0  0.00000000000E+00 -0.00000000000E+00 -0.11582911553E+03  0.11582911553E+03  0.00000000000E+00 0. -1.
         25    2    1    2    0    0  0.14993725970E+03  0.10548741100E+03  0.19004718375E+03  0.29218969864E+03  0.12509241471E+03 0.  0.
          5    1    3    3  502    0  0.16914250166E+03  0.77481037941E+02  0.17246892612E+03  0.25372327442E+03  0.41800000000E+01 0. -1.
         -5    1    3    3    0  502 -0.19205241965E+02  0.28006373062E+02  0.17578257632E+02  0.38466424221E+02  0.41800000000E+01 0. -1.
        -11    1    1    2    0    0 -0.10728965241E+03 -0.23872119864E+02  0.26211356859E+02  0.11299549924E+03  0.00000000000E+00 0. -1.
         11    1    1    2    0    0 -0.42647607289E+02 -0.81615291139E+02  0.77856794988E+02  0.12058836876E+03  0.00000000000E+00 0.  1.
</event>
<event>
 7    1  0.2732144E-009  0.1074777E+03  0.7561462E-02  0.1265313E+00
         -1   -1    0    0    0  501 -0.00000000000E+00  0.00000000000E+00  0.35964055331E+02  0.35964055331E+02  0.00000000000E+00 0.  1.
          1   -1    0    0  501    0  0.00000000000E+00 -0.00000000000E+00 -0.53374313160E+03  0.53374313160E+03  0.00000000000E+00 0. -1.
         25    2    1    2    0    0  0.77259876425E+02 -0.33836754106E+02 -0.35129544872E+03  0.38231899986E+03  0.12508121731E+03 0.  0.
          5    1    3    3  502    0  0.49936096232E+02 -0.51410495143E+02 -0.74024773996E+02  0.10312028066E+03  0.41800000000E+01 0. -1.
         -5    1    3    3    0  502  0.27323780193E+02  0.17573741037E+02 -0.27727067473E+03  0.27919871920E+03  0.41800000000E+01 0. -1.
        -11    1    1    2    0    0  0.13127200068E+02 -0.17987722289E+01 -0.21847698763E+01  0.13428781873E+02  0.00000000000E+00 0.  1.
         11    1    1    2    0    0 -0.90387076493E+02  0.35635526335E+02 -0.14429885767E+03  0.17395940520E+03  0.00000000000E+00 0. -1.
</event>
<event>
 7    1  0.2835212E-009  0.1092668E+03  0.7561462E-02  0.1261934E+00
         -2   -1    0    0    0  501 -0.00000000000E+00  0.00000000000E+00  0.17699937316E+02  0.17699937316E+02  0.00000000000E+00 0.  1.
          2   -1    0    0  501    0  0.00000000000E+00 -0.00000000000E+00 -0.11561650836E+04  0.11561650836E+04  0.00000000000E+00 0. -1.
         25    2    1    2    0    0  0.57978800796E+02  0.48847087095E+02 -0.84448765838E+03  0.85706153342E+03  0.12508991825E+03 0.  0.
          5    1    3    3  502    0  0.67199738379E+02 -0.28262229989E+01 -0.21355088294E+03  0.22393133854E+03  0.41800000000E+01 0.  1.
         -5    1    3    3    0  502 -0.92209375833E+01  0.51673310094E+02 -0.63093677544E+03  0.63313019488E+03  0.41800000000E+01 0.  1.
        -11    1    1    2    0    0 -0.65734624384E+02 -0.20137330258E+02 -0.26996183516E+03  0.27857843663E+03  0.00000000000E+00 0. -1.
         11    1    1    2    0    0  0.77558235876E+01 -0.28709756837E+02 -0.24015652744E+02  0.38225050868E+02  0.00000000000E+00 0.  1.
</event>
<event>
 7    1  0.2732144E-009  0.1468684E+03  0.7561462E-02  0.1204375E+00
          2   -1    0    0  501    0  0.00000000000E+00  0.00000000000E+00  0.11748956436E+03  0.11748956436E+03  0.00000000000E+00 0.  1.
         -2   -1    0    0    0  501 -0.00000000000E+00 -0.00000000000E+00 -0.26350883761E+03  0.26350883761E+03  0.00000000000E+00 0. -1.
         25    2    1    2    0    0  0.44571137290E+02 -0.11025771855E+03 -0.15444411952E+03  0.23158809012E+03  0.12504681783E+03 0.  0.
          5    1    3    3  502    0  0.86028233365E+02 -0.69651953721E+02 -0.12273033925E+03  0.16532531616E+03  0.41800000000E+01 0.  1.
         -5    1    3    3    0  502 -0.41457096075E+02 -0.40605764832E+02 -0.31713780277E+02  0.66262773953E+02  0.41800000000E+01 0.  1.
        -11    1    1    2    0    0 -0.43162368789E+02  0.56937053850E+02  0.45270057506E+02  0.84582482154E+02  0.00000000000E+00 0.  1.
         11    1    1    2    0    0 -0.14087685011E+01  0.53320664703E+02 -0.36845211235E+02  0.64827829703E+02  0.00000000000E+00 0. -1.
</event>
<event>
 7    1  0.2732144E-009  0.8719110E+02  0.7561462E-02  0.1309800E+00
         -1   -1    0    0    0  501 -0.00000000000E+00  0.00000000000E+00  0.26977371451E+02  0.26977371451E+02  0.00000000000E+00 0.  1.
          1   -1    0    0  501    0  0.00000000000E+00 -0.00000000000E+00 -0.50365053322E+03  0.50365053322E+03  0.00000000000E+00 0. -1.
         25    2    1    2    0    0 -0.20679020981E+02 -0.40714515552E+02 -0.28534459337E+03  0.31488542806E+03  0.12508398042E+03 0.  0.
          5    1    3    3  502    0  0.42826051650E+02 -0.78873280028E+01 -0.19371297891E+03  0.19859121643E+03  0.41800000000E+01 0. -1.
         -5    1    3    3    0  502 -0.63505072631E+02 -0.32827187549E+02 -0.91631614457E+02  0.11629421164E+03  0.41800000000E+01 0. -1.
        -11    1    1    2    0    0 -0.10720199662E+02  0.15020466185E+02  0.16666546276E+01  0.18528756646E+02  0.00000000000E+00 0.  1.
         11    1    1    2    0    0  0.31399220642E+02  0.25694049367E+02 -0.19299522302E+03  0.19721371996E+03  0.00000000000E+00 0. -1.
</event>
<event>
 7    1  0.2808692E-009  0.9980453E+02  0.7561462E-02  0.1280708E+00
         -1   -1    0    0    0  501 -0.00000000000E+00  0.00000000000E+00  0.24928105560E+03  0.24928105560E+03  0.00000000000E+00 0.  1.
          1   -1    0    0  501    0  0.00000000000E+00 -0.00000000000E+00 -0.63276175137E+02  0.63276175137E+02  0.00000000000E+00 0. -1.
         25    2    1    2    0    0  0.11283372018E+02 -0.32119754942E+02  0.16933646466E+03  0.21326354654E+03  0.12509000311E+03 0.  0.
          5    1    3    3  502    0  0.62244500595E+02 -0.40819710279E+02  0.12237039114E+03  0.14329205013E+03  0.41800000000E+01 0. -1.
         -5    1    3    3    0  502 -0.50961128577E+02  0.86999553375E+01  0.46966073513E+02  0.69971496411E+02  0.41800000000E+01 0. -1.
        -11    1    1    2    0    0  0.39193510337E+00  0.50994166225E+02  0.41675160500E+02  0.65858770143E+02  0.00000000000E+00 0.  1.
         11    1    1    2    0    0 -0.11675307121E+02 -0.18874411283E+02 -0.25006744694E+02  0.33434914055E+02  0.00000000000E+00 0. -1.
</event>
<event>
 7    1  0.2739744E-009  0.1025387E+03  0.7561462E-02  0.1275046E+00
         -2   -1    0    0    0  501 -0.00000000000E+00  0.00000000000E+00  0.83044549587E+02  0.83044549587E+02  0.00000000000E+00 0.  1.
          2   -1    0    0  501    0  0.00000000000E+00 -0.00000000000E+00 -0.25025591299E+03  0.25025591299E+03  0.00000000000E+00 0. -1.
         25    2    1    2    0    0  0.46373229364E+02 -0.64962334622E+02 -0.14899065519E+03  0.21027632787E+03  0.12508931772E+03 0.  0.
          5    1    3    3  502    0  0.61852255904E+02 -0.42413290903E+02 -0.19144408362E+02  0.77514963570E+02  0.41800000000E+01 0. -1.
         -5    1    3    3    0  502 -0.15479026540E+02 -0.22549043720E+02 -0.12984624683E+03  0.13276136430E+03  0.41800000000E+01 0. -1.
        -11    1    1    2    0    0 -0.62426806138E+02  0.46577582243E+02 -0.42388785255E+02  0.88675737424E+02  0.00000000000E+00 0. -1.
         11    1    1    2    0    0  0.16053576774E+02  0.18384752379E+02  0.24168077049E+02  0.34348397277E+02  0.00000000000E+00 0.  1.
</event>
<event>
 7    1  0.2732144E-009  0.9807607E+02  0.7561462E-02  0.1284395E+00
          1   -1    0    0  501    0  0.00000000000E+00  0.00000000000E+00  0.26167295459E+03  0.26167295459E+03  0.00000000000E+00 0. -1.
         -1   -1    0    0    0  501 -0.00000000000E+00 -0.00000000000E+00 -0.58764443583E+02  0.58764443583E+02  0.00000000000E+00 0.  1.
         25    2    1    2    0    0 -0.27093553706E+02  0.40180039201E+02  0.77148506611E+02  0.15474696759E+03  0.12508491397E+03 0.  0.
          5    1    3    3  502    0  0.27873597399E+01 -0.25134506372E+02  0.78715125987E+02  0.82783188172E+02  0.41800000000E+01 0. -1.
         -5    1    3    3    0  502 -0.29880913446E+02  0.65314545573E+02 -0.15666193761E+01  0.71963779417E+02  0.41800000000E+01 0. -1.
        -11    1    1    2    0    0  0.47899233307E+02  0.56605014948E+01  0.28105001697E+02  0.55823551920E+02  0.00000000000E+00 0.  1.
         11    1    1    2    0    0 -0.20805679601E+02 -0.45840540695E+02  0.97655002701E+02  0.10986687866E+03  0.00000000000E+00 0. -1.
</event>
<event>
 7    1  0.2732144E-009  0.5617912E+02  0.7561462E-02  0.1414604E+00
          2   -1    0    0  501    0  0.00000000000E+00  0.00000000000E+00  0.10406572993E+03  0.10406572993E+03  0.00000000000E+00 0. -1.
         -2   -1    0    0    0  501 -0.00000000000E+00 -0.00000000000E+00 -0.15439641871E+03  0.15439641871E+03  0.00000000000E+00 0.  1.
         25    2    1    2    0    0 -0.35094537418E+02 -0.17730840974E+02  0.26486893555E+02  0.13377270509E+03  0.12509025469E+03 0.  0.
          5    1    3    3  502    0 -0.39729478704E+01  0.14763058998E+02  0.69561532351E+02  0.71344315883E+02  0.41800000000E+01 0. -1.
         -5    1    3    3    0  502 -0.31121589548E+02 -0.32493899972E+02 -0.43074638796E+02  0.62428389206E+02  0.41800000000E+01 0. -1.
        -11    1    1    2    0    0  0.20006212188E+02 -0.79568554090E+01 -0.89688639341E+02  0.92236717748E+02  0.00000000000E+00 0.  1.
         11    1    1    2    0    0  0.15088325231E+02  0.25687696383E+02  0.12871057011E+02  0.32452725807E+02  0.00000000000E+00 0. -1.
</event>
<event>
 7    1  0.2732144E-009  0.1238075E+03  0.7561462E-02  0.1236945E+00
         -1   -1    0    0    0  501 -0.00000000000E+00  0.00000000000E+00  0.82108190682E+02  0.82108190682E+02  0.00000000000E+00 0.  1.
          1   -1    0    0  501    0  0.00000000000E+00 -0.00000000000E+00 -0.24683793193E+03  0.24683793193E+03  0.00000000000E+00 0. -1.
         25    2    1    2    0    0  0.70617648002E+02  0.53788015805E+02 -0.11048366384E+03  0.18903604971E+03  0.12509190725E+03 0.  0.
          5    1    3    3  502    0  0.43628460343E+02  0.78149738912E+02 -0.20530260930E+02  0.91922729821E+02  0.41800000000E+01 0. -1.
         -5    1    3    3    0  502  0.26989187659E+02 -0.24361723107E+02 -0.89953402915E+02  0.97113319885E+02  0.41800000000E+01 0. -1.
        -11    1    1    2    0    0 -0.41356694056E+02 -0.74745955454E+02 -0.15128905125E+02  0.86753776691E+02  0.00000000000E+00 0.  1.
         11    1    1    2    0    0 -0.29260953946E+02  0.20957939649E+02 -0.39117172281E+02  0.53156296216E+02  0.00000000000E+00 0. -1.
</event>
<event>
 7    1  0.2732144E-009  0.1388512E+03  0.7561462E-02  0.1214883E+00
         -1   -1    0    0    0  501 -0.00000000000E+00  0.00000000000E+00  0.77990113104E+03  0.77990113104E+03  0.00000000000E+00 0.  1.
          1   -1    0    0  501    0  0.00000000000E+00 -0.00000000000E+00 -0.33153770479E+02  0.33153770479E+02  0.00000000000E+00 0. -1.
         25    2    1    2    0    0  0.35564713854E+02  0.86294430597E+02  0.57740194127E+03  0.59812310414E+03  0.12508664316E+03 0.  0.
          5    1    3    3  502    0  0.38812862786E+02  0.11780993713E+03  0.46110768038E+03  0.47751794197E+03  0.41800000000E+01 0.  1.
         -5    1    3    3    0  502 -0.32481489314E+01 -0.31515506537E+02  0.11629426089E+03  0.12060516216E+03  0.41800000000E+01 0.  1.
        -11    1    1    2    0    0 -0.56994778928E+01 -0.91193797580E+02  0.83019838636E+02  0.12345479485E+03  0.00000000000E+00 0. -1.
         11    1    1    2    0    0 -0.29865235962E+02  0.48993669833E+01  0.86325580656E+02  0.91477002528E+02  0.00000000000E+00 0.  1.
</event>
<event>
 7    1  0.2732144E-009  0.1122685E+03  0.7561462E-02  0.1256426E+00
         -1   -1    0    0    0  501 -0.00000000000E+00  0.00000000000E+00  0.42667207509E+03  0.42667207509E+03  0.00000000000E+00 0.  1.
          1   -1    0    0  501    0  0.00000000000E+00 -0.00000000000E+00 -0.46714812753E+02  0.46714812753E+02  0.00000000000E+00 0. -1.
         25    2    1    2    0    0  0.45199164825E+02  0.55090970188E+02  0.11586424589E+03  0.18479721815E+03  0.12509000305E+03 0.  0.
          5    1    3    3  502    0  0.64262432290E+02  0.81310818127E+02  0.59327311140E+02  0.11949188924E+03  0.41800000000E+01 0.  1.
         -5    1    3    3    0  502 -0.19063267464E+02 -0.26219847939E+02  0.56536934747E+02  0.65305328902E+02  0.41800000000E+01 0.  1.
        -11    1    1    2    0    0 -0.76182973499E+01 -0.49559657213E+02  0.23619822336E+03  0.24146179573E+03  0.00000000000E+00 0.  1.
         11    1    1    2    0    0 -0.37580867476E+02 -0.55313129757E+01  0.27894793092E+02  0.47127873972E+02  0.00000000000E+00 0. -1.
</event>
<event>
 7    1  0.2732144E-009  0.2456266E+03  0.7561462E-02  0.1116100E+00
          1   -1    0    0  501    0  0.00000000000E+00  0.00000000000E+00  0.11415730970E+04  0.11415730970E+04  0.00000000000E+00 0. -1.
         -1   -1    0    0    0  501 -0.00000000000E+00 -0.00000000000E+00 -0.62118430277E+02  0.62118430277E+02  0.00000000000E+00 0.  1.
         25    2    1    2    0    0 -0.22045344439E+03  0.88801454515E+02  0.66576974061E+03  0.71790132117E+03  0.12509012735E+03 0.  0.
          5    1    3    3  502    0 -0.16978566000E+03  0.70892659504E+02  0.33015033118E+03  0.37798102213E+03  0.41800000000E+01 0.  1.
         -5    1    3    3    0  502 -0.50667784393E+02  0.17908795011E+02  0.33561940943E+03  0.33992029904E+03  0.41800000000E+01 0.  1.
        -11    1    1    2    0    0  0.16489961323E+03 -0.10494289385E+03  0.29693265649E+03  0.35549106304E+03  0.00000000000E+00 0.  1.
         11    1    1    2    0    0  0.55553831160E+02  0.16141439339E+02  0.11675226962E+03  0.13029914306E+03  0.00000000000E+00 0. -1.
</event>
<event>
 7    1  0.2732144E-009  0.9805222E+02  0.7561462E-02  0.1284446E+00
         -2   -1    0    0    0  501 -0.00000000000E+00  0.00000000000E+00  0.27723494108E+02  0.27723494108E+02  0.00000000000E+00 0.  1.
          2   -1    0    0  501    0  0.00000000000E+00 -0.00000000000E+00 -0.40283678063E+03  0.40283678063E+03  0.00000000000E+00 0. -1.
         25    2    1    2    0    0  0.49707469811E+02  0.19781738801E+02 -0.22601084525E+03  0.26380182041E+03  0.12509335927E+03 0.  0.
          5    1    3    3  502    0  0.15296140313E+02 -0.53019682979E+02 -0.87558040947E+02  0.10358060449E+03  0.41800000000E+01 0. -1.
         -5    1    3    3    0  502  0.34411329498E+02  0.72801421780E+02 -0.13845280430E+03  0.16022121592E+03  0.41800000000E+01 0. -1.
        -11    1    1    2    0    0 -0.29488415212E+01 -0.12458596825E+02 -0.29561839472E+01  0.13139685106E+02  0.00000000000E+00 0.  1.
         11    1    1    2    0    0 -0.46758628290E+02 -0.73231419755E+01 -0.14614625732E+03  0.15361876922E+03  0.00000000000E+00 0. -1.
</event>
<event>
 7    1  0.2732144E-009  0.2646826E+03  0.7561462E-02  0.1104362E+00
          2   -1    0    0  501    0  0.00000000000E+00  0.00000000000E+00  0.11953245546E+03  0.11953245546E+03  0.00000000000E+00 0. -1.
         -2   -1    0    0    0  501 -0.00000000000E+00 -0.00000000000E+00 -0.68327242992E+03  0.68327242992E+03  0.00000000000E+00 0.  1.
         25    2    1    2    0    0 -0.20538313320E+03  0.16000121091E+03 -0.34859629014E+03  0.45271410462E+03  0.12509223848E+03 0.  0.
          5    1    3    3  502    0 -0.17826628498E+03  0.13049717508E+03 -0.34823331421E+03  0.41242247101E+03  0.41800000000E+01 0.  1.
         -5    1    3    3    0  502 -0.27116848214E+02  0.29504035831E+02 -0.36297592626E+00  0.40291633610E+02  0.41800000000E+01 0.  1.
        -11    1    1    2    0    0  0.20510114970E+02 -0.47393654220E+02 -0.11538188396E+02  0.52914582753E+02  0.00000000000E+00 0.  1.
         11    1    1    2    0    0  0.18487301823E+03 -0.11260755669E+03 -0.20360549593E+03  0.29717619801E+03  0.00000000000E+00 0. -1.
</event>
<event>
 7    1  0.3137650E-009  0.1037124E+03  0.7561462E-02  0.1272677E+00
          2   -1    0    0  501    0  0.00000000000E+00  0.00000000000E+00  0.75504629889E+02  0.75504629889E+02  0.00000000000E+00 0. -1.
         -2   -1    0    0    0  501 -0.00000000000E+00 -0.00000000000E+00 -0.23901949145E+03  0.23901949145E+03  0.00000000000E+00 0.  1.
         25    2    1    2    0    0 -0.29821264256E+02  0.71323108763E+02 -0.71355681280E+02  0.16345439938E+03  0.12509761700E+03 0.  0.
          5    1    3    3  502    0  0.29896908338E+02  0.54731648438E+02 -0.79141410411E+02  0.10084747746E+03  0.41800000000E+01 0.  1.
         -5    1    3    3    0  502 -0.59718172594E+02  0.16591460326E+02  0.77857291318E+01  0.62606921916E+02  0.41800000000E+01 0.  1.
        -11    1    1    2    0    0  0.31471647385E+02 -0.37588488334E+02 -0.10424530686E+03  0.11519740902E+03  0.00000000000E+00 0.  1.
         11    1    1    2    0    0 -0.16503831291E+01 -0.33734620429E+02  0.12086126572E+02  0.35872312937E+02  0.00000000000E+00 0. -1.
</event>
<event>
 6    1  0.2732144E-009  0.1172479E+03  0.7561462E-02  0.1247708E+00
          1   -1    0    0  501    0  0.00000000000E+00  0.00000000000E+00  0.22389067971E+03  0.22389067971E+03  0.00000000000E+00 0. -1.
         -1   -1    0    0    0  501 -0.00000000000E+00 -0.00000000000E+00 -0.10103811528E+03  0.10103811528E+03  0.00000000000E+00 0.  1.
          5    1    1    2  502    0 -0.38872574092E+02  0.94350442153E+02  0.17380238197E+02  0.10359839782E+03  0.41800000000E+01 0.  1.
         -5    1    1    2    0  502 -0.25644979852E+01 -0.31039376204E+02 -0.29365439491E+02  0.43009545005E+02  0.41800000000E+01 0.  1.
        -11    1    1    2    0    0  0.53901341051E+02 -0.22745481846E+02  0.11975744849E+03  0.13328374988E+03  0.00000000000E+00 0.  1.
         11    1    1    2    0    0 -0.12464268974E+02 -0.40565584104E+02  0.15080317238E+02  0.45037102291E+02  0.00000000000E+00 0. -1.
</event>
<event>
 7    1  0.2732144E-009  0.8390466E+02  0.7561462E-02  0.1318322E+00
          4   -1    0    0  501    0  0.00000000000E+00  0.00000000000E+00  0.59497925061E+02  0.59497925061E+02  0.00000000000E+00 0. -1.
         -4   -1    0    0    0  501 -0.00000000000E+00 -0.00000000000E+00 -0.25542652101E+03  0.25542652101E+03  0.00000000000E+00 0.  1.
         25    2    1    2    0    0  0.43063769636E+02 -0.19525318524E+02 -0.56860270350E+02  0.14531324575E+03  0.12508845961E+03 0.  0.
          5    1    3    3  502    0  0.14227140259E+02 -0.60535301781E+02  0.84267971150E+01  0.62892110723E+02  0.41800000000E+01 0. -1.
         -5    1    3    3    0  502  0.28836629377E+02  0.41009983257E+02 -0.65287067465E+02  0.82421135024E+02  0.41800000000E+01 0. -1.
        -11    1    1    2    0    0 -0.28444790568E+02 -0.27020937305E+01 -0.14010317665E+03  0.14298708868E+03  0.00000000000E+00 0.  1.
         11    1    1    2    0    0 -0.14618979068E+02  0.22227412255E+02  0.10348510456E+01  0.26624111651E+02  0.00000000000E+00 0. -1.
</event>
<event>
 7    1  0.2732144E-009  0.8905368E+02  0.7561462E-02  0.1305160E+00
          2   -1    0    0  501    0  0.00000000000E+00  0.00000000000E+00  0.69972188386E+02  0.69972188386E+02  0.00000000000E+00 0. -1.
         -2   -1    0    0    0  501 -0.00000000000E+00 -0.00000000000E+00 -0.23519169516E+03  0.23519169516E+03  0.00000000000E+00 0.  1.
         25    2    1    2    0    0  0.47235821545E+02  0.47829596336E+02 -0.10257089564E+03  0.17517489778E+03  0.12508622249E+03 0.  0.
          5    1    3    3  502    0  0.33877998451E+01  0.18920171994E+02  0.28089440198E+02  0.34291969129E+02  0.41800000000E+01 0.  1.
         -5    1    3    3    0  502  0.43848021700E+02  0.28909424341E+02 -0.13066033584E+03  0.14088292865E+03  0.41800000000E+01 0.  1.
        -11    1    1    2    0    0  0.22622157408E+02 -0.21156358629E+02 -0.42419651083E+02  0.52524092703E+02  0.00000000000E+00 0.  1.
         11    1    1    2    0    0 -0.69857978953E+02 -0.26673237707E+02 -0.20228960052E+02  0.77464893067E+02  0.00000000000E+00 0. -1.
</event>
<event>
 7    1  0.2732144E-009  0.1421753E+03  0.7561462E-02  0.1210432E+00
          1   -1    0    0  501    0  0.00000000000E+00  0.00000000000E+00  0.73116236013E+03  0.73116236013E+03  0.00000000000E+00 0. -1.
         -1   -1    0    0    0  501 -0.00000000000E+00 -0.00000000000E+00 -0.54103524909E+02  0.54103524909E+02  0.00000000000E+00 0.  1.
         25    2    1    2    0    0 -0.42751901171E+02  0.84437901940E+02  0.62290424383E+03  0.64235069201E+03  0.12508888920E+03 0.  0.
          5    1    3    3  502    0 -0.24567942795E+02 -0.29850653134E+02  0.20725926644E+03  0.21087560606E+03  0.41800000000E+01 0. -1.
         -5    1    3    3    0  502 -0.18183958376E+02  0.11428855507E+03  0.41564497739E+03  0.43147508595E+03  0.41800000000E+01 0. -1.
        -11    1    1    2    0    0 -0.27361681974E+02 -0.16057866168E+02  0.25979578126E+02  0.41005550672E+02  0.00000000000E+00 0. -1.
         11    1    1    2    0    0  0.70113583145E+02 -0.68380035771E+02  0.28175013266E+02  0.10190964236E+03  0.00000000000E+00 0.  1.
</event>
<event>
 7    1  0.2732144E-009  0.2105774E+03  0.7561462E-02  0.1141110E+00
         -1   -1    0    0    0  501 -0.00000000000E+00  0.00000000000E+00  0.22520569052E+03  0.22520569052E+03  0.00000000000E+00 0.  1.
          1   -1    0    0  501    0  0.00000000000E+00 -0.00000000000E+00 -0.20496311424E+03  0.20496311424E+03  0.00000000000E+00 0. -1.
         25    2    1    2    0    0  0.90755692422E+02  0.16057830465E+03  0.25944011383E+02  0.22437246068E+03  0.12509165340E+03 0.  0.
          5    1    3    3  502    0  0.83340837385E+02  0.18170755167E+03  0.20899509259E+02  0.20104126790E+03  0.41800000000E+01 0. -1.
         -5    1    3    3    0  502  0.74148550366E+01 -0.21129247019E+02  0.50445021239E+01  0.23331192778E+02  0.41800000000E+01 0. -1.
        -11    1    1    2    0    0 -0.44613436798E+02 -0.17218446257E+02  0.22047582141E+02  0.52658612902E+02  0.00000000000E+00 0.  1.
         11    1    1    2    0    0 -0.46142255624E+02 -0.14335985840E+03 -0.27749017248E+02  0.15313773118E+03  0.00000000000E+00 0. -1.
</event>
<event>
 7    1  0.2908158E-009  0.1353400E+03  0.7561462E-02  0.1219741E+00
          2   -1    0    0  501    0  0.00000000000E+00  0.00000000000E+00  0.24035990188E+03  0.24035990188E+03  0.00000000000E+00 0.  1.
         -2   -1    0    0    0  501 -0.00000000000E+00 -0.00000000000E+00 -0.88116169091E+02  0.88116169091E+02  0.00000000000E+00 0. -1.
         25    2    1    2    0    0  0.59201553725E+02  0.76318778467E+02  0.74335926469E+02  0.17464982450E+03  0.12508937335E+03 0.  0.
          5    1    3    3  502    0  0.71766454616E+02  0.92764890642E+02  0.23617982435E+02  0.11971228190E+03  0.41800000000E+01 0. -1.
         -5    1    3    3    0  502 -0.12564900891E+02 -0.16446112176E+02  0.50717944034E+02  0.54937542602E+02  0.41800000000E+01 0. -1.
        -11    1    1    2    0    0  0.23627564104E+02 -0.26694568097E+02  0.26635584455E+02  0.44500742810E+02  0.00000000000E+00 0. -1.
         11    1    1    2    0    0 -0.82829117829E+02 -0.49624210370E+02  0.51272221867E+02  0.10932550366E+03  0.00000000000E+00 0.  1.
</event>
<event>
 7    1  0.2732144E-009  0.1514480E+03  0.7561462E-02  0.1198705E+00
          3   -1    0    0  501    0  0.00000000000E+00  0.00000000000E+00  0.24338838425E+03  0.24338838425E+03  0.00000000000E+00 0. -1.
         -3   -1    0    0    0  501 -0.00000000000E+00 -0.00000000000E+00 -0.12348677071E+03  0.12348677071E+03  0.00000000000E+00 0.  1.
         25    2    1    2    0    0 -0.12039609426E+03  0.61722509866E+02  0.82928086385E+02  0.20206818838E+03  0.12509835134E+03 0.  0.
          5    1    3    3  502    0 -0.14879909916E+02  0.31901884402E+02 -0.28647185571E+02  0.45577138882E+02  0.41800000000E+01 0.  1.
         -5    1    3    3    0  502 -0.10551618434E+03  0.29820625464E+02  0.11157527196E+03  0.15649104950E+03  0.41800000000E+01 0.  1.
        -11    1    1    2    0    0  0.11497303579E+03 -0.79073310624E+02  0.22016524707E+02  0.14126611332E+03  0.00000000000E+00 0.  1.
         11    1    1    2    0    0  0.54230584676E+01  0.17350800758E+02  0.14957002444E+02  0.23540853260E+02  0.00000000000E+00 0. -1.
</event>
<event>
 7    1  0.2732144E-009  0.9806745E+02  0.7561462E-02  0.1284413E+00
         -2   -1    0    0    0  501 -0.00000000000E+00  0.00000000000E+00  0.24715989395E+03  0.24715989395E+03  0.00000000000E+00 0.  1.
          2   -1    0    0  501    0  0.00000000000E+00 -0.00000000000E+00 -0.61533702766E+02  0.61533702766E+02  0.00000000000E+00 0. -1.
         25    2    1    2    0    0  0.41553528913E+02 -0.23638146185E+02  0.60794979752E+02  0.14707679360E+03  0.12510034346E+03 0.  0.
          5    1    3    3  502    0  0.76095583449E+02 -0.20101422728E+02  0.22111158339E+01  0.78847742196E+02  0.41800000000E+01 0.  1.
         -5    1    3    3    0  502 -0.34542054536E+02 -0.35367234565E+01  0.58583863918E+02  0.68229051407E+02  0.41800000000E+01 0.  1.
        -11    1    1    2    0    0 -0.18701980619E+02 -0.23456109560E+02  0.44243546087E+01  0.30323721217E+02  0.00000000000E+00 0.  1.
         11    1    1    2    0    0 -0.22851548294E+02  0.47094255745E+02  0.12040685682E+03  0.13129308190E+03  0.00000000000E+00 0. -1.
</event>
<event>
 7    1  0.2732144E-009  0.2482913E+03  0.7561462E-02  0.1114389E+00
          2   -1    0    0  501    0  0.00000000000E+00  0.00000000000E+00  0.18250403456E+04  0.18250403456E+04  0.00000000000E+00 0. -1.
         -2   -1    0    0    0  501 -0.00000000000E+00 -0.00000000000E+00 -0.39261461831E+02  0.39261461831E+02  0.00000000000E+00 0.  1.
         25    2    1    2    0    0 -0.16765371572E+03  0.15454734215E+03  0.12210041524E+04  0.12483949931E+04  0.12508504830E+03 0.  0.
          5    1    3    3  502    0 -0.14571274045E+03  0.51673960198E+02  0.70597651649E+03  0.72271897382E+03  0.41800000000E+01 0.  1.
         -5    1    3    3    0  502 -0.21940975273E+02  0.10287338196E+03  0.51502763591E+03  0.52567601929E+03  0.41800000000E+01 0.  1.
        -11    1    1    2    0    0  0.13800080004E+03 -0.87666138486E+02  0.30535892806E+03  0.34637212300E+03  0.00000000000E+00 0.  1.
         11    1    1    2    0    0  0.29652915682E+02 -0.66881203667E+02  0.25941580331E+03  0.26953469131E+03  0.00000000000E+00 0. -1.
</event>
<event>
 7    1  0.2732144E-009  0.1204062E+03  0.7561462E-02  0.1242428E+00
          1   -1    0    0  501    0  0.00000000000E+00  0.00000000000E+00  0.76471944085E+02  0.76471944085E+02  0.00000000000E+00 0. -1.
         -1   -1    0    0    0  501 -0.00000000000E+00 -0.00000000000E+00 -0.24582752321E+03  0.24582752321E+03  0.00000000000E+00 0.  1.
         25    2    1    2    0    0  0.24395354178E+02 -0.21771734093E+02 -0.16584536845E+03  0.21028571075E+03  0.12508497990E+03 0.  0.
          5    1    3    3  502    0  0.55472355543E+02 -0.58597874926E+02 -0.10812775807E+03  0.13498139739E+03  0.41800000000E+01 0. -1.
         -5    1    3    3    0  502 -0.31077001365E+02  0.36826140833E+02 -0.57717610386E+02  0.75304313363E+02  0.41800000000E+01 0. -1.
        -11    1    1    2    0    0 -0.33857736296E+02  0.61826089267E+02 -0.62464986710E+01  0.70766025512E+02  0.00000000000E+00 0. -1.
         11    1    1    2    0    0  0.94623821171E+01 -0.40054355174E+02  0.27362879972E+01  0.41247731037E+02  0.00000000000E+00 0.  1.
</event>
<event>
 7    1  0.2732144E-009  0.1842615E+03  0.7561462E-02  0.1163741E+00
          2   -1    0    0  501    0  0.00000000000E+00  0.00000000000E+00  0.44207779391E+03  0.44207779391E+03  0.00000000000E+00 0. -1.
         -2   -1    0    0    0  501 -0.00000000000E+00 -0.00000000000E+00 -0.92334262744E+02  0.92334262744E+02  0.00000000000E+00 0.  1.
         25    2    1    2    0    0 -0.16765783635E+03  0.25467899896E+02  0.16958609483E+03  0.27048992070E+03  0.12509032586E+03 0.  0.
          5    1    3    3  502    0 -0.13006111069E+03  0.63707224676E+02  0.78702715073E+02  0.16488205709E+03  0.41800000000E+01 0.  1.
         -5    1    3    3    0  502 -0.37596725669E+02 -0.38239324781E+02  0.90883379754E+02  0.10560786361E+03  0.41800000000E+01 0.  1.
        -11    1    1    2    0    0  0.11767015479E+03 -0.22263596636E+02  0.17703246216E+03  0.21373447481E+03  0.00000000000E+00 0. -1.
         11    1    1    2    0    0  0.49987681569E+02 -0.32043032594E+01  0.31249741748E+01  0.50187661149E+02  0.00000000000E+00 0.  1.
</event>
<event>
 6    1  0.2732144E-009  0.1607512E+03  0.7561462E-02  0.1187851E+00
         -1   -1    0    0    0  501 -0.00000000000E+00  0.00000000000E+00  0.24154475326E+02  0.24154475326E+02  0.00000000000E+00 0.  1.
          1   -1    0    0  501    0  0.00000000000E+00 -0.00000000000E+00 -0.11513089017E+04  0.11513089017E+04  0.00000000000E+00 0. -1.
          5    1    1    2  502    0 -0.39351071024E+02 -0.12901913611E+03 -0.34048376201E+03  0.36625279366E+03  0.41800000000E+01 0. -1.
         -5    1    1    2    0  502 -0.24583815059E+02  0.27928716751E+02 -0.11977845229E+03  0.12549393298E+03  0.41800000000E+01 0. -1.
        -11    1    1    2    0    0 -0.10919014746E+02  0.65178698408E+02 -0.24652925865E+03  0.25523354595E+03  0.00000000000E+00 0.  1.
         11    1    1    2    0    0  0.74853900829E+02  0.35911720947E+02 -0.42036295341E+03  0.42848310442E+03  0.00000000000E+00 0. -1.
</event>
<event>
 7    1  0.2732144E-009  0.1064571E+03  0.7561462E-02  0.1267275E+00
          2   -1    0    0  501    0  0.00000000000E+00  0.00000000000E+00  0.61592622886E+03  0.61592622886E+03  0.00000000000E+00 0. -1.
         -2   -1    0    0    0  501 -0.00000000000E+00 -0.00000000000E+00 -0.21220075940E+02  0.21220075940E+02  0.00000000000E+00 0.  1.
         25    2    1    2    0    0 -0.29859633337E+02  0.13712449487E+02  0.29367809079E+03  0.32089524709E+03  0.12508920663E+03 0.  0.
          5    1    3    3  502    0 -0.66693382492E+02  0.36441147947E+02  0.12200457898E+03  0.14380039717E+03  0.41800000000E+01 0.  1.
         -5    1    3    3    0  502  0.36833749155E+02 -0.22728698460E+02  0.17167351181E+03  0.17709484992E+03  0.41800000000E+01 0.  1.
        -11    1    1    2    0    0  0.54281422797E+02  0.14319365767E+02  0.13686709164E+03  0.14793281539E+03  0.00000000000E+00 0.  1.
         11    1    1    2    0    0 -0.24421789460E+02 -0.28031815254E+02  0.16416097048E+03  0.16831824232E+03  0.00000000000E+00 0. -1.
</event>
<event>
 7    1  0.2732144E-009  0.9003358E+02  0.7561462E-02  0.1302770E+00
          1   -1    0    0  501    0  0.00000000000E+00  0.00000000000E+00  0.94702211233E+03  0.94702211233E+03  0.00000000000E+00 0. -1.
         -1   -1    0    0    0  501 -0.00000000000E+00 -0.00000000000E+00 -0.17804828797E+02  0.17804828797E+02  0.00000000000E+00 0.  1.
         25    2    1    2    0    0  0.19526198867E+02 -0.69086827064E+02  0.48222534053E+03  0.50333043968E+03  0.12508393319E+03 0.  0.
          5    1    3    3  502    0 -0.15262788852E+01 -0.36756917310E+02  0.45360087300E+03  0.45510946472E+03  0.41800000000E+01 0.  1.
         -5    1    3    3    0  502  0.21052477752E+02 -0.32329909754E+02  0.28624467534E+02  0.48220974957E+02  0.41800000000E+01 0.  1.
        -11    1    1    2    0    0  0.29005568362E+02  0.31744607548E+02  0.95829154491E+02  0.10503461313E+03  0.00000000000E+00 0.  1.
         11    1    1    2    0    0 -0.48531767230E+02  0.37342219516E+02  0.35116278851E+03  0.35646188832E+03  0.00000000000E+00 0. -1.
</event>
<event>
 7    1  0.2732144E-009  0.1111665E+03  0.7561462E-02  0.1258425E+00
         -2   -1    0    0    0  501 -0.00000000000E+00  0.00000000000E+00  0.23118429223E+02  0.23118429223E+02  0.00000000000E+00 0.  1.
          2   -1    0    0  501    0  0.00000000000E+00 -0.00000000000E+00 -0.86163450563E+03  0.86163450563E+03  0.00000000000E+00 0. -1.
         25    2    1    2    0    0  0.68735870171E+02 -0.51930038391E+02 -0.55704854316E+03  0.57738268650E+03  0.12508532485E+03 0.  0.
          5    1    3    3  502    0  0.84855680128E+02 -0.12046632460E+02 -0.49105421202E+03  0.49849505449E+03  0.41800000000E+01 0. -1.
         -5    1    3    3    0  502 -0.16119809958E+02 -0.39883405930E+02 -0.65994331142E+02  0.78887632012E+02  0.41800000000E+01 0. -1.
        -11    1    1    2    0    0 -0.57866156988E+01  0.23554669822E+02 -0.83385337245E+01  0.25648363230E+02  0.00000000000E+00 0.  1.
         11    1    1    2    0    0 -0.62949254472E+02  0.28375368568E+02 -0.27312899952E+03  0.28172188512E+03  0.00000000000E+00 0. -1.
</event>
<event>
 7    1  0.2732144E-009  0.1548092E+03  0.7561462E-02  0.1194685E+00
         -2   -1    0    0    0  501 -0.00000000000E+00  0.00000000000E+00  0.17097202868E+03  0.17097202868E+03  0.00000000000E+00 0. -1.
          2   -1    0    0  501    0  0.00000000000E+00 -0.00000000000E+00 -0.14576330731E+03  0.14576330731E+03  0.00000000000E+00 0.  1.
         25    2    1    2    0    0 -0.44608074501E+02  0.10750795696E+03 -0.53400724033E+01  0.17095076971E+03  0.12509119942E+03 0.  0.
          5    1    3    3  502    0 -0.16660313772E+02 -0.27770227947E+02 -0.98795604689E-01  0.32653235303E+02  0.41800000000E+01 0. -1.
         -5    1    3    3    0  502 -0.27947760729E+02  0.13527818490E+03 -0.52412767986E+01  0.13829753441E+03  0.41800000000E+01 0. -1.
        -11    1    1    2    0    0 -0.21408849583E+02 -0.31577191939E+02 -0.62316446582E+01  0.38656064031E+02  0.00000000000E+00 0.  1.
         11    1    1    2    0    0  0.66016924084E+02 -0.75930765018E+02  0.36780438437E+02  0.10712850225E+03  0.00000000000E+00 0. -1.
</event>
<event>
 7    1  0.2732144E-009  0.1300101E+03  0.7561462E-02  0.1227441E+00
          4   -1    0    0  501    0  0.00000000000E+00  0.00000000000E+00  0.67148885160E+02  0.67148885160E+02  0.00000000000E+00 0. -1.
         -4   -1    0    0    0  501 -0.00000000000E+00 -0.00000000000E+00 -0.37748942779E+03  0.37748942779E+03  0.00000000000E+00 0.  1.
         25    2    1    2    0    0  0.93280690806E+02  0.49534783274E+02 -0.99452454537E+02  0.19155519426E+03  0.12509044609E+03 0.  0.
          5    1    3    3  502    0  0.23180831990E+01  0.61606749916E+02 -0.73662990133E+02  0.96148185944E+02  0.41800000000E+01 0.  1.
         -5    1    3    3    0  502  0.90962607607E+02 -0.12071966641E+02 -0.25789464404E+02  0.95407008314E+02  0.41800000000E+01 0.  1.
        -11    1    1    2    0    0 -0.57667948606E+02 -0.23564793834E+02 -0.19738880048E+03  0.20698606321E+03  0.00000000000E+00 0.  1.
         11    1    1    2    0    0 -0.35612742200E+02 -0.25969989440E+02 -0.13499287609E+02  0.46097055486E+02  0.00000000000E+00 0. -1.
</event>
<event>
 7    1  0.2732144E-009  0.1178861E+03  0.7561462E-02  0.1246626E+00
         -1   -1    0    0    0  501 -0.00000000000E+00  0.00000000000E+00  0.38438978782E+02  0.38438978782E+02  0.00000000000E+00 0.  1.
          1   -1    0    0  501    0  0.00000000000E+00 -0.00000000000E+00 -0.41906489268E+03  0.41906489268E+03  0.00000000000E+00 0. -1.
         25    2    1    2    0    0  0.27116210171E+02 -0.59827234762E+02 -0.22871381129E+03  0.26884273143E+03  0.12510723358E+03 0.  0.
          5    1    3    3  502    0  0.69344988372E+02 -0.58490984816E+02 -0.10929502350E+03  0.14210136269E+03  0.41800000000E+01 0.  1.
         -5    1    3    3    0  502 -0.42228778201E+02 -0.13362499457E+01 -0.11941878779E+03  0.12674136874E+03  0.41800000000E+01 0.  1.
        -11    1    1    2    0    0  0.27654312620E+02  0.13541061177E+02 -0.85680160454E+02  0.91045105523E+02  0.00000000000E+00 0. -1.
         11    1    1    2    0    0 -0.54770522791E+02  0.46286173585E+02 -0.66231942157E+02  0.97616034512E+02  0.00000000000E+00 0.  1.
</event>
<event>
 7    1  0.2732144E-009  0.1292008E+03  0.7561462E-02  0.1228646E+00
         -2   -1    0    0    0  501 -0.00000000000E+00  0.00000000000E+00  0.84611671888E+02  0.84611671888E+02  0.00000000000E+00 0.  1.
          2   -1    0    0  501    0  0.00000000000E+00 -0.00000000000E+00 -0.21706950669E+03  0.21706950669E+03  0.00000000000E+00 0. -1.
         25    2    1    2    0    0 -0.77517665637E+02 -0.23508927608E+02 -0.55263107893E+02  0.15895174083E+03  0.12509990669E+03 0.  0.
          5    1    3    3  502    0 -0.22661309708E+02  0.50760292614E+02 -0.29150477397E+02  0.62907590928E+02  0.41800000000E+01 0.  1.
         -5    1    3    3    0  502 -0.54856355930E+02 -0.74269220222E+02 -0.26112630496E+02  0.96044149898E+02  0.41800000000E+01 0.  1.
        -11    1    1    2    0    0  0.52267758531E+02 -0.23158846898E+02 -0.11553470212E+02  0.58324381227E+02  0.00000000000E+00 0.  1.
         11    1    1    2    0    0  0.25249907106E+02  0.46667774507E+02 -0.65641256700E+02  0.84405056527E+02  0.00000000000E+00 0. -1.
</event>
<event>
 7    1  0.2732144E-009  0.1077232E+03  0.7561462E-02  0.1264845E+00
          2   -1    0    0  501    0  0.00000000000E+00  0.00000000000E+00  0.89903915242E+03  0.89903915242E+03  0.00000000000E+00 0.  1.
         -2   -1    0    0    0  501 -0.00000000000E+00 -0.00000000000E+00 -0.16245684305E+02  0.16245684305E+02  0.00000000000E+00 0. -1.
         25    2    1    2    0    0 -0.77773727924E+01 -0.40033101589E+01  0.67914752293E+03  0.69062755979E+03  0.12509418222E+03 0.  0.
          5    1    3    3  502    0 -0.59506378200E+02  0.20972446663E+02  0.26197771337E+03  0.26950073704E+03  0.41800000000E+01 0. -1.
         -5    1    3    3    0  502  0.51729005408E+02 -0.24975756822E+02  0.41716980956E+03  0.42112682275E+03  0.41800000000E+01 0. -1.
        -11    1    1    2    0    0 -0.21999968261E+01 -0.44776055682E+02  0.10456810379E+03  0.11377268336E+03  0.00000000000E+00 0. -1.
         11    1    1    2    0    0  0.99773696185E+01  0.48779365841E+02  0.99077841400E+02  0.11088459358E+03  0.00000000000E+00 0.  1.
</event>
<event>
 7    1  0.2856822E-009  0.8840657E+02  0.7561462E-02  0.1306757E+00
         -3   -1    0    0    0  501 -0.00000000000E+00  0.00000000000E+00  0.45782513052E+02  0.45782513052E+02  0.00000000000E+00 0.  1.
          3   -1    0    0  501    0  0.00000000000E+00 -0.00000000000E+00 -0.33560519643E+03  0.33560519643E+03  0.00000000000E+00 0. -1.
         25    2    1    2    0    0 -0.52137973953E+02  0.31735090634E+02 -0.16071055634E+03  0.21260372605E+03  0.12508787752E+03 0.  0.
          5    1    3    3  502    0 -0.63256454034E+02  0.42967491708E+02 -0.17491555752E+03  0.19094635106E+03  0.41800000000E+01 0.  1.
         -5    1    3    3    0  502  0.11118480081E+02 -0.11232401074E+02  0.14205001171E+02  0.21657374990E+02  0.41800000000E+01 0.  1.
        -11    1    1    2    0    0  0.13502541900E+02 -0.41824692988E+02 -0.12751835131E+02  0.45762789257E+02  0.00000000000E+00 0.  1.
         11    1    1    2    0    0  0.38635432053E+02  0.10089602355E+02 -0.11636029190E+03  0.12302119418E+03  0.00000000000E+00 0. -1.
</event>
<event>
 7    1  0.2732144E-009  0.1302921E+03  0.7561462E-02  0.1227023E+00
         -1   -1    0    0    0  501 -0.00000000000E+00  0.00000000000E+00  0.51913925188E+02  0.51913925188E+02  0.00000000000E+00 0.  1.
          1   -1    0    0  501    0  0.00000000000E+00 -0.00000000000E+00 -0.41690411281E+03  0.41690411281E+03  0.00000000000E+00 0. -1.
         25    2    1    2    0    0  0.80916270939E+02 -0.20165414385E+02 -0.28671429358E+03  0.32373874567E+03  0.12509037719E+03 0.  0.
          5    1    3    3  502    0  0.66677958115E+02  0.43808794766E+02 -0.19677356699E+03  0.21237342033E+03  0.41800000000E+01 0.  1.
         -5    1    3    3    0  502  0.14238312823E+02 -0.63974209152E+02 -0.89940726593E+02  0.11136532534E+03  0.41800000000E+01 0.  1.
        -11    1    1    2    0    0 -0.40283863682E+02 -0.30171589176E+02 -0.59058235102E+02  0.77595035923E+02  0.00000000000E+00 0. -1.
         11    1    1    2    0    0 -0.40632407256E+02  0.50337003561E+02 -0.19217658938E+02  0.67484256401E+02  0.00000000000E+00 0.  1.
</event>
<event>
 7    1  0.2732144E-009  0.1235863E+03  0.7561462E-02  0.1237295E+00
          2   -1    0    0  501    0  0.00000000000E+00  0.00000000000E+00  0.34783563791E+03  0.34783563791E+03  0.00000000000E+00 0. -1.
         -2   -1    0    0    0  501 -0.00000000000E+00 -0.00000000000E+00 -0.61625857882E+02  0.61625857882E+02  0.00000000000E+00 0.  1.
         25    2    1    2    0    0 -0.12459579470E+01 -0.93736843658E+02  0.19436868759E+03  0.24942809986E+03  0.12508813698E+03 0.  0.
          5    1    3    3  502    0 -0.22562903675E+02  0.11414135391E+02  0.10980044106E+03  0.11275183531E+03  0.41800000000E+01 0.  1.
         -5    1    3    3    0  502  0.21316945728E+02 -0.10515097905E+03  0.84568246531E+02  0.13667626455E+03  0.41800000000E+01 0.  1.
        -11    1    1    2    0    0 -0.27849677622E+02  0.73857898086E+02  0.96297822862E+02  0.12451451458E+03  0.00000000000E+00 0. -1.
         11    1    1    2    0    0  0.29095635569E+02  0.19878945572E+02 -0.44567304258E+01  0.35518881349E+02  0.00000000000E+00 0.  1.
</event>
<event>
 7    1  0.2767637E-009  0.1554908E+03  0.7561462E-02  0.1193884E+00
         -1   -1    0    0    0  501 -0.00000000000E+00  0.00000000000E+00  0.20395724055E+03  0.20395724055E+03  0.00000000000E+00 0.  1.
          1   -1    0    0  501    0  0.00000000000E+00 -0.00000000000E+00 -0.14842993529E+03  0.14842993529E+03  0.00000000000E+00 0. -1.
         25    2    1    2    0    0  0.33585488768E+02 -0.13133755478E+03  0.26488088973E+02  0.18635239227E+03  0.12509219358E+03 0.  0.
          5    1    3    3  502    0 -0.33147624004E+02 -0.51064695845E+02 -0.29547839702E+02  0.67800555823E+02  0.41800000000E+01 0. -1.
         -5    1    3    3    0  502  0.66733112773E+02 -0.80272858937E+02  0.56035928674E+02  0.11855183645E+03  0.41800000000E+01 0. -1.
        -11    1    1    2    0    0 -0.19354806734E+01  0.10295583349E+03  0.54474254453E+02  0.11649503909E+03  0.00000000000E+00 0.  1.
         11    1    1    2    0    0 -0.31650008095E+02  0.28381721292E+02 -0.25435038168E+02  0.49539744474E+02  0.00000000000E+00 0. -1.
</event>
<event>
 7    1  0.2732144E-009  0.1597323E+03  0.7561462E-02  0.1188999E+00
          1   -1    0    0  501    0  0.00000000000E+00  0.00000000000E+00  0.92807195705E+02  0.92807195705E+02  0.00000000000E+00 0. -1.
         -1   -1    0    0    0  501 -0.00000000000E+00 -0.00000000000E+00 -0.35388207078E+03  0.35388207078E+03  0.00000000000E+00 0.  1.
         25    2    1    2    0    0  0.12833744543E+03  0.65148644371E+02 -0.11844855170E+03  0.22447882632E+03  0.12508332543E+03 0.  0.
          5    1    3    3  502    0  0.31534743859E+02 -0.23282942259E+02 -0.77678033106E+02  0.87108465132E+02  0.41800000000E+01 0. -1.
         -5    1    3    3    0  502  0.96802701572E+02  0.88431586629E+02 -0.40770518598E+02  0.13737036118E+03  0.41800000000E+01 0. -1.
        -11    1    1    2    0    0 -0.10996784390E+03 -0.69363130764E+02 -0.15293229830E+03  0.20072981459E+03  0.00000000000E+00 0.  1.
         11    1    1    2    0    0 -0.18369601532E+02  0.42144863937E+01  0.10305974930E+02  0.21480625579E+02  0.00000000000E+00 0. -1.
</event>
<event>
 7    1  0.2732144E-009  0.1684075E+03  0.7561462E-02  0.1179519E+00
          1   -1    0    0  501    0  0.00000000000E+00  0.00000000000E+00  0.47039388635E+02  0.47039388635E+02  0.00000000000E+00 0. -1.
         -1   -1    0    0    0  501 -0.00000000000E+00 -0.00000000000E+00 -0.94819552583E+03  0.94819552583E+03  0.00000000000E+00 0.  1.
         25    2    1    2    0    0 -0.69147357101E+02 -0.15066653284E+03 -0.63974220813E+03  0.67260312619E+03  0.12507242458E+03 0.  0.
          5    1    3    3  502    0 -0.19232132019E+02 -0.64062295554E+02 -0.47615336302E+03  0.48084649331E+03  0.41800000000E+01 0.  1.
         -5    1    3    3    0  502 -0.49915225082E+02 -0.86604237283E+02 -0.16358884511E+03  0.19175663288E+03  0.41800000000E+01 0.  1.
        -11    1    1    2    0    0  0.16060301422E+01  0.40477365603E+02 -0.13839607671E+03  0.14420287968E+03  0.00000000000E+00 0. -1.
         11    1    1    2    0    0  0.67541326959E+02  0.11018916723E+03 -0.12301785235E+03  0.17842890859E+03  0.00000000000E+00 0.  1.
</event>
<event>
 7    1  0.2732144E-009  0.7374113E+02  0.7561462E-02  0.1347814E+00
          1   -1    0    0  501    0  0.00000000000E+00  0.00000000000E+00  0.19409061608E+03  0.19409061608E+03  0.00000000000E+00 0. -1.
         -1   -1    0    0    0  501 -0.00000000000E+00 -0.00000000000E+00 -0.60464291620E+02  0.60464291620E+02  0.00000000000E+00 0.  1.
         25    2    1    2    0    0 -0.56013254231E+01  0.34302914391E+01  0.64283992617E+02  0.14079225984E+03  0.12508751728E+03 0.  0.
          5    1    3    3  502    0  0.22208954257E+02 -0.13230236884E+02 -0.30693993209E+02  0.40346876414E+02  0.41800000000E+01 0. -1.
         -5    1    3    3    0  502 -0.27810279680E+02  0.16660528323E+02  0.94977985826E+02  0.10044538343E+03  0.41800000000E+01 0. -1.
        -11    1    1    2    0    0  0.45856558265E+02  0.84669103417E+01  0.25848964936E+02  0.53316803120E+02  0.00000000000E+00 0.  1.
         11    1    1    2    0    0 -0.40255232842E+02 -0.11897201781E+02  0.43493366906E+02  0.60445844739E+02  0.00000000000E+00 0. -1.
</event>
<event>
 7    1  0.2732144E-009  0.1652386E+03  0.7561462E-02  0.1182906E+00
         -1   -1    0    0    0  501 -0.00000000000E+00  0.00000000000E+00  0.47896366934E+02  0.47896366934E+02  0.00000000000E+00 0.  1.
          1   -1    0    0  501    0  0.00000000000E+00 -0.00000000000E+00 -0.80220920707E+03  0.80220920707E+03  0.00000000000E+00 0. -1.
         25    2    1    2    0    0 -0.26841067653E+00  0.14396707903E+03 -0.55808357928E+03  0.58977406928E+03  0.12509827913E+03 0.  0.
          5    1    3    3  502    0 -0.15406416359E+02  0.14522833436E+03 -0.55475437765E+03  0.57367108929E+03  0.41800000000E+01 0.  1.
         -5    1    3    3    0  502  0.15138005683E+02 -0.12612553330E+01 -0.33292016348E+01  0.16102979991E+02  0.41800000000E+01 0.  1.
        -11    1    1    2    0    0  0.13321476265E+02  0.83641356136E+01 -0.74461691782E+01  0.17403043696E+02  0.00000000000E+00 0.  1.
         11    1    1    2    0    0 -0.13053065589E+02 -0.15233121464E+03 -0.18878309168E+03  0.24292846103E+03  0.00000000000E+00 0. -1.
</event>
<event>
 7    1  0.2732144E-009  0.9553457E+02  0.7561462E-02  0.1289977E+00
         -2   -1    0    0    0  501 -0.00000000000E+00  0.00000000000E+00  0.50701362633E+03  0.50701362633E+03  0.00000000000E+00 0.  1.
          2   -1    0    0  501    0  0.00000000000E+00 -0.00000000000E+00 -0.26745324748E+02  0.26745324748E+02  0.00000000000E+00 0. -1.
         25    2    1    2    0    0  0.25207148113E+02  0.38098628600E+01  0.34762694672E+03  0.37032661188E+03  0.12508952796E+03 0.  0.
          5    1    3    3  502    0 -0.30062110766E+02 -0.32037712470E+02  0.24035017305E+03  0.24436821317E+03  0.41800000000E+01 0. -1.
         -5    1    3    3    0  502  0.55269258880E+02  0.35847575330E+02  0.10727677367E+03  0.12595839870E+03  0.41800000000E+01 0. -1.
        -11    1    1    2    0    0  0.27322254836E+02 -0.73069511740E+01  0.10050122616E+02  0.30015031391E+02  0.00000000000E+00 0.  1.
         11    1    1    2    0    0 -0.52529402949E+02  0.34970883140E+01  0.12259123224E+03  0.13341730781E+03  0.00000000000E+00 0. -1.
</event>
<event>
 7    1  0.2732144E-009  0.1662434E+03  0.7561462E-02  0.1181823E+00
         -1   -1    0    0    0  501 -0.00000000000E+00  0.00000000000E+00  0.47141680150E+02  0.47141680150E+02  0.00000000000E+00 0.  1.
          1   -1    0    0  501    0  0.00000000000E+00 -0.00000000000E+00 -0.83997030495E+03  0.83997030495E+03  0.00000000000E+00 0. -1.
         25    2    1    2    0    0  0.27720117275E+02  0.12595863239E+03 -0.17868029601E+03  0.25339400107E+03  0.12509152497E+03 0.  0.
          5    1    3    3  502    0 -0.30719765797E+02  0.11191217976E+03 -0.13957041382E+03  0.18156379816E+03  0.41800000000E+01 0. -1.
         -5    1    3    3    0  502  0.58439883072E+02  0.14046452639E+02 -0.39109882195E+02  0.71830202913E+02  0.41800000000E+01 0. -1.
        -11    1    1    2    0    0  0.32242200926E+02 -0.45481750322E+02 -0.20577578957E+03  0.21319433554E+03  0.00000000000E+00 0.  1.
         11    1    1    2    0    0 -0.59962318201E+02 -0.80476882072E+02 -0.40837253921E+03  0.42052364849E+03  0.00000000000E+00 0. -1.
</event>
<event>
 7    1  0.2732144E-009  0.1864592E+03  0.7561462E-02  0.1161694E+00
          2   -1    0    0  501    0  0.00000000000E+00  0.00000000000E+00  0.26736420258E+03  0.26736420258E+03  0.00000000000E+00 0.  1.
         -2   -1    0    0    0  501 -0.00000000000E+00 -0.00000000000E+00 -0.16935690954E+03  0.16935690954E+03  0.00000000000E+00 0. -1.
         25    2    1    2    0    0  0.12950524474E+03 -0.10460623791E+03 -0.27351360185E+02  0.21002335050E+03  0.12509051694E+03 0.  0.
          5    1    3    3  502    0 -0.30704858102E+01 -0.62634315807E+02  0.14965996753E+02  0.64606028036E+02  0.41800000000E+01 0.  1.
         -5    1    3    3    0  502  0.13257573055E+03 -0.41971922104E+02 -0.42317356939E+02  0.14541732247E+03  0.41800000000E+01 0.  1.
        -11    1    1    2    0    0 -0.99179563714E+02  0.98946853700E+02  0.13481901467E+03  0.19443053370E+03  0.00000000000E+00 0.  1.
         11    1    1    2    0    0 -0.30325681024E+02  0.56593842111E+01 -0.94603614529E+01  0.32267227926E+02  0.00000000000E+00 0. -1.
</event>
<event>
 7    1  0.2732144E-009  0.1022632E+03  0.7561462E-02  0.1275608E+00
          2   -1    0    0  501    0  0.00000000000E+00  0.00000000000E+00  0.26065187349E+03  0.26065187349E+03  0.00000000000E+00 0. -1.
         -2   -1    0    0    0  501 -0.00000000000E+00 -0.00000000000E+00 -0.54730192334E+02  0.54730192334E+02  0.00000000000E+00 0.  1.
         25    2    1    2    0    0 -0.40344559596E+02  0.19432820878E+02  0.78835756825E+02  0.15449245477E+03  0.12509006359E+03 0.  0.
          5    1    3    3  502    0 -0.44464552628E+02 -0.42542078712E+02  0.11415279252E+02  0.62727234133E+02  0.41800000000E+01 0.  1.
         -5    1    3    3    0  502  0.41199930324E+01  0.61974899590E+02  0.67420477573E+02  0.91765220633E+02  0.41800000000E+01 0.  1.
        -11    1    1    2    0    0  0.19819511038E+02 -0.44192605145E+02  0.11787220312E+03  0.12743490745E+03  0.00000000000E+00 0. -1.
         11    1    1    2    0    0  0.20525048557E+02  0.24759784267E+02  0.92137212104E+01  0.33454703612E+02  0.00000000000E+00 0.  1.
</event>
<event>
 7    1  0.2732144E-009  0.1061316E+03  0.7561462E-02  0.1267906E+00
          1   -1    0    0  501    0  0.00000000000E+00  0.00000000000E+00  0.26303947117E+02  0.26303947117E+02  0.00000000000E+00 0. -1.
         -1   -1    0    0    0  501 -0.00000000000E+00 -0.00000000000E+00 -0.58165803616E+03  0.58165803616E+03  0.00000000000E+00 0.  1.
         25    2    1    2    0    0 -0.29745486997E+02 -0.51678066752E+02 -0.30502476162E+03  0.33502227908E+03  0.12507759872E+03 0.  0.
          5    1    3    3  502    0 -0.32915059424E+02  0.18946804379E+02 -0.23792883407E+02  0.45010623567E+02  0.41800000000E+01 0. -1.
         -5    1    3    3    0  502  0.31695724267E+01 -0.70624871131E+02 -0.28123187821E+03  0.29001165552E+03  0.41800000000E+01 0. -1.
        -11    1    1    2    0    0 -0.78012369636E+01  0.63418354892E+02 -0.19385740457E+03  0.20411624223E+03  0.00000000000E+00 0.  1.
         11    1    1    2    0    0  0.37546723961E+02 -0.11740288140E+02 -0.56471922846E+02  0.68823461957E+02  0.00000000000E+00 0. -1.
</event>
<event>
 7    1  0.2732144E-009  0.7389830E+02  0.7561462E-02  0.1347317E+00
         -2   -1    0    0    0  501 -0.00000000000E+00  0.00000000000E+00  0.99524961963E+02  0.99524961963E+02  0.00000000000E+00 0. -1.
          2   -1    0    0  501    0  0.00000000000E+00 -0.00000000000E+00 -0.14409662297E+03  0.14409662297E+03  0.00000000000E+00 0.  1.
         25    2    1    2    0    0 -0.30285918179E+02 -0.35393030163E+02 -0.50359720231E+02  0.14267578241E+03  0.12510145499E+03 0.  0.
          5    1    3    3  502    0  0.69017778913E+01 -0.31028057119E+02  0.36149776931E+02  0.48318253681E+02  0.41800000000E+01 0. -1.
         -5    1    3    3    0  502 -0.37187696071E+02 -0.43649730441E+01 -0.86509497162E+02  0.94357528729E+02  0.41800000000E+01 0. -1.
        -11    1    1    2    0    0 -0.76676869736E+01 -0.13884876576E+02  0.30212182167E+02  0.34122707577E+02  0.00000000000E+00 0. -1.
         11    1    1    2    0    0  0.37953605153E+02  0.49277906740E+02 -0.24424122944E+02  0.66823094947E+02  0.00000000000E+00 0.  1.
</event>
<event>
 7    1  0.2732144E-009  0.1079853E+03  0.7561462E-02  0.1264347E+00
          3   -1    0    0  501    0  0.00000000000E+00  0.00000000000E+00  0.31119242439E+03  0.31119242439E+03  0.00000000000E+00 0. -1.
         -3   -1    0    0    0  501 -0.00000000000E+00 -0.00000000000E+00 -0.49725572264E+02  0.49725572264E+02  0.00000000000E+00 0.  1.
         25    2    1    2    0    0 -0.22311697547E+02 -0.53143024899E+02  0.18530826583E+03  0.23088517632E+03  0.12508724282E+03 0.  0.
          5    1    3    3  502    0 -0.70489492591E+02 -0.17824787390E+02  0.13178133762E+03  0.15056654660E+03  0.41800000000E+01 0. -1.
         -5    1    3    3    0  502  0.48177795044E+02 -0.35318237509E+02  0.53526928216E+02  0.80318629721E+02  0.41800000000E+01 0. -1.
        -11    1    1    2    0    0  0.23668650298E+02  0.66111266218E+02  0.20911613481E+02  0.73268001927E+02  0.00000000000E+00 0.  1.
         11    1    1    2    0    0 -0.13569527508E+01 -0.12968241319E+02  0.55246972807E+02  0.56764818401E+02  0.00000000000E+00 0. -1.
</event>
<event>
 7    1  0.2732144E-009  0.1091300E+03  0.7561462E-02  0.1262189E+00
         -1   -1    0    0    0  501 -0.00000000000E+00  0.00000000000E+00  0.20711378466E+02  0.20711378466E+02  0.00000000000E+00 0.  1.
          1   -1    0    0  501    0  0.00000000000E+00 -0.00000000000E+00 -0.94691743598E+03  0.94691743598E+03  0.00000000000E+00 0. -1.
         25    2    1    2    0    0 -0.54712748934E+02  0.68651799376E+02 -0.48538618066E+03  0.50887408583E+03  0.12508611593E+03 0.  0.
          5    1    3    3  502    0 -0.25092105919E+02  0.50202380320E+02 -0.60851558865E+02  0.82887136429E+02  0.41800000000E+01 0. -1.
         -5    1    3    3    0  502 -0.29620643015E+02  0.18449419056E+02 -0.42453462180E+03  0.42598694940E+03  0.41800000000E+01 0. -1.
        -11    1    1    2    0    0  0.80398935005E+02 -0.46252597971E+02 -0.31113301916E+03  0.32466451482E+03  0.00000000000E+00 0.  1.
         11    1    1    2    0    0 -0.25686186071E+02 -0.22399201405E+02 -0.12968685769E+03  0.13409021379E+03  0.00000000000E+00 0. -1.
</event>
<event>
 7    1  0.2732144E-009  0.9437207E+02  0.7561462E-02  0.1292597E+00
          2   -1    0    0  501    0  0.00000000000E+00  0.00000000000E+00  0.27720955529E+03  0.27720955529E+03  0.00000000000E+00 0. -1.
         -2   -1    0    0    0  501 -0.00000000000E+00 -0.00000000000E+00 -0.45456974027E+02  0.45456974027E+02  0.00000000000E+00 0.  1.
         25    2    1    2    0    0 -0.78356602162E+01  0.27711634168E+02  0.13782407204E+03  0.18834220295E+03  0.12509187959E+03 0.  0.
          5    1    3    3  502    0  0.55449467872E+02  0.19604478860E+02  0.93514615643E+02  0.11055059845E+03  0.41800000000E+01 0.  1.
         -5    1    3    3    0  502 -0.63285128088E+02  0.81071553077E+01  0.44309456393E+02  0.77791604497E+02  0.41800000000E+01 0.  1.
        -11    1    1    2    0    0  0.26455732733E+02 -0.36640590699E+02  0.10245750986E+03  0.11198205216E+03  0.00000000000E+00 0. -1.
         11    1    1    2    0    0 -0.18620072517E+02  0.89289565313E+01 -0.85290006236E+01  0.22342274211E+02  0.00000000000E+00 0.  1.
</event>
<event>
 7    1  0.2732144E-009  0.8113758E+02  0.7561462E-02  0.1325854E+00
          1   -1    0    0  501    0  0.00000000000E+00  0.00000000000E+00  0.21010872753E+03  0.21010872753E+03  0.00000000000E+00 0. -1.
         -1   -1    0    0    0  501 -0.00000000000E+00 -0.00000000000E+00 -0.71087894988E+02  0.71087894988E+02  0.00000000000E+00 0.  1.
         25    2    1    2    0    0  0.47447912494E+02 -0.34355463351E+02  0.92541485200E+02  0.16626363254E+03  0.12509223301E+03 0.  0.
          5    1    3    3  502    0  0.28335933310E+02  0.35413619900E+01 -0.26889625421E+02  0.39446048174E+02  0.41800000000E+01 0.  1.
         -5    1    3    3    0  502  0.19111979184E+02 -0.37896825341E+02  0.11943111062E+03  0.12681758436E+03  0.41800000000E+01 0.  1.
        -11    1    1    2    0    0 -0.70722850183E+01 -0.21051865142E+02  0.40405875304E+02  0.46106756559E+02  0.00000000000E+00 0. -1.
         11    1    1    2    0    0 -0.40375627476E+02  0.55407328494E+02  0.60734720405E+01  0.68826233425E+02  0.00000000000E+00 0.  1.
</event>
<event>
 7    1  0.2732144E-009  0.1367240E+03  0.7561462E-02  0.1217806E+00
         -2   -1    0    0    0  501 -0.00000000000E+00  0.00000000000E+00  0.20079117493E+02  0.20079117493E+02  0.00000000000E+00 0. -1.
          2   -1    0    0  501    0  0.00000000000E+00 -0.00000000000E+00 -0.13921187187E+04  0.13921187187E+04  0.00000000000E+00 0.  1.
         25    2    1    2    0    0  0.36962700841E+02 -0.12168260290E+03 -0.78210324582E+03  0.80218794762E+03  0.12508844507E+03 0.  0.
          5    1    3    3  502    0  0.14876181794E+02 -0.11621607737E+02 -0.96494602953E+01  0.21608957290E+02  0.41800000000E+01 0. -1.
         -5    1    3    3    0  502  0.22086519047E+02 -0.11006099516E+03 -0.77245378552E+03  0.78057899033E+03  0.41800000000E+01 0. -1.
        -11    1    1    2    0    0 -0.14801905152E+02 -0.30342192617E+01 -0.15022388230E+02  0.21306689813E+02  0.00000000000E+00 0. -1.
         11    1    1    2    0    0 -0.22160795689E+02  0.12471682216E+03 -0.57491396720E+03  0.58870319880E+03  0.00000000000E+00 0.  1.
</event>
<event>
 7    1  0.2732144E-009  0.9568680E+02  0.7561462E-02  0.1289637E+00
          2   -1    0    0  501    0  0.00000000000E+00  0.00000000000E+00  0.41980734451E+03  0.41980734451E+03  0.00000000000E+00 0. -1.
         -2   -1    0    0    0  501 -0.00000000000E+00 -0.00000000000E+00 -0.31018942945E+02  0.31018942945E+02  0.00000000000E+00 0.  1.
         25    2    1    2    0    0 -0.18790902960E+02  0.17759339287E+01  0.16332155516E+03  0.20658449487E+03  0.12508785379E+03 0.  0.
          5    1    3    3  502    0  0.36616403186E+02  0.16689245212E+02  0.83922178294E+01  0.41318199478E+02  0.41800000000E+01 0.  1.
         -5    1    3    3    0  502 -0.55407306146E+02 -0.14913311284E+02  0.15492933733E+03  0.16526629539E+03  0.41800000000E+01 0.  1.
        -11    1    1    2    0    0 -0.64302249730E+01  0.42201738139E+02  0.90351982925E+02  0.99929051400E+02  0.00000000000E+00 0.  1.
         11    1    1    2    0    0  0.25221127933E+02 -0.43977672068E+02  0.13511486348E+03  0.14431274118E+03  0.00000000000E+00 0. -1.
</event>
<event>
 7    1  0.2732144E-009  0.1180814E+03  0.7561462E-02  0.1246296E+00
          2   -1    0    0  501    0  0.00000000000E+00  0.00000000000E+00  0.24481304579E+02  0.24481304579E+02  0.00000000000E+00 0. -1.
         -2   -1    0    0    0  501 -0.00000000000E+00 -0.00000000000E+00 -0.69165078502E+03  0.69165078502E+03  0.00000000000E+00 0.  1.
         25    2    1    2    0    0 -0.47800634477E+02  0.67205548159E+02 -0.32685733975E+03  0.35956271116E+03  0.12509251114E+03 0.  0.
          5    1    3    3  502    0  0.42093362565E+02  0.16617526334E+02 -0.12138425101E+03  0.12961327921E+03  0.41800000000E+01 0.  1.
         -5    1    3    3    0  502 -0.89893997043E+02  0.50588021825E+02 -0.20547308874E+03  0.22994943195E+03  0.41800000000E+01 0.  1.
        -11    1    1    2    0    0 -0.11666062899E+01 -0.18081059436E+02 -0.13811530175E+02  0.22782538189E+02  0.00000000000E+00 0. -1.
         11    1    1    2    0    0  0.48967240767E+02 -0.49124488723E+02 -0.32650061051E+03  0.33378684025E+03  0.00000000000E+00 0.  1.
</event>
<event>
 7    1  0.2732144E-009  0.1587420E+03  0.7561462E-02  0.1190124E+00
         -1   -1    0    0    0  501 -0.00000000000E+00  0.00000000000E+00  0.29759118554E+02  0.29759118554E+02  0.00000000000E+00 0.  1.
          1   -1    0    0  501    0  0.00000000000E+00 -0.00000000000E+00 -0.12552452960E+04  0.12552452960E+04  0.00000000000E+00 0. -1.
         25    2    1    2    0    0 -0.11910794893E+03 -0.85879901031E+02 -0.84767511764E+03  0.86934716319E+03  0.12509725888E+03 0.  0.
          5    1    3    3  502    0 -0.11914118937E+03 -0.97559486398E+02 -0.84151205722E+03  0.85549546535E+03  0.41800000000E+01 0. -1.
         -5    1    3    3    0  502  0.33240444019E-01  0.11679585368E+02 -0.61630604240E+01  0.13851697841E+02  0.41800000000E+01 0. -1.
        -11    1    1    2    0    0  0.11723755764E+03  0.73192567971E+02 -0.37836847831E+03  0.40282068257E+03  0.00000000000E+00 0. -1.
         11    1    1    2    0    0  0.18703912892E+01  0.12687333060E+02  0.55741847723E+00  0.12836568821E+02  0.00000000000E+00 0.  1.
</event>
<event>
 7    1  0.2732144E-009  0.1417818E+03  0.7561462E-02  0.1210951E+00
         -2   -1    0    0    0  501 -0.00000000000E+00  0.00000000000E+00  0.11729176630E+03  0.11729176630E+03  0.00000000000E+00 0. -1.
          2   -1    0    0  501    0  0.00000000000E+00 -0.00000000000E+00 -0.37928103950E+03  0.37928103950E+03  0.00000000000E+00 0.  1.
         25    2    1    2    0    0 -0.53756644248E+02  0.91961260832E+02 -0.30779898520E+03  0.34889384831E+03  0.12506019273E+03 0.  0.
          5    1    3    3  502    0  0.13625126120E+02  0.92766290214E+02 -0.14589615910E+03  0.17347734810E+03  0.41800000000E+01 0. -1.
         -5    1    3    3    0  502 -0.67381770367E+02 -0.80502938238E+00 -0.16190282610E+03  0.17541650022E+03  0.41800000000E+01 0. -1.
        -11    1    1    2    0    0  0.22044958682E+02  0.28410895956E+01 -0.18411161372E+02  0.28862135341E+02  0.00000000000E+00 0.  1.
         11    1    1    2    0    0  0.31711685566E+02 -0.94802350427E+02  0.64220873367E+02  0.11881682214E+03  0.00000000000E+00 0. -1.
</event>
<event>
 7    1  0.2732144E-009  0.2166015E+03  0.7561462E-02  0.1136442E+00
          1   -1    0    0  501    0  0.00000000000E+00  0.00000000000E+00  0.23572323149E+03  0.23572323149E+03  0.00000000000E+00 0. -1.
         -1   -1    0    0    0  501 -0.00000000000E+00 -0.00000000000E+00 -0.24244428378E+03  0.24244428378E+03  0.00000000000E+00 0.  1.
         25    2    1    2    0    0  0.22512523787E+02  0.20814548191E+03  0.34241493521E+02  0.24629458448E+03  0.12512868216E+03 0.  0.
          5    1    3    3  502    0  0.43120884157E+02  0.75381043185E+02  0.64812278005E+02  0.10844268579E+03  0.41800000000E+01 0. -1.
         -5    1    3    3    0  502 -0.20608360369E+02  0.13276443872E+03 -0.30570784483E+02  0.13785189868E+03  0.41800000000E+01 0. -1.
        -11    1    1    2    0    0 -0.30797611312E+02 -0.15223750072E+03  0.10173901844E+02  0.15565428927E+03  0.00000000000E+00 0.  1.
         11    1    1    2    0    0  0.82850875243E+01 -0.55907981184E+02 -0.51136447655E+02  0.76218641513E+02  0.00000000000E+00 0. -1.
</event>
<event>
 7    1  0.2732144E-009  0.7658338E+02  0.7561462E-02  0.1339037E+00
         -1   -1    0    0    0  501 -0.00000000000E+00  0.00000000000E+00  0.26699757352E+03  0.26699757352E+03  0.00000000000E+00 0. -1.
          1   -1    0    0  501    0  0.00000000000E+00 -0.00000000000E+00 -0.42545412973E+02  0.42545412973E+02  0.00000000000E+00 0.  1.
         25    2    1    2    0    0  0.44531482016E+01 -0.11286974690E+02  0.12630324373E+03  0.17817555118E+03  0.12508713497E+03 0.  0.
          5    1    3    3  502    0  0.61727571147E+02  0.35823521385E+01  0.87750251240E+02  0.10742767464E+03  0.41800000000E+01 0.  1.
         -5    1    3    3    0  502 -0.57274422946E+02 -0.14869326829E+02  0.38552992491E+02  0.70747876534E+02  0.41800000000E+01 0.  1.
        -11    1    1    2    0    0  0.64323284745E+01 -0.76720994880E+01 -0.13942068872E+02  0.17164417980E+02  0.00000000000E+00 0.  1.
         11    1    1    2    0    0 -0.10885476676E+02  0.18959074178E+02  0.11209098569E+03  0.11420301734E+03  0.00000000000E+00 0. -1.
</event>
<event>
 7    1  0.2732144E-009  0.1181124E+03  0.7561462E-02  0.1246244E+00
         -2   -1    0    0    0  501 -0.00000000000E+00  0.00000000000E+00  0.14747090142E+03  0.14747090142E+03  0.00000000000E+00 0.  1.
          2   -1    0    0  501    0  0.00000000000E+00 -0.00000000000E+00 -0.16164655378E+03  0.16164655378E+03  0.00000000000E+00 0. -1.
         25    2    1    2    0    0 -0.71646405726E+02  0.69606373070E+02  0.36425565751E+02  0.16416766666E+03  0.12508375719E+03 0.  0.
          5    1    3    3  502    0 -0.51930737447E+02  0.65953159154E+02  0.79990280883E+02  0.11602817817E+03  0.41800000000E+01 0. -1.
         -5    1    3    3    0  502 -0.19715668279E+02  0.36532139163E+01 -0.43564715132E+02  0.48139488491E+02  0.41800000000E+01 0. -1.
        -11    1    1    2    0    0  0.50315557501E+02  0.82333516552E+01 -0.26134269213E+01  0.51051673884E+02  0.00000000000E+00 0. -1.
         11    1    1    2    0    0  0.21330848226E+02 -0.77839724725E+02 -0.47987791192E+02  0.93898114650E+02  0.00000000000E+00 0.  1.
</event>
<event>
 7    1  0.2732144E-009  0.1125962E+03  0.7561462E-02  0.1255836E+00
         -1   -1    0    0    0  501 -0.00000000000E+00  0.00000000000E+00  0.16040100713E+03  0.16040100713E+03  0.00000000000E+00 0.  1.
          1   -1    0    0  501    0  0.00000000000E+00 -0.00000000000E+00 -0.12892644779E+03  0.12892644779E+03  0.00000000000E+00 0. -1.
         25    2    1    2    0    0 -0.29149235659E+02 -0.65435195948E+02  0.71084201467E+02  0.16072452385E+03  0.12509183051E+03 0.  0.
          5    1    3    3  502    0 -0.60765866660E+02 -0.67919356908E+02  0.86048769901E+02  0.12540890238E+03  0.41800000000E+01 0.  1.
         -5    1    3    3    0  502  0.31616631001E+02  0.24841609606E+01 -0.14964568434E+02  0.35315621472E+02  0.41800000000E+01 0.  1.
        -11    1    1    2    0    0  0.44153214349E+02  0.72889649092E+02 -0.58490016668E+02  0.10336096619E+03  0.00000000000E+00 0. -1.
         11    1    1    2    0    0 -0.15003978691E+02 -0.74544531443E+01  0.18880374535E+02  0.25241964876E+02  0.00000000000E+00 0.  1.
</event>
<event>
 7    1  0.2940109E-009  0.8806187E+02  0.7561462E-02  0.1307614E+00
          2   -1    0    0  501    0  0.00000000000E+00  0.00000000000E+00  0.25175507012E+02  0.25175507012E+02  0.00000000000E+00 0. -1.
         -2   -1    0    0    0  501 -0.00000000000E+00 -0.00000000000E+00 -0.54423268168E+03  0.54423268168E+03  0.00000000000E+00 0.  1.
         25    2    1    2    0    0  0.18369123294E+02  0.23058536849E+02 -0.37426270057E+03  0.39570827322E+03  0.12507336904E+03 0.  0.
          5    1    3    3  502    0  0.27805379900E+02  0.72547728863E+02 -0.23582615993E+03  0.24832994629E+03  0.41800000000E+01 0.  1.
         -5    1    3    3    0  502 -0.94362566056E+01 -0.49489192014E+02 -0.13843654064E+03  0.14737832693E+03  0.41800000000E+01 0.  1.
        -11    1    1    2    0    0  0.11662764310E+02 -0.47629634754E+01  0.92904535186E+01  0.15653064205E+02  0.00000000000E+00 0. -1.
         11    1    1    2    0    0 -0.30031887604E+02 -0.18295573374E+02 -0.15408492761E+03  0.15804685127E+03  0.00000000000E+00 0.  1.
</event>
<event>
 7    1  0.2732144E-009  0.1793534E+03  0.7561462E-02  0.1168430E+00
         -1   -1    0    0    0  501 -0.00000000000E+00  0.00000000000E+00  0.47490610859E+02  0.47490610859E+02  0.00000000000E+00 0.  1.
          1   -1    0    0  501    0  0.00000000000E+00 -0.00000000000E+00 -0.77874870431E+03  0.77874870431E+03  0.00000000000E+00 0. -1.
         25    2    1    2    0    0 -0.22828123190E+02 -0.14388403958E+03 -0.51902288716E+03  0.55340373758E+03  0.12508876574E+03 0.  0.
          5    1    3    3  502    0 -0.16044459272E+02 -0.16441132099E+03 -0.48904199010E+03  0.51620543161E+03  0.41800000000E+01 0.  1.
         -5    1    3    3    0  502 -0.67836639175E+01  0.20527281411E+02 -0.29980897055E+02  0.37198305962E+02  0.41800000000E+01 0.  1.
        -11    1    1    2    0    0 -0.59839520931E+01  0.14246970748E+03 -0.17756207032E+03  0.22773167116E+03  0.00000000000E+00 0.  1.
         11    1    1    2    0    0  0.28812075283E+02  0.14143320951E+01 -0.34673135967E+02  0.45103906429E+02  0.00000000000E+00 0. -1.
</event>
<event>
 7    1  0.2732144E-009  0.1106728E+03  0.7561462E-02  0.1259329E+00
          2   -1    0    0  501    0  0.00000000000E+00  0.00000000000E+00  0.10296891994E+03  0.10296891994E+03  0.00000000000E+00 0. -1.
         -2   -1    0    0    0  501 -0.00000000000E+00 -0.00000000000E+00 -0.16458438580E+03  0.16458438580E+03  0.00000000000E+00 0.  1.
         25    2    1    2    0    0  0.51937803701E+02  0.37723228964E+02 -0.13644398826E+02  0.14125362883E+03  0.12508333455E+03 0.  0.
          5    1    3    3  502    0  0.11166613171E+02 -0.33716630892E+02 -0.41058291654E+02  0.54449611219E+02  0.41800000000E+01 0. -1.
         -5    1    3    3    0  502  0.40771190530E+02  0.71439859856E+02  0.27413892828E+02  0.86804017611E+02  0.41800000000E+01 0. -1.
        -11    1    1    2    0    0  0.17187153330E+02 -0.28778240286E+02  0.10706261000E+02  0.35188199416E+02  0.00000000000E+00 0. -1.
         11    1    1    2    0    0 -0.69124957030E+02 -0.89449886782E+01 -0.58677328025E+02  0.91111477494E+02  0.00000000000E+00 0.  1.
</event>
<event>
 7    1  0.2732144E-009  0.1157872E+03  0.7561462E-02  0.1250213E+00
          1   -1    0    0  501    0  0.00000000000E+00  0.00000000000E+00  0.68165877240E+03  0.68165877240E+03  0.00000000000E+00 0. -1.
         -1   -1    0    0    0  501 -0.00000000000E+00 -0.00000000000E+00 -0.24619503195E+02  0.24619503195E+02  0.00000000000E+00 0.  1.
         25    2    1    2    0    0 -0.39873008382E+02  0.20376434511E+02  0.50503268083E+03  0.52221598808E+03  0.12508586497E+03 0.  0.
          5    1    3    3  502    0  0.38433295379E+02  0.34710932134E+02  0.23426234933E+03  0.23995476182E+03  0.41800000000E+01 0.  1.
         -5    1    3    3    0  502 -0.78306303762E+02 -0.14334497623E+02  0.27077033150E+03  0.28226122626E+03  0.41800000000E+01 0.  1.
        -11    1    1    2    0    0  0.23060566775E+02  0.35064016348E+02  0.40083233120E+02  0.58033960401E+02  0.00000000000E+00 0.  1.
         11    1    1    2    0    0  0.16812441608E+02 -0.55440450859E+02  0.11192335525E+03  0.12602832711E+03  0.00000000000E+00 0. -1.
</event>
<event>
 7    1  0.2732144E-009  0.1424381E+03  0.7561462E-02  0.1210085E+00
          1   -1    0    0  501    0  0.00000000000E+00  0.00000000000E+00  0.22298012708E+03  0.22298012708E+03  0.00000000000E+00 0. -1.
         -1   -1    0    0    0  501 -0.00000000000E+00 -0.00000000000E+00 -0.95003311753E+02  0.95003311753E+02  0.00000000000E+00 0.  1.
         25    2    1    2    0    0 -0.73570070095E+02  0.63536529156E+02  0.85233341198E+02  0.17989330668E+03  0.12508970215E+03 0.  0.
          5    1    3    3  502    0 -0.32321935481E+02  0.98300234680E+02  0.64176160641E+02  0.12183470625E+03  0.41800000000E+01 0.  1.
         -5    1    3    3    0  502 -0.41248134613E+02 -0.34763705524E+02  0.21057180558E+02  0.58058600430E+02  0.41800000000E+01 0.  1.
        -11    1    1    2    0    0  0.86472359495E+02 -0.30419134020E+02  0.14745724668E+02  0.92845188713E+02  0.00000000000E+00 0.  1.
         11    1    1    2    0    0 -0.12902289400E+02 -0.33117395136E+02  0.27997749457E+02  0.45244943442E+02  0.00000000000E+00 0. -1.
</event>
<event>
 7    1  0.2732144E-009  0.9950366E+02  0.7561462E-02  0.1281343E+00
         -1   -1    0    0    0  501 -0.00000000000E+00  0.00000000000E+00  0.47492801414E+02  0.47492801414E+02  0.00000000000E+00 0.  1.
          1   -1    0    0  501    0  0.00000000000E+00 -0.00000000000E+00 -0.26400371500E+03  0.26400371500E+03  0.00000000000E+00 0. -1.
         25    2    1    2    0    0 -0.16600756096E+02  0.12521056118E+02 -0.10177606454E+03  0.16259866463E+03  0.12509035325E+03 0.  0.
          5    1    3    3  502    0 -0.58106990609E+02 -0.68993234990E+01 -0.94221097545E+01  0.59416088516E+02  0.41800000000E+01 0.  1.
         -5    1    3    3    0  502  0.41506234513E+02  0.19420379617E+02 -0.92353954787E+02  0.10318257611E+03  0.41800000000E+01 0.  1.
        -11    1    1    2    0    0  0.47094612572E+02  0.18713335735E+02 -0.53430723379E+02  0.73640570805E+02  0.00000000000E+00 0.  1.
         11    1    1    2    0    0 -0.30493856477E+02 -0.31234391853E+02 -0.61304125663E+02  0.75257280980E+02  0.00000000000E+00 0. -1.
</event>
<event>
 7    1  0.2732144E-009  0.2238443E+03  0.7561462E-02  0.1131049E+00
          3   -1    0    0  501    0  0.00000000000E+00  0.00000000000E+00  0.25719575139E+03  0.25719575139E+03  0.00000000000E+00 0. -1.
         -3   -1    0    0    0  501 -0.00000000000E+00 -0.00000000000E+00 -0.21948417018E+03  0.21948417018E+03  0.00000000000E+00 0.  1.
         25    2    1    2    0    0  0.18694388483E+03 -0.95585754007E+02  0.66674575115E-01  0.24440167823E+03  0.12509006127E+03 0.  0.
          5    1    3    3  502    0  0.13584879905E+03 -0.10058000368E+03 -0.46076189787E+02  0.17524759915E+03  0.41800000000E+01 0.  1.
         -5    1    3    3    0  502  0.51095085785E+02  0.49942496729E+01  0.46142864363E+02  0.69154079075E+02  0.41800000000E+01 0.  1.
        -11    1    1    2    0    0 -0.17565269996E+03  0.53641431356E+02  0.17797138355E+02  0.18452103483E+03  0.00000000000E+00 0. -1.
         11    1    1    2    0    0 -0.11291184869E+02  0.41944322651E+02  0.19847768289E+02  0.47757208508E+02  0.00000000000E+00 0.  1.
</event>
<event>
 7    1  0.2732144E-009  0.2570935E+03  0.7561462E-02  0.1108902E+00
         -1   -1    0    0    0  501 -0.00000000000E+00  0.00000000000E+00  0.12593902046E+03  0.12593902046E+03  0.00000000000E+00 0.  1.
          1   -1    0    0  501    0  0.00000000000E+00 -0.00000000000E+00 -0.57038131678E+03  0.57038131678E+03  0.00000000000E+00 0. -1.
         25    2    1    2    0    0 -0.29229832825E+02  0.23765608777E+03 -0.16849029229E+03  0.31836928534E+03  0.12504088959E+03 0.  0.
          5    1    3    3  502    0  0.31392854848E+02  0.55188216711E+02 -0.14675644600E+01  0.63646498291E+02  0.41800000000E+01 0. -1.
         -5    1    3    3    0  502 -0.60622687673E+02  0.18246787106E+03 -0.16702272783E+03  0.25472278705E+03  0.41800000000E+01 0. -1.
        -11    1    1    2    0    0 -0.28124390598E+02 -0.15561474738E+03 -0.16660922352E+03  0.22970756258E+03  0.00000000000E+00 0. -1.
         11    1    1    2    0    0  0.57354223423E+02 -0.82041340392E+02 -0.10934278051E+03  0.14824348933E+03  0.00000000000E+00 0.  1.
</event>
<event>
 7    1  0.2732144E-009  0.6507898E+02  0.7561462E-02  0.1377675E+00
         -2   -1    0    0    0  501 -0.00000000000E+00  0.00000000000E+00  0.17538403600E+02  0.17538403600E+02  0.00000000000E+00 0.  1.
          2   -1    0    0  501    0  0.00000000000E+00 -0.00000000000E+00 -0.74144646710E+03  0.74144646710E+03  0.00000000000E+00 0. -1.
         25    2    1    2    0    0  0.18453258010E+02  0.12235490556E+02 -0.50442249091E+03  0.52017291478E+03  0.12509029529E+03 0.  0.
          5    1    3    3  502    0 -0.14852691119E+02  0.21525937470E+01 -0.10852364787E+01  0.15616857287E+02  0.41800000000E+01 0.  1.
         -5    1    3    3    0  502  0.33305949129E+02  0.10082896809E+02 -0.50333725443E+03  0.50455605749E+03  0.41800000000E+01 0.  1.
        -11    1    1    2    0    0 -0.45034357107E+02  0.84852913927E+01 -0.18500238196E+03  0.19059374287E+03  0.00000000000E+00 0. -1.
         11    1    1    2    0    0  0.26581099096E+02 -0.20720781949E+02 -0.34483190629E+02  0.48218213050E+02  0.00000000000E+00 0.  1.
</event>
<event>
 7    1  0.2732144E-009  0.1250716E+03  0.7561462E-02  0.1234957E+00
         -1   -1    0    0    0  501 -0.00000000000E+00  0.00000000000E+00  0.51503456904E+02  0.51503456904E+02  0.00000000000E+00 0.  1.
          1   -1    0    0  501    0  0.00000000000E+00 -0.00000000000E+00 -0.53849759700E+03  0.53849759700E+03  0.00000000000E+00 0. -1.
         25    2    1    2    0    0  0.73447249142E+02 -0.66828909811E+02 -0.12286175728E+03  0.20150293071E+03  0.12509123906E+03 0.  0.
          5    1    3    3  502    0 -0.89503202934E+01 -0.31918572241E+02  0.15371831723E+02  0.36778650027E+02  0.41800000000E+01 0. -1.
         -5    1    3    3    0  502  0.82397569435E+02 -0.34910337570E+02 -0.13823358901E+03  0.16472428069E+03  0.41800000000E+01 0. -1.
        -11    1    1    2    0    0 -0.90760052859E+02  0.58020534021E+02 -0.34421534960E+03  0.36067710832E+03  0.00000000000E+00 0. -1.
         11    1    1    2    0    0  0.17312803718E+02  0.88083757902E+01 -0.19917033208E+02  0.27821014871E+02  0.00000000000E+00 0.  1.
</event>
<event>
 7    1  0.2732144E-009  0.1189317E+03  0.7561462E-02  0.1244870E+00
         -1   -1    0    0    0  501 -0.00000000000E+00  0.00000000000E+00  0.19844689076E+03  0.19844689076E+03  0.00000000000E+00 0. -1.
          1   -1    0    0  501    0  0.00000000000E+00 -0.00000000000E+00 -0.87389370529E+02  0.87389370529E+02  0.00000000000E+00 0.  1.
         25    2    1    2    0    0  0.60498158407E+02 -0.44339946152E+02  0.54358213385E+02  0.15565461438E+03  0.12508991014E+03 0.  0.
          5    1    3    3  502    0  0.95567522255E+02 -0.94168695630E+01  0.38030432412E+02  0.10337124809E+03  0.41800000000E+01 0.  1.
         -5    1    3    3    0  502 -0.35069363847E+02 -0.34923076589E+02  0.16327780973E+02  0.52283366290E+02  0.41800000000E+01 0.  1.
        -11    1    1    2    0    0 -0.58738432593E+02  0.12334014423E+02 -0.54363784945E+01  0.60265127449E+02  0.00000000000E+00 0.  1.
         11    1    1    2    0    0 -0.17597258147E+01  0.32005931728E+02  0.62135685343E+02  0.69916519463E+02  0.00000000000E+00 0. -1.
</event>
<event>
 7    1  0.2732144E-009  0.1499064E+03  0.7561462E-02  0.1200588E+00
          2   -1    0    0  501    0  0.00000000000E+00  0.00000000000E+00  0.41295445413E+02  0.41295445413E+02  0.00000000000E+00 0. -1.
         -2   -1    0    0    0  501 -0.00000000000E+00 -0.00000000000E+00 -0.65880988304E+03  0.65880988304E+03  0.00000000000E+00 0.  1.
         25    2    1    2    0    0  0.71208080863E+02 -0.10209845782E+03 -0.34223441393E+03  0.38505397245E+03  0.12508989470E+03 0.  0.
          5    1    3    3  502    0  0.93149550740E+02 -0.10668493316E+03 -0.33009995788E+03  0.35922411995E+03  0.41800000000E+01 0.  1.
         -5    1    3    3    0  502 -0.21941469877E+02  0.45864753389E+01 -0.12134456050E+02  0.25829852497E+02  0.41800000000E+01 0.  1.
        -11    1    1    2    0    0 -0.47097749111E+02  0.10070045042E+03 -0.14585083483E+03  0.18338823492E+03  0.00000000000E+00 0. -1.
         11    1    1    2    0    0 -0.24110331751E+02  0.13980073956E+01 -0.12942918887E+03  0.13166312109E+03  0.00000000000E+00 0.  1.
</event>
<event>
 7    1  0.2732144E-009  0.1221930E+03  0.7561462E-02  0.1239523E+00
          1   -1    0    0  501    0  0.00000000000E+00  0.00000000000E+00  0.46479846151E+03  0.46479846151E+03  0.00000000000E+00 0. -1.
         -1   -1    0    0    0  501 -0.00000000000E+00 -0.00000000000E+00 -0.40187053493E+02  0.40187053493E+02  0.00000000000E+00 0.  1.
         25    2    1    2    0    0 -0.74664178005E+02 -0.16430061571E+02  0.17561540459E+03  0.22876662106E+03  0.12509480479E+03 0.  0.
          5    1    3    3  502    0 -0.49494987555E+02 -0.60527456446E+02  0.49206628789E+02  0.92477518856E+02  0.41800000000E+01 0. -1.
         -5    1    3    3    0  502 -0.25169190450E+02  0.44097394875E+02  0.12640877580E+03  0.13628910221E+03  0.41800000000E+01 0. -1.
        -11    1    1    2    0    0  0.59141161757E+01  0.41531805768E+02  0.57213442734E+02  0.70945371167E+02  0.00000000000E+00 0.  1.
         11    1    1    2    0    0  0.68750061830E+02 -0.25101744197E+02  0.19178256069E+03  0.20527352277E+03  0.00000000000E+00 0. -1.
</event>
<event>
 7    1  0.2732144E-009  0.1888628E+03  0.7561462E-02  0.1159491E+00
         -1   -1    0    0    0  501 -0.00000000000E+00  0.00000000000E+00  0.14025698150E+04  0.14025698150E+04  0.00000000000E+00 0.  1.
          1   -1    0    0  501    0  0.00000000000E+00 -0.00000000000E+00 -0.29165243626E+02  0.29165243626E+02  0.00000000000E+00 0. -1.
         25    2    1    2    0    0  0.63504683517E+02 -0.14914730398E+03  0.90621926678E+03  0.92906332201E+03  0.12509010236E+03 0.  0.
          5    1    3    3  502    0 -0.28402045789E+02 -0.45072966715E+02  0.42014830239E+03  0.42353313558E+03  0.41800000000E+01 0.  1.
         -5    1    3    3    0  502  0.91906729305E+02 -0.10407433727E+03  0.48607096440E+03  0.50553018644E+03  0.41800000000E+01 0.  1.
        -11    1    1    2    0    0 -0.54879394311E+02  0.23940762634E+02  0.16015576446E+03  0.17098180291E+03  0.00000000000E+00 0. -1.
         11    1    1    2    0    0 -0.86252892059E+01  0.12520654135E+03  0.30702954016E+03  0.33168993374E+03  0.00000000000E+00 0.  1.
</event>
<event>
 7    1  0.2732144E-009  0.7762091E+02  0.7561462E-02  0.1335942E+00
         -1   -1    0    0    0  501 -0.00000000000E+00  0.00000000000E+00  0.25241032221E+02  0.25241032221E+02  0.00000000000E+00 0.  1.
          1   -1    0    0  501    0  0.00000000000E+00 -0.00000000000E+00 -0.74771364528E+03  0.74771364528E+03  0.00000000000E+00 0. -1.
         25    2    1    2    0    0  0.21433394893E+02  0.64273468744E+02 -0.54072168290E+03  0.55912250602E+03  0.12509024410E+03 0.  0.
          5    1    3    3  502    0  0.24945436327E+02  0.11720763034E+02 -0.47008962643E+03  0.47091547050E+03  0.41800000000E+01 0.  1.
         -5    1    3    3    0  502 -0.35120414347E+01  0.52552705710E+02 -0.70632056475E+02  0.88207035515E+02  0.41800000000E+01 0.  1.
        -11    1    1    2    0    0  0.32286389599E+00 -0.46322055709E+02 -0.21414232153E+02  0.51033385395E+02  0.00000000000E+00 0.  1.
         11    1    1    2    0    0 -0.21756258789E+02 -0.17951413035E+02 -0.16033669800E+03  0.16279878609E+03  0.00000000000E+00 0. -1.
</event>
<event>
 7    1  0.2732144E-009  0.8332904E+02  0.7561462E-02  0.1319861E+00
         -1   -1    0    0    0  501 -0.00000000000E+00  0.00000000000E+00  0.41915758475E+03  0.41915758475E+03  0.00000000000E+00 0.  1.
          1   -1    0    0  501    0  0.00000000000E+00 -0.00000000000E+00 -0.35080036750E+02  0.35080036750E+02  0.00000000000E+00 0. -1.
         25    2    1    2    0    0 -0.65138482390E+01 -0.46029067525E+02  0.28291641859E+03  0.31281014356E+03  0.12508949087E+03 0.  0.
          5    1    3    3  502    0 -0.53070991924E+02 -0.35339246242E+02  0.70924756399E+02  0.95463008433E+02  0.41800000000E+01 0. -1.
         -5    1    3    3    0  502  0.46557143685E+02 -0.10689821282E+02  0.21199166219E+03  0.21734713513E+03  0.41800000000E+01 0. -1.
        -11    1    1    2    0    0  0.15772353038E+02  0.12793651689E+02  0.10478671302E+03  0.10673659105E+03  0.00000000000E+00 0.  1.
         11    1    1    2    0    0 -0.92585047989E+01  0.33235415836E+02 -0.36255836117E+01  0.34690886893E+02  0.00000000000E+00 0. -1.
</event>
<event>
 7    1  0.2732144E-009  0.1079178E+03  0.7561462E-02  0.1264475E+00
         -1   -1    0    0    0  501 -0.00000000000E+00  0.00000000000E+00  0.63116963243E+03  0.63116963243E+03  0.00000000000E+00 0.  1.
          1   -1    0    0  501    0  0.00000000000E+00 -0.00000000000E+00 -0.31640282123E+02  0.31640282123E+02  0.00000000000E+00 0. -1.
         25    2    1    2    0    0  0.55728319331E+02 -0.66424323555E+02  0.27450578302E+03  0.31387597308E+03  0.12508743035E+03 0.  0.
          5    1    3    3  502    0  0.62401619956E+01 -0.21692818508E+02  0.23523816278E+03  0.23635562956E+03  0.41800000000E+01 0. -1.
         -5    1    3    3    0  502  0.49488157336E+02 -0.44731505047E+02  0.39267620236E+02  0.77520343519E+02  0.41800000000E+01 0. -1.
        -11    1    1    2    0    0 -0.71184240031E+02  0.15540464876E+02  0.16700788375E+03  0.18220959172E+03  0.00000000000E+00 0. -1.
         11    1    1    2    0    0  0.15455920700E+02  0.50883858679E+02  0.15801568353E+03  0.16672434975E+03  0.00000000000E+00 0.  1.
</event>
<event>
 7    1  0.2732144E-009  0.2586763E+03  0.7561462E-02  0.1107941E+00
         -2   -1    0    0    0  501 -0.00000000000E+00  0.00000000000E+00  0.90669767205E+02  0.90669767205E+02  0.00000000000E+00 0. -1.
          2   -1    0    0  501    0  0.00000000000E+00 -0.00000000000E+00 -0.11075871776E+04  0.11075871776E+04  0.00000000000E+00 0.  1.
         25    2    1    2    0    0  0.20160845338E+03 -0.13821914665E+03 -0.19743956722E+03  0.33820122243E+03  0.12508870122E+03 0.  0.
          5    1    3    3  502    0  0.11374476332E+03 -0.13845217125E+03 -0.93897281126E+02  0.20233894017E+03  0.41800000000E+01 0. -1.
         -5    1    3    3    0  502  0.87863690058E+02  0.23302459463E+00 -0.10354228610E+03  0.13586228226E+03  0.41800000000E+01 0. -1.
        -11    1    1    2    0    0 -0.12871737634E+03  0.11773706648E+03 -0.67206803796E+03  0.69433826586E+03  0.00000000000E+00 0.  1.
         11    1    1    2    0    0 -0.72891077044E+02  0.20482080171E+02 -0.14740980525E+03  0.16571745655E+03  0.00000000000E+00 0. -1.
</event>
<event>
 7    1  0.2732144E-009  0.1114811E+03  0.7561462E-02  0.1257851E+00
          1   -1    0    0  501    0  0.00000000000E+00  0.00000000000E+00  0.11929594272E+03  0.11929594272E+03  0.00000000000E+00 0. -1.
         -1   -1    0    0    0  501 -0.00000000000E+00 -0.00000000000E+00 -0.14778046499E+03  0.14778046499E+03  0.00000000000E+00 0.  1.
         25    2    1    2    0    0 -0.63049245759E+02  0.15985217482E+02  0.25297434071E+02  0.14324462529E+03  0.12509327694E+03 0.  0.
          5    1    3    3  502    0 -0.17177481580E+02 -0.49397526153E+02  0.34418030297E+02  0.62747547147E+02  0.41800000000E+01 0. -1.
         -5    1    3    3    0  502 -0.45871764179E+02  0.65382743636E+02 -0.91205962257E+01  0.80497078144E+02  0.41800000000E+01 0. -1.
        -11    1    1    2    0    0  0.29047216479E+02 -0.39606233223E+02  0.76932980248E+01  0.49715001053E+02  0.00000000000E+00 0. -1.
         11    1    1    2    0    0  0.34002029281E+02  0.23621015740E+02 -0.61475254373E+02  0.74116781366E+02  0.00000000000E+00 0.  1.
</event>
<event>
 7    1  0.2732144E-009  0.1047782E+03  0.7561462E-02  0.1270557E+00
          2   -1    0    0  501    0  0.00000000000E+00  0.00000000000E+00  0.14246655883E+04  0.14246655883E+04  0.00000000000E+00 0. -1.
         -2   -1    0    0    0  501 -0.00000000000E+00 -0.00000000000E+00 -0.14070986665E+02  0.14070986665E+02  0.00000000000E+00 0.  1.
         25    2    1    2    0    0  0.34669844570E+02  0.75637654519E+02  0.96214830842E+03  0.97380715148E+03  0.12509175822E+03 0.  0.
          5    1    3    3  502    0  0.18434957081E+02  0.35331670269E+01  0.16712712472E+02  0.25477795626E+02  0.41800000000E+01 0. -1.
         -5    1    3    3    0  502  0.16234887490E+02  0.72104487492E+02  0.94543559595E+03  0.94832935586E+03  0.41800000000E+01 0. -1.
        -11    1    1    2    0    0  0.17521303246E+02 -0.58958350768E+02  0.30984982217E+03  0.31589554522E+03  0.00000000000E+00 0. -1.
         11    1    1    2    0    0 -0.52191147817E+02 -0.16679303751E+02  0.13859647106E+03  0.14903387828E+03  0.00000000000E+00 0.  1.
</event>
<event>
 7    1  0.2732144E-009  0.7677292E+02  0.7561462E-02  0.1338467E+00
          2   -1    0    0  501    0  0.00000000000E+00  0.00000000000E+00  0.80119074953E+03  0.80119074953E+03  0.00000000000E+00 0. -1.
         -2   -1    0    0    0  501 -0.00000000000E+00 -0.00000000000E+00 -0.17756595956E+02  0.17756595956E+02  0.00000000000E+00 0.  1.
         25    2    1    2    0    0 -0.33981159310E+02  0.37487496625E+02  0.52952103705E+03  0.54644326437E+03  0.12509069073E+03 0.  0.
          5    1    3    3  502    0 -0.14591093903E+02  0.61149462830E+02  0.11801325652E+03  0.13377876490E+03  0.41800000000E+01 0. -1.
         -5    1    3    3    0  502 -0.19390065407E+02 -0.23661966205E+02  0.41150778053E+03  0.41266449947E+03  0.41800000000E+01 0. -1.
        -11    1    1    2    0    0 -0.53951626841E+01 -0.10871947404E+02 -0.19250167928E+01  0.12288722895E+02  0.00000000000E+00 0.  1.
         11    1    1    2    0    0  0.39376321994E+02 -0.26615549222E+02  0.25583813331E+03  0.26021535822E+03  0.00000000000E+00 0. -1.
</event>
<event>
 7    1  0.2732144E-009  0.1032485E+03  0.7561462E-02  0.1273609E+00
          2   -1    0    0  501    0  0.00000000000E+00  0.00000000000E+00  0.79761842116E+03  0.79761842116E+03  0.00000000000E+00 0. -1.
         -2   -1    0    0    0  501 -0.00000000000E+00 -0.00000000000E+00 -0.23917788875E+02  0.23917788875E+02  0.00000000000E+00 0.  1.
         25    2    1    2    0    0  0.60435933567E+02  0.43956970166E+02  0.30160407643E+03  0.33495871422E+03  0.12509038341E+03 0.  0.
          5    1    3    3  502    0  0.19802645696E+02 -0.10322064900E+02 -0.29594412650E+01  0.22911143423E+02  0.41800000000E+01 0. -1.
         -5    1    3    3    0  502  0.40633287871E+02  0.54279035066E+02  0.30456351770E+03  0.31204757080E+03  0.41800000000E+01 0. -1.
        -11    1    1    2    0    0  0.15553901034E+02  0.13486911874E+02  0.54621876716E+02  0.58372682355E+02  0.00000000000E+00 0.  1.
         11    1    1    2    0    0 -0.75989834601E+02 -0.57443882040E+02  0.41747467914E+03  0.42820481346E+03  0.00000000000E+00 0. -1.
</event>
<event>
 7    1  0.2732144E-009  0.8950252E+02  0.7561462E-02  0.1304061E+00
          2   -1    0    0  501    0  0.00000000000E+00  0.00000000000E+00  0.14399929510E+03  0.14399929510E+03  0.00000000000E+00 0.  1.
         -2   -1    0    0    0  501 -0.00000000000E+00 -0.00000000000E+00 -0.85680048422E+02  0.85680048422E+02  0.00000000000E+00 0. -1.
         25    2    1    2    0    0  0.31107475235E+02 -0.35919398527E+01  0.42487298605E+02  0.13578888354E+03  0.12511144353E+03 0.  0.
          5    1    3    3  502    0 -0.35430202242E+02 -0.34567410869E+02  0.37247383395E+02  0.62089009453E+02  0.41800000000E+01 0. -1.
         -5    1    3    3    0  502  0.66537677476E+02  0.30975471016E+02  0.52399152097E+01  0.73699874084E+02  0.41800000000E+01 0. -1.
        -11    1    1    2    0    0 -0.24017894888E+02 -0.19954316944E+02  0.45607944782E+02  0.55273127890E+02  0.00000000000E+00 0.  1.
         11    1    1    2    0    0 -0.70895803468E+01  0.23546256797E+02 -0.29775996704E+02  0.38617332098E+02  0.00000000000E+00 0. -1.
</event>
<event>
 7    1  0.2732144E-009  0.1009142E+03  0.7561462E-02  0.1278385E+00
         -2   -1    0    0    0  501 -0.00000000000E+00  0.00000000000E+00  0.22870879218E+02  0.22870879218E+02  0.00000000000E+00 0.  1.
          2   -1    0    0  501    0  0.00000000000E+00 -0.00000000000E+00 -0.61927574994E+03  0.61927574994E+03  0.00000000000E+00 0. -1.
         25    2    1    2    0    0 -0.32193564693E+02 -0.22309626149E+02 -0.41138703755E+03  0.43176498573E+03  0.12509022027E+03 0.  0.
          5    1    3    3  502    0 -0.44750340700E+02 -0.62041210830E+02 -0.16594045572E+03  0.18277147502E+03  0.41800000000E+01 0.  1.
         -5    1    3    3    0  502  0.12556776007E+02  0.39731584681E+02 -0.24544658183E+03  0.24899351071E+03  0.41800000000E+01 0.  1.
        -11    1    1    2    0    0  0.39540211395E+02  0.44756923680E+02 -0.65858946263E+02  0.88904506845E+02  0.00000000000E+00 0.  1.
         11    1    1    2    0    0 -0.73466467019E+01 -0.22447297531E+02 -0.11915888691E+03  0.12147713659E+03  0.00000000000E+00 0. -1.
</event>
<event>
 7    1  0.2732144E-009  0.1304234E+03  0.7561462E-02  0.1226829E+00
         -1   -1    0    0    0  501 -0.00000000000E+00  0.00000000000E+00  0.11651967007E+02  0.11651967007E+02  0.00000000000E+00 0.  1.
          1   -1    0    0  501    0  0.00000000000E+00 -0.00000000000E+00 -0.18832612549E+04  0.18832612549E+04  0.00000000000E+00 0. -1.
         25    2    1    2    0    0  0.33347981892E+02 -0.78638757317E+02 -0.13649442166E+04  0.13733234533E+04  0.12509376797E+03 0.  0.
          5    1    3    3  502    0 -0.42402684751E+02 -0.25738341217E+02 -0.27555106846E+03  0.28001127408E+03  0.41800000000E+01 0. -1.
         -5    1    3    3    0  502  0.75750666643E+02 -0.52900416100E+02 -0.10893931482E+04  0.10933121792E+04  0.41800000000E+01 0. -1.
        -11    1    1    2    0    0 -0.54616050561E+02  0.23455247105E+02 -0.17844606134E+03  0.18808524239E+03  0.00000000000E+00 0.  1.
         11    1    1    2    0    0  0.21268068669E+02  0.55183510212E+02 -0.32821900997E+03  0.33350452628E+03  0.00000000000E+00 0. -1.
</event>
<event>
 7    1  0.2732144E-009  0.8973865E+02  0.7561462E-02  0.1303486E+00
         -4   -1    0    0    0  501 -0.00000000000E+00  0.00000000000E+00  0.14312840385E+02  0.14312840385E+02  0.00000000000E+00 0.  1.
          4   -1    0    0  501    0  0.00000000000E+00 -0.00000000000E+00 -0.11503426835E+04  0.11503426835E+04  0.00000000000E+00 0. -1.
         25    2    1    2    0    0 -0.13054866738E+02 -0.61333619215E+02 -0.50227788635E+03  0.52140467236E+03  0.12509002698E+03 0.  0.
          5    1    3    3  502    0  0.89411224771E+01 -0.24252332532E+02 -0.46043495479E+03  0.46117885825E+03  0.41800000000E+01 0.  1.
         -5    1    3    3    0  502 -0.21995989216E+02 -0.37081286683E+02 -0.41842931563E+02  0.60225814112E+02  0.41800000000E+01 0.  1.
        -11    1    1    2    0    0  0.34066857921E+02 -0.10087658347E+02 -0.18886276266E+03  0.19217558320E+03  0.00000000000E+00 0.  1.
         11    1    1    2    0    0 -0.21011991182E+02  0.71421277561E+02 -0.44488919414E+03  0.45107526836E+03  0.00000000000E+00 0. -1.
</event>
<event>
 7    1  0.2732144E-009  0.1052038E+03  0.7561462E-02  0.1269719E+00
         -1   -1    0    0    0  501 -0.00000000000E+00  0.00000000000E+00  0.60210669124E+02  0.60210669124E+02  0.00000000000E+00 0.  1.
          1   -1    0    0  501    0  0.00000000000E+00 -0.00000000000E+00 -0.26618442137E+03  0.26618442137E+03  0.00000000000E+00 0. -1.
         25    2    1    2    0    0 -0.15135251739E+02 -0.62476079788E+02 -0.12191289623E+03  0.18612449960E+03  0.12508892313E+03 0.  0.
          5    1    3    3  502    0 -0.39946119811E+02  0.24424613703E+02 -0.23879263162E+02  0.52725191812E+02  0.41800000000E+01 0.  1.
         -5    1    3    3    0  502  0.24810868072E+02 -0.86900693491E+02 -0.98033633073E+02  0.13339930778E+03  0.41800000000E+01 0.  1.
        -11    1    1    2    0    0  0.25196118674E+02  0.31360451151E+02  0.93502380930E+01  0.41300717246E+02  0.00000000000E+00 0. -1.
         11    1    1    2    0    0 -0.10060866935E+02  0.31115628636E+02 -0.93411094109E+02  0.98969873656E+02  0.00000000000E+00 0.  1.
</event>
<event>
 7    1  0.2877164E-009  0.1530596E+03  0.7561462E-02  0.1196763E+00
          1   -1    0    0  501    0  0.00000000000E+00  0.00000000000E+00  0.53559663484E+03  0.53559663484E+03  0.00000000000E+00 0. -1.
         -1   -1    0    0    0  501 -0.00000000000E+00 -0.00000000000E+00 -0.55528156074E+02  0.55528156074E+02  0.00000000000E+00 0.  1.
         25    2    1    2    0    0  0.55727776152E+02  0.11423647605E+03  0.18503032528E+03  0.25698073849E+03  0.12508925289E+03 0.  0.
          5    1    3    3  502    0  0.53220272957E+02 -0.69748620068E+01  0.35754672896E+02  0.64629058383E+02  0.41800000000E+01 0. -1.
         -5    1    3    3    0  502  0.25075031955E+01  0.12121133806E+03  0.14927565238E+03  0.19235168011E+03  0.41800000000E+01 0. -1.
        -11    1    1    2    0    0 -0.49420524301E+02 -0.66672162687E+02  0.85390801456E+02  0.11907625487E+03  0.00000000000E+00 0.  1.
         11    1    1    2    0    0 -0.63072518509E+01 -0.47564313367E+02  0.20964735203E+03  0.21506779756E+03  0.00000000000E+00 0. -1.
</event>
<event>
 7    1  0.2732144E-009  0.1186812E+03  0.7561462E-02  0.1245289E+00
         -1   -1    0    0    0  501 -0.00000000000E+00  0.00000000000E+00  0.23007198754E+03  0.23007198754E+03  0.00000000000E+00 0.  1.
          1   -1    0    0  501    0  0.00000000000E+00 -0.00000000000E+00 -0.73137451565E+02  0.73137451565E+02  0.00000000000E+00 0. -1.
         25    2    1    2    0    0 -0.70647550880E+02 -0.39340796822E+01  0.91096675903E+02  0.17015420990E+03  0.12508915764E+03 0.  0.
          5    1    3    3  502    0  0.32456763473E+02 -0.15583999203E+02  0.79104810749E+01  0.37099199953E+02  0.41800000000E+01 0.  1.
         -5    1    3    3    0  502 -0.10310431435E+03  0.11649919521E+02  0.83186194828E+02  0.13305500995E+03  0.41800000000E+01 0.  1.
        -11    1    1    2    0    0  0.32152996338E+01  0.26094283881E+02  0.55386187915E+02  0.61309702452E+02  0.00000000000E+00 0.  1.
         11    1    1    2    0    0  0.67432251246E+02 -0.22160204199E+02  0.10451672160E+02  0.71745526754E+02  0.00000000000E+00 0. -1.
</event>
<event>
 7    1  0.2732144E-009  0.1177427E+03  0.7561462E-02  0.1246868E+00
         -1   -1    0    0    0  501 -0.00000000000E+00  0.00000000000E+00  0.35278379384E+02  0.35278379384E+02  0.00000000000E+00 0.  1.
          1   -1    0    0  501    0  0.00000000000E+00 -0.00000000000E+00 -0.61557830695E+03  0.61557830695E+03  0.00000000000E+00 0. -1.
         25    2    1    2    0    0  0.54827684040E+02 -0.43670507098E+02 -0.48101439170E+03  0.50193200328E+03  0.12509077811E+03 0.  0.
          5    1    3    3  502    0  0.69365486995E+02  0.21110221909E+02 -0.18991659214E+03  0.20332977309E+03  0.41800000000E+01 0.  1.
         -5    1    3    3    0  502 -0.14537802955E+02 -0.64780729007E+02 -0.29109779956E+03  0.29860223019E+03  0.41800000000E+01 0.  1.
        -11    1    1    2    0    0 -0.49836662257E+02  0.60729637334E+02 -0.42286129282E+02  0.89218263182E+02  0.00000000000E+00 0.  1.
         11    1    1    2    0    0 -0.49910217836E+01 -0.17059130236E+02 -0.56999406587E+02  0.59706419873E+02  0.00000000000E+00 0. -1.
</event>
<event>
 7    1  0.2732144E-009  0.1678127E+03  0.7561462E-02  0.1180148E+00
         -1   -1    0    0    0  501 -0.00000000000E+00  0.00000000000E+00  0.24284271736E+02  0.24284271736E+02  0.00000000000E+00 0.  1.
          1   -1    0    0  501    0  0.00000000000E+00 -0.00000000000E+00 -0.16184911143E+04  0.16184911143E+04  0.00000000000E+00 0. -1.
         25    2    1    2    0    0 -0.48473177001E+02  0.15250622363E+03 -0.10060469515E+04  0.10263459891E+04  0.12509126161E+03 0.  0.
          5    1    3    3  502    0 -0.63116945504E+02  0.11477446312E+03 -0.44685456933E+03  0.46567521378E+03  0.41800000000E+01 0.  1.
         -5    1    3    3    0  502  0.14643768502E+02  0.37731760510E+02 -0.55919238212E+03  0.56067077535E+03  0.41800000000E+01 0.  1.
        -11    1    1    2    0    0 -0.57466703423E+01 -0.13030683492E+02 -0.61906819570E+01  0.15528923832E+02  0.00000000000E+00 0.  1.
         11    1    1    2    0    0  0.54219847344E+02 -0.13947554014E+03 -0.58196920917E+03  0.60090047309E+03  0.00000000000E+00 0. -1.
</event>
<event>
 7    1  0.2732144E-009  0.7151906E+02  0.7561462E-02  0.1355002E+00
          2   -1    0    0  501    0  0.00000000000E+00  0.00000000000E+00  0.92834409590E+02  0.92834409590E+02  0.00000000000E+00 0.  1.
         -2   -1    0    0    0  501 -0.00000000000E+00 -0.00000000000E+00 -0.74080811735E+03  0.74080811735E+03  0.00000000000E+00 0. -1.
         25    2    1    2    0    0  0.26873367836E+02 -0.35897890730E+02 -0.70542609131E+03  0.71783315511E+03  0.12509049452E+03 0.  0.
          5    1    3    3  502    0 -0.12410430706E+02 -0.11834049255E+02 -0.88900713868E+01  0.19762825743E+02  0.41800000000E+01 0. -1.
         -5    1    3    3    0  502  0.39283798541E+02 -0.24063841475E+02 -0.69653601992E+03  0.69807032937E+03  0.41800000000E+01 0. -1.
        -11    1    1    2    0    0 -0.36564120091E+02 -0.51759606512E+01 -0.81385857531E+01  0.37814838685E+02  0.00000000000E+00 0. -1.
         11    1    1    2    0    0  0.96907522550E+01  0.41073851381E+02  0.65590969302E+02  0.77994533145E+02  0.00000000000E+00 0.  1.
</event>
<event>
 7    1  0.2732144E-009  0.9948958E+02  0.7561462E-02  0.1281373E+00
         -1   -1    0    0    0  501 -0.00000000000E+00  0.00000000000E+00  0.33959774840E+03  0.33959774840E+03  0.00000000000E+00 0.  1.
          1   -1    0    0  501    0  0.00000000000E+00 -0.00000000000E+00 -0.93413710701E+02  0.93413710701E+02  0.00000000000E+00 0. -1.
         25    2    1    2    0    0 -0.37352640648E+02  0.41495566164E+02 -0.26361834193E+02  0.13949444293E+03  0.12508657615E+03 0.  0.
          5    1    3    3  502    0 -0.23865687897E+02  0.61180450558E+02  0.34276950699E+02  0.74195689487E+02  0.41800000000E+01 0. -1.
         -5    1    3    3    0  502 -0.13486952752E+02 -0.19684884393E+02 -0.60638784892E+02  0.65298753444E+02  0.41800000000E+01 0. -1.
        -11    1    1    2    0    0 -0.17759799475E+02 -0.50114287373E+02  0.13180746730E+03  0.14212691762E+03  0.00000000000E+00 0. -1.
         11    1    1    2    0    0  0.55112440124E+02  0.86187212090E+01  0.14073840459E+03  0.15139009855E+03  0.00000000000E+00 0.  1.
</event>
<event>
 7    1  0.2732144E-009  0.1458645E+03  0.7561462E-02  0.1205649E+00
          1   -1    0    0  501    0  0.00000000000E+00  0.00000000000E+00  0.27182201065E+03  0.27182201065E+03  0.00000000000E+00 0. -1.
         -1   -1    0    0    0  501 -0.00000000000E+00 -0.00000000000E+00 -0.12314429797E+03  0.12314429797E+03  0.00000000000E+00 0.  1.
         25    2    1    2    0    0  0.11144850782E+03  0.34106942765E+02  0.17558843129E+03  0.24507639908E+03  0.12508833177E+03 0.  0.
          5    1    3    3  502    0  0.12841264269E+03 -0.44478887278E+01  0.12872017022E+03  0.18192290988E+03  0.41800000000E+01 0. -1.
         -5    1    3    3    0  502 -0.16964134867E+02  0.38554831492E+02  0.46868261062E+02  0.63153489200E+02  0.41800000000E+01 0. -1.
        -11    1    1    2    0    0 -0.10226963335E+02  0.61225736447E+01  0.26143932446E+02  0.28732940866E+02  0.00000000000E+00 0. -1.
         11    1    1    2    0    0 -0.10122154449E+03 -0.40229516409E+02 -0.53054651046E+02  0.12115696867E+03  0.00000000000E+00 0.  1.
</event>
<event>
 7    1  0.2732144E-009  0.2030231E+03  0.7561462E-02  0.1147213E+00
          2   -1    0    0  501    0  0.00000000000E+00  0.00000000000E+00  0.43506355716E+03  0.43506355716E+03  0.00000000000E+00 0.  1.
         -2   -1    0    0    0  501 -0.00000000000E+00 -0.00000000000E+00 -0.95657198218E+02  0.95657198218E+02  0.00000000000E+00 0. -1.
         25    2    1    2    0    0  0.84637791341E+02 -0.15123383170E+03  0.18186465895E+03  0.28063768239E+03  0.12509007566E+03 0.  0.
          5    1    3    3  502    0  0.14275561500E+02  0.21378229422E+02  0.33069039478E+02  0.42093397598E+02  0.41800000000E+01 0. -1.
         -5    1    3    3    0  502  0.70362229841E+02 -0.17261206112E+03  0.14879561947E+03  0.23854428479E+03  0.41800000000E+01 0. -1.
        -11    1    1    2    0    0 -0.24812848090E+01  0.92566847726E+02  0.85753482408E+02  0.12620791503E+03  0.00000000000E+00 0.  1.
         11    1    1    2    0    0 -0.82156506532E+02  0.58666983973E+02  0.71788217581E+02  0.12387515795E+03  0.00000000000E+00 0. -1.
</event>
<event>
 7    1  0.2732144E-009  0.1195538E+03  0.7561462E-02  0.1243835E+00
         -2   -1    0    0    0  501 -0.00000000000E+00  0.00000000000E+00  0.74042169828E+02  0.74042169828E+02  0.00000000000E+00 0.  1.
          2   -1    0    0  501    0  0.00000000000E+00 -0.00000000000E+00 -0.20844865165E+03  0.20844865165E+03  0.00000000000E+00 0. -1.
         25    2    1    2    0    0 -0.46764247736E+02  0.35799112785E+02 -0.60196524509E+02  0.15079561231E+03  0.12508886355E+03 0.  0.
          5    1    3    3  502    0  0.28263162179E+02  0.51928362229E+02 -0.13236987870E+02  0.60729328895E+02  0.41800000000E+01 0.  1.
         -5    1    3    3    0  502 -0.75027409914E+02 -0.16129249444E+02 -0.46959536638E+02  0.90066283410E+02  0.41800000000E+01 0.  1.
        -11    1    1    2    0    0  0.68754404857E+02 -0.41444977137E+02 -0.73710026850E+02  0.10898634031E+03  0.00000000000E+00 0. -1.
         11    1    1    2    0    0 -0.21990157121E+02  0.56458643515E+01 -0.49993046616E+00  0.22708868861E+02  0.00000000000E+00 0.  1.
</event>
<event>
 6    1  0.2732144E-009  0.1065433E+03  0.7561462E-02  0.1267109E+00
          2   -1    0    0  501    0  0.00000000000E+00  0.00000000000E+00  0.11665327744E+03  0.11665327744E+03  0.00000000000E+00 0. -1.
         -2   -1    0    0    0  501 -0.00000000000E+00 -0.00000000000E+00 -0.12065556880E+03  0.12065556880E+03  0.00000000000E+00 0.  1.
          5    1    1    2  502    0  0.69157581800E+02  0.35662152417E+02 -0.44651249986E+02  0.89809613967E+02  0.41800000000E+01 0.  1.
         -5    1    1    2    0  502 -0.26666409046E+02 -0.17932468983E+02  0.30053995082E+02  0.44197124743E+02  0.41800000000E+01 0.  1.
        -11    1    1    2    0    0 -0.67908585494E+02 -0.30346622323E+02  0.76792754940E+01  0.74776097400E+02  0.00000000000E+00 0. -1.
         11    1    1    2    0    0  0.25417412740E+02  0.12616938888E+02  0.29156880542E+01  0.28526010133E+02  0.00000000000E+00 0.  1.
</event>
<event>
 7    1  0.2732144E-009  0.9830437E+02  0.7561462E-02  0.1283903E+00
         -1   -1    0    0    0  501 -0.00000000000E+00  0.00000000000E+00  0.10963708839E+03  0.10963708839E+03  0.00000000000E+00 0.  1.
          1   -1    0    0  501    0  0.00000000000E+00 -0.00000000000E+00 -0.46056368208E+03  0.46056368208E+03  0.00000000000E+00 0. -1.
         25    2    1    2    0    0  0.64038580785E+02 -0.28040124101E+02 -0.41493006952E+03  0.43897882572E+03  0.12509299923E+03 0.  0.
          5    1    3    3  502    0  0.45125425150E+02 -0.66087067060E+02 -0.14478608512E+03  0.16548198474E+03  0.41800000000E+01 0. -1.
         -5    1    3    3    0  502  0.18913155634E+02  0.38046942960E+02 -0.27014398440E+03  0.27349684099E+03  0.41800000000E+01 0. -1.
        -11    1    1    2    0    0 -0.11160396300E+02  0.16071394837E+02  0.73606074018E+02  0.76162315550E+02  0.00000000000E+00 0.  1.
         11    1    1    2    0    0 -0.52878184484E+02  0.11968729264E+02 -0.96025981908E+01  0.55059629190E+02  0.00000000000E+00 0. -1.
</event>
<event>
 7    1  0.2732144E-009  0.2166414E+03  0.7561462E-02  0.1136412E+00
          2   -1    0    0  501    0  0.00000000000E+00  0.00000000000E+00  0.43412924517E+03  0.43412924517E+03  0.00000000000E+00 0.  1.
         -2   -1    0    0    0  501 -0.00000000000E+00 -0.00000000000E+00 -0.14098186264E+03  0.14098186264E+03  0.00000000000E+00 0. -1.
         25    2    1    2    0    0 -0.19508082872E+03 -0.21832400087E+02  0.30002646432E+02  0.23469347100E+03  0.12509069953E+03 0.  0.
          5    1    3    3  502    0 -0.21210009808E+03 -0.13203032821E+02  0.32420138197E+02  0.21501002172E+03  0.41800000000E+01 0. -1.
         -5    1    3    3    0  502  0.17019269360E+02 -0.86293672661E+01 -0.24174917655E+01  0.19683449276E+02  0.41800000000E+01 0. -1.
        -11    1    1    2    0    0  0.68134448299E+02  0.28997317004E+02  0.41479234709E+02  0.84874462299E+02  0.00000000000E+00 0. -1.
         11    1    1    2    0    0  0.12694638042E+03 -0.71649169175E+01  0.22166550139E+03  0.25554317451E+03  0.00000000000E+00 0.  1.
</event>
<event>
 7    1  0.2732144E-009  0.8737315E+02  0.7561462E-02  0.1309341E+00
         -3   -1    0    0    0  501 -0.00000000000E+00  0.00000000000E+00  0.41443788470E+02  0.41443788470E+02  0.00000000000E+00 0.  1.
          3   -1    0    0  501    0  0.00000000000E+00 -0.00000000000E+00 -0.42605047548E+03  0.42605047548E+03  0.00000000000E+00 0. -1.
         25    2    1    2    0    0  0.23684166883E+02  0.17452546950E+02 -0.33408273632E+03  0.35794582428E+03  0.12509359400E+03 0.  0.
          5    1    3    3  502    0  0.20633857961E+02 -0.40807367165E+02 -0.25760698470E+03  0.26166740010E+03  0.41800000000E+01 0.  1.
         -5    1    3    3    0  502  0.30503089222E+01  0.58259914116E+02 -0.76475751614E+02  0.96278424178E+02  0.41800000000E+01 0.  1.
        -11    1    1    2    0    0  0.78653373994E+00 -0.38229512468E+02 -0.64144629493E+02  0.74676955962E+02  0.00000000000E+00 0. -1.
         11    1    1    2    0    0 -0.24470700623E+02  0.20776965518E+02  0.13620678798E+02  0.34871483709E+02  0.00000000000E+00 0.  1.
</event>
<event>
 7    1  0.3002684E-009  0.1804993E+03  0.7561462E-02  0.1167321E+00
         -1   -1    0    0    0  501 -0.00000000000E+00  0.00000000000E+00  0.19188455927E+02  0.19188455927E+02  0.00000000000E+00 0.  1.
          1   -1    0    0  501    0  0.00000000000E+00 -0.00000000000E+00 -0.17162543479E+04  0.17162543479E+04  0.00000000000E+00 0. -1.
         25    2    1    2    0    0 -0.21783969673E+02  0.14271843226E+03 -0.96034840835E+03  0.97916270629E+03  0.12508975866E+03 0.  0.
          5    1    3    3  502    0  0.27586614918E+02 -0.10419111250E+02 -0.17049070719E+03  0.17307262302E+03  0.41800000000E+01 0.  1.
         -5    1    3    3    0  502 -0.49370584591E+02  0.15313754351E+03 -0.78985770116E+03  0.80609008326E+03  0.41800000000E+01 0.  1.
        -11    1    1    2    0    0  0.48912100078E+02 -0.37585892444E+02 -0.29907770135E+03  0.30537282834E+03  0.00000000000E+00 0. -1.
         11    1    1    2    0    0 -0.27128130405E+02 -0.10513253982E+03 -0.43763978228E+03  0.45090726920E+03  0.00000000000E+00 0.  1.
</event>
<event>
 7    1  0.3889179E-009  0.1028228E+03  0.7561462E-02  0.1274470E+00
         -2   -1    0    0    0  501 -0.00000000000E+00  0.00000000000E+00  0.44204856913E+02  0.44204856913E+02  0.00000000000E+00 0.  1.
          2   -1    0    0  501    0  0.00000000000E+00 -0.00000000000E+00 -0.45221880838E+03  0.45221880838E+03  0.00000000000E+00 0. -1.
         25    2    1    2    0    0 -0.76293954133E+02  0.48606545713E+02 -0.22235004105E+03  0.27068624218E+03  0.12509251467E+03 0.  0.
          5    1    3    3  502    0 -0.69491943605E+02  0.42103412049E+02 -0.44878024834E+02  0.92915752406E+02  0.41800000000E+01 0. -1.
         -5    1    3    3    0  502 -0.68020105275E+01  0.65031336634E+01 -0.17747201622E+03  0.17777048978E+03  0.41800000000E+01 0. -1.
        -11    1    1    2    0    0  0.73752940305E+02 -0.89983702321E+01 -0.65018870529E+02  0.98731557241E+02  0.00000000000E+00 0.  1.
         11    1    1    2    0    0  0.25410138275E+01 -0.39608175481E+02 -0.12064503989E+03  0.12700586587E+03  0.00000000000E+00 0. -1.
</event>
<event>
 7    1  0.2732144E-009  0.8639558E+02  0.7561462E-02  0.1311823E+00
         -2   -1    0    0    0  501 -0.00000000000E+00  0.00000000000E+00  0.17687108438E+03  0.17687108438E+03  0.00000000000E+00 0. -1.
          2   -1    0    0  501    0  0.00000000000E+00 -0.00000000000E+00 -0.90652000002E+02  0.90652000002E+02  0.00000000000E+00 0.  1.
         25    2    1    2    0    0 -0.79443674356E+01 -0.54232636531E+02  0.86301347659E+02  0.16155386870E+03  0.12508971998E+03 0.  0.
          5    1    3    3  502    0 -0.21670704806E+02 -0.49794744881E+02  0.11606823549E+03  0.12821249454E+03  0.41800000000E+01 0.  1.
         -5    1    3    3    0  502  0.13726337370E+02 -0.44378916503E+01 -0.29766887833E+02  0.33341374165E+02  0.41800000000E+01 0.  1.
        -11    1    1    2    0    0  0.45364661889E+02  0.12092627832E+02 -0.11796557178E+02  0.48408087727E+02  0.00000000000E+00 0.  1.
         11    1    1    2    0    0 -0.37420294453E+02  0.42140008699E+02  0.11714293898E+02  0.57561127957E+02  0.00000000000E+00 0. -1.
</event>
<event>
 7    1  0.2732144E-009  0.1162052E+03  0.7561462E-02  0.1249492E+00
         -1   -1    0    0    0  501 -0.00000000000E+00  0.00000000000E+00  0.15603861371E+03  0.15603861371E+03  0.00000000000E+00 0.  1.
          1   -1    0    0  501    0  0.00000000000E+00 -0.00000000000E+00 -0.13514216821E+03  0.13514216821E+03  0.00000000000E+00 0. -1.
         25    2    1    2    0    0 -0.66221185027E+02  0.58861338472E+02  0.48246223547E+02  0.16071312746E+03  0.12510439137E+03 0.  0.
          5    1    3    3  502    0 -0.94591572975E+02  0.35011296727E+02  0.15659533915E+01  0.10096178082E+03  0.41800000000E+01 0.  1.
         -5    1    3    3    0  502  0.28370387949E+02  0.23850041745E+02  0.46680270155E+02  0.59751346641E+02  0.41800000000E+01 0.  1.
        -11    1    1    2    0    0  0.43691844978E+01 -0.21419140377E+02  0.30740266768E+02  0.37720463261E+02  0.00000000000E+00 0.  1.
         11    1    1    2    0    0  0.61852000529E+02 -0.37442198095E+02 -0.58090044822E+02  0.92747191197E+02  0.00000000000E+00 0. -1.
</event>
<event>
 7    1  0.2732144E-009  0.1142062E+03  0.7561462E-02  0.1252973E+00
          1   -1    0    0  501    0  0.00000000000E+00  0.00000000000E+00  0.18973445682E+03  0.18973445682E+03  0.00000000000E+00 0. -1.
         -1   -1    0    0    0  501 -0.00000000000E+00 -0.00000000000E+00 -0.10257036150E+03  0.10257036150E+03  0.00000000000E+00 0.  1.
         25    2    1    2    0    0  0.49100227511E+02  0.63797132948E+02  0.84546432737E+02  0.17110450235E+03  0.12509094660E+03 0.  0.
          5    1    3    3  502    0  0.38568827924E+02  0.88739475112E+02  0.17153602664E+02  0.98356328799E+02  0.41800000000E+01 0. -1.
         -5    1    3    3    0  502  0.10531399587E+02 -0.24942342164E+02  0.67392830073E+02  0.72748173552E+02  0.41800000000E+01 0. -1.
        -11    1    1    2    0    0 -0.60464623556E+01  0.14001344192E+02 -0.23954793499E+02  0.28397701981E+02  0.00000000000E+00 0.  1.
         11    1    1    2    0    0 -0.43053765155E+02 -0.77798477140E+02  0.26572456083E+02  0.92802613980E+02  0.00000000000E+00 0. -1.
</event>
<event>
 7    1  0.2732144E-009  0.1040489E+03  0.7561462E-02  0.1272005E+00
          2   -1    0    0  501    0  0.00000000000E+00  0.00000000000E+00  0.14747252887E+04  0.14747252887E+04  0.00000000000E+00 0. -1.
         -2   -1    0    0    0  501 -0.00000000000E+00 -0.00000000000E+00 -0.11907491319E+02  0.11907491319E+02  0.00000000000E+00 0.  1.
         25    2    1    2    0    0 -0.54258054680E+02  0.37500815882E+02  0.96777366824E+03  0.97805101778E+03  0.12509065812E+03 0.  0.
          5    1    3    3  502    0 -0.25485386947E+02 -0.16347628910E+02  0.77913403565E+03  0.77973333122E+03  0.41800000000E+01 0. -1.
         -5    1    3    3    0  502 -0.28772667733E+02  0.53848444792E+02  0.18863963259E+03  0.19831768655E+03  0.41800000000E+01 0. -1.
        -11    1    1    2    0    0 -0.88258186998E+01 -0.51055455933E+02  0.23630594535E+03  0.24191952063E+03  0.00000000000E+00 0.  1.
         11    1    1    2    0    0  0.63083873380E+02  0.13554640051E+02  0.25873818377E+03  0.26666224159E+03  0.00000000000E+00 0. -1.
</event>
<event>
 7    1  0.2732144E-009  0.1881787E+03  0.7561462E-02  0.1160114E+00
          1   -1    0    0  501    0  0.00000000000E+00  0.00000000000E+00  0.13048921366E+04  0.13048921366E+04  0.00000000000E+00 0. -1.
         -1   -1    0    0    0  501 -0.00000000000E+00 -0.00000000000E+00 -0.29217466406E+02  0.29217466406E+02  0.00000000000E+00 0.  1.
         25    2    1    2    0    0  0.16174828987E+02 -0.15979976898E+03  0.59088895114E+03  0.62497583503E+03  0.12508976990E+03 0.  0.
          5    1    3    3  502    0 -0.14583003384E+02 -0.16136008026E+03  0.55138782684E+03  0.57471362214E+03  0.41800000000E+01 0. -1.
         -5    1    3    3    0  502  0.30757832370E+02  0.15603112775E+01  0.39501124301E+02  0.50262212888E+02  0.41800000000E+01 0. -1.
        -11    1    1    2    0    0  0.35701627792E+02  0.84843156786E+02  0.38129822851E+03  0.39225158578E+03  0.00000000000E+00 0. -1.
         11    1    1    2    0    0 -0.51876456779E+02  0.74956612193E+02  0.30348749058E+03  0.31688218223E+03  0.00000000000E+00 0.  1.
</event>
<event>
 7    1  0.2732144E-009  0.1523549E+03  0.7561462E-02  0.1197609E+00
          2   -1    0    0  501    0  0.00000000000E+00  0.00000000000E+00  0.40646307226E+03  0.40646307226E+03  0.00000000000E+00 0. -1.
         -2   -1    0    0    0  501 -0.00000000000E+00 -0.00000000000E+00 -0.82156828216E+02  0.82156828216E+02  0.00000000000E+00 0.  1.
         25    2    1    2    0    0 -0.52617335548E+02  0.10552516532E+03  0.28661133849E+03  0.33421447722E+03  0.12509641450E+03 0.  0.
          5    1    3    3  502    0  0.29568049316E+02  0.17043817908E+02  0.16149374495E+02  0.37987313222E+02  0.41800000000E+01 0.  1.
         -5    1    3    3    0  502 -0.82185384865E+02  0.88481347408E+02  0.27046196399E+03  0.29622716400E+03  0.41800000000E+01 0.  1.
        -11    1    1    2    0    0  0.61242485424E+00 -0.96750213512E+02  0.20190423671E+02  0.98836390499E+02  0.00000000000E+00 0. -1.
         11    1    1    2    0    0  0.52004910694E+02 -0.87749518043E+01  0.17504481887E+02  0.55569032758E+02  0.00000000000E+00 0.  1.
</event>
<event>
 7    1  0.2732144E-009  0.1356284E+03  0.7561462E-02  0.1219335E+00
         -3   -1    0    0    0  501 -0.00000000000E+00  0.00000000000E+00  0.49827807154E+03  0.49827807154E+03  0.00000000000E+00 0.  1.
          3   -1    0    0  501    0  0.00000000000E+00 -0.00000000000E+00 -0.57514514346E+02  0.57514514346E+02  0.00000000000E+00 0. -1.
         25    2    1    2    0    0  0.66224164874E+02  0.66236312427E+02  0.85547664143E+02  0.17815258829E+03  0.12508818001E+03 0.  0.
          5    1    3    3  502    0 -0.13740418310E+02  0.65183255219E+02  0.89629483286E+01  0.67345843963E+02  0.41800000000E+01 0. -1.
         -5    1    3    3    0  502  0.79964583183E+02  0.10530572079E+01  0.76584715814E+02  0.11080674433E+03  0.41800000000E+01 0. -1.
        -11    1    1    2    0    0  0.14336293481E+02  0.66381159594E+01  0.84092948652E+02  0.85564115769E+02  0.00000000000E+00 0.  1.
         11    1    1    2    0    0 -0.80560458355E+02 -0.72874428387E+02  0.27112294440E+03  0.29207588182E+03  0.00000000000E+00 0. -1.
</event>
<event>
 7    1  0.2732144E-009  0.1459331E+03  0.7561462E-02  0.1205561E+00
         -1   -1    0    0    0  501 -0.00000000000E+00  0.00000000000E+00  0.97190363025E+02  0.97190363025E+02  0.00000000000E+00 0.  1.
          1   -1    0    0  501    0  0.00000000000E+00 -0.00000000000E+00 -0.28890724979E+03  0.28890724979E+03  0.00000000000E+00 0. -1.
         25    2    1    2    0    0 -0.61045117539E+02  0.89862831769E+02 -0.24561237555E+02  0.16749029805E+03  0.12509160899E+03 0.  0.
          5    1    3    3  502    0 -0.34149362860E+02 -0.25894563850E+02  0.88734629114E+01  0.43964965197E+02  0.41800000000E+01 0. -1.
         -5    1    3    3    0  502 -0.26895754678E+02  0.11575739562E+03 -0.33434700467E+02  0.12352533285E+03  0.41800000000E+01 0. -1.
        -11    1    1    2    0    0  0.39028210050E+02 -0.17474760178E+01 -0.94635856335E+02  0.10238261648E+03  0.00000000000E+00 0. -1.
         11    1    1    2    0    0  0.22016907489E+02 -0.88115355751E+02 -0.72519792870E+02  0.11622469829E+03  0.00000000000E+00 0.  1.
</event>
<event>
 7    1  0.2732144E-009  0.1196110E+03  0.7561462E-02  0.1243740E+00
          1   -1    0    0  501    0  0.00000000000E+00  0.00000000000E+00  0.36427793300E+03  0.36427793300E+03  0.00000000000E+00 0. -1.
         -1   -1    0    0    0  501 -0.00000000000E+00 -0.00000000000E+00 -0.53033786197E+02  0.53033786197E+02  0.00000000000E+00 0.  1.
         25    2    1    2    0    0 -0.32069606671E+02  0.61675818599E+02  0.18104442780E+03  0.23077461238E+03  0.12508985015E+03 0.  0.
          5    1    3    3  502    0 -0.69602697020E+02  0.82005659231E+00  0.10734812754E+03  0.12800898723E+03  0.41800000000E+01 0.  1.
         -5    1    3    3    0  502  0.37533090350E+02  0.60855762007E+02  0.73696300263E+02  0.10276562515E+03  0.41800000000E+01 0.  1.
        -11    1    1    2    0    0 -0.21627572440E+02 -0.12088234373E+02 -0.11333019046E+02  0.27245451375E+02  0.00000000000E+00 0.  1.
         11    1    1    2    0    0  0.53697179110E+02 -0.49587584226E+02  0.14153273805E+03  0.15929165544E+03  0.00000000000E+00 0. -1.
</event>
<event>
 7    1  0.2732144E-009  0.9330076E+02  0.7561462E-02  0.1295050E+00
          1   -1    0    0  501    0  0.00000000000E+00  0.00000000000E+00  0.57351781841E+03  0.57351781841E+03  0.00000000000E+00 0. -1.
         -1   -1    0    0    0  501 -0.00000000000E+00 -0.00000000000E+00 -0.24937436422E+02  0.24937436422E+02  0.00000000000E+00 0.  1.
         25    2    1    2    0    0 -0.37410396512E+02  0.55544431102E+01  0.35931099225E+03  0.38233666606E+03  0.12508616014E+03 0.  0.
          5    1    3    3  502    0  0.42776009312E+02  0.34624580161E+01  0.19148103894E+03  0.19627591870E+03  0.41800000000E+01 0.  1.
         -5    1    3    3    0  502 -0.80186405823E+02  0.20919850941E+01  0.16782995330E+03  0.18606074735E+03  0.41800000000E+01 0.  1.
        -11    1    1    2    0    0  0.26095015557E+02  0.21514971075E+02  0.18302319200E+03  0.18612182200E+03  0.00000000000E+00 0. -1.
         11    1    1    2    0    0  0.11315380955E+02 -0.27069414185E+02  0.62461977470E+01  0.29996766772E+02  0.00000000000E+00 0.  1.
</event>
<event>
 7    1  0.2732144E-009  0.1336174E+03  0.7561462E-02  0.1222185E+00
          2   -1    0    0  501    0  0.00000000000E+00  0.00000000000E+00  0.42010576738E+03  0.42010576738E+03  0.00000000000E+00 0. -1.
         -2   -1    0    0    0  501 -0.00000000000E+00 -0.00000000000E+00 -0.54382027555E+02  0.54382027555E+02  0.00000000000E+00 0.  1.
         25    2    1    2    0    0  0.92980014437E+02 -0.36847885848E+02  0.24376997245E+03  0.29168287356E+03  0.12510815114E+03 0.  0.
          5    1    3    3  502    0  0.60551177156E+00  0.34355267077E+02  0.10392200215E+03  0.10953495310E+03  0.41800000000E+01 0.  1.
         -5    1    3    3    0  502  0.92374502666E+02 -0.71203152925E+02  0.13984797031E+03  0.18214792046E+03  0.41800000000E+01 0.  1.
        -11    1    1    2    0    0 -0.14961756067E+02  0.34787860943E+02  0.91502724297E+02  0.99029278334E+02  0.00000000000E+00 0. -1.
         11    1    1    2    0    0 -0.78018258371E+02  0.20600249047E+01  0.30451043070E+02  0.83775643035E+02  0.00000000000E+00 0.  1.
</event>
<event>
 6    1  0.2732144E-009  0.1290838E+03  0.7561462E-02  0.1228822E+00
         -1   -1    0    0    0  501 -0.00000000000E+00  0.00000000000E+00  0.56299872145E+02  0.56299872145E+02  0.00000000000E+00 0.  1.
          1   -1    0    0  501    0  0.00000000000E+00 -0.00000000000E+00 -0.33618517573E+03  0.33618517573E+03  0.00000000000E+00 0. -1.
          5    1    1    2  502    0  0.70373028205E+02  0.74188837495E+02 -0.78183947907E+02  0.12878877598E+03  0.41800000000E+01 0.  1.
         -5    1    1    2    0  502 -0.33090845079E+02  0.19958590104E+01 -0.96173987107E+02  0.10181304277E+03  0.41800000000E+01 0.  1.
        -11    1    1    2    0    0  0.15165407493E+02  0.12317189250E+02 -0.12573737949E+02  0.23233631259E+02  0.00000000000E+00 0.  1.
         11    1    1    2    0    0 -0.52447590619E+02 -0.88501885755E+02 -0.92953630620E+02  0.13864959787E+03  0.00000000000E+00 0. -1.
</event>
<event>
 7    1  0.2732144E-009  0.1044326E+03  0.7561462E-02  0.1271242E+00
         -3   -1    0    0    0  501 -0.00000000000E+00  0.00000000000E+00  0.18715122962E+03  0.18715122962E+03  0.00000000000E+00 0.  1.
          3   -1    0    0  501    0  0.00000000000E+00 -0.00000000000E+00 -0.97539483426E+02  0.97539483426E+02  0.00000000000E+00 0. -1.
         25    2    1    2    0    0 -0.73424416401E+02 -0.29667669320E+02  0.34824032748E+02  0.15208973717E+03  0.12508900578E+03 0.  0.
          5    1    3    3  502    0 -0.93157912282E+02 -0.19191047731E+02  0.64286947789E+02  0.11487809621E+03  0.41800000000E+01 0.  1.
         -5    1    3    3    0  502  0.19733495881E+02 -0.10476621589E+02 -0.29462915041E+02  0.37211640952E+02  0.41800000000E+01 0.  1.
        -11    1    1    2    0    0  0.60570746540E+02  0.22087361513E+01  0.74799259525E+02  0.96273688396E+02  0.00000000000E+00 0.  1.
         11    1    1    2    0    0  0.12853669861E+02  0.27458933169E+02 -0.20011546077E+02  0.36327287485E+02  0.00000000000E+00 0. -1.
</event>
<event>
 7    1  0.2732144E-009  0.1203749E+03  0.7561462E-02  0.1242480E+00
          2   -1    0    0  501    0  0.00000000000E+00  0.00000000000E+00  0.34362115706E+03  0.34362115706E+03  0.00000000000E+00 0.  1.
         -2   -1    0    0    0  501 -0.00000000000E+00 -0.00000000000E+00 -0.61747085352E+02  0.61747085352E+02  0.00000000000E+00 0. -1.
         25    2    1    2    0    0 -0.43413261528E+01 -0.83115679345E+02  0.82178817790E+02  0.17124879337E+03  0.12508288400E+03 0.  0.
          5    1    3    3  502    0 -0.62438661552E+01  0.27278218806E+02 -0.71297678141E+01  0.29178640730E+02  0.41800000000E+01 0.  1.
         -5    1    3    3    0  502  0.19025400024E+01 -0.11039389815E+03  0.89308585604E+02  0.14207015264E+03  0.41800000000E+01 0.  1.
        -11    1    1    2    0    0 -0.27329625802E+02  0.40915548821E+02  0.32929348484E+02  0.59205849148E+02  0.00000000000E+00 0. -1.
         11    1    1    2    0    0  0.31670951955E+02  0.42200130525E+02  0.16676590544E+03  0.17491359990E+03  0.00000000000E+00 0.  1.
</event>
<event>
 7    1  0.2732144E-009  0.1461713E+03  0.7561462E-02  0.1205258E+00
         -2   -1    0    0    0  501 -0.00000000000E+00  0.00000000000E+00  0.61652430706E+02  0.61652430706E+02  0.00000000000E+00 0.  1.
          2   -1    0    0  501    0  0.00000000000E+00 -0.00000000000E+00 -0.45712210637E+03  0.45712210637E+03  0.00000000000E+00 0. -1.
         25    2    1    2    0    0 -0.10330946121E+03  0.62996052868E+01 -0.32887555086E+03  0.36677010697E+03  0.12509457866E+03 0.  0.
          5    1    3    3  502    0 -0.13030531778E+03  0.19057738772E+02 -0.25637542711E+03  0.28825076804E+03  0.41800000000E+01 0.  1.
         -5    1    3    3    0  502  0.26995856570E+02 -0.12758133485E+02 -0.72500123748E+02  0.78519338927E+02  0.41800000000E+01 0.  1.
        -11    1    1    2    0    0  0.98087383265E+02 -0.32798942115E+02 -0.32301249684E+02  0.10835255461E+03  0.00000000000E+00 0.  1.
         11    1    1    2    0    0  0.52220779470E+01  0.26499336828E+02 -0.34292875120E+02  0.43651875497E+02  0.00000000000E+00 0. -1.
</event>
<event>
 7    1  0.2732144E-009  0.5613505E+02  0.7561462E-02  0.1414806E+00
          2   -1    0    0  501    0  0.00000000000E+00  0.00000000000E+00  0.13462227579E+03  0.13462227579E+03  0.00000000000E+00 0. -1.
         -2   -1    0    0    0  501 -0.00000000000E+00 -0.00000000000E+00 -0.90173560875E+02  0.90173560875E+02  0.00000000000E+00 0.  1.
         25    2    1    2    0    0  0.15942566149E+02  0.73987671923E+01  0.32404036349E+02  0.13040132148E+03  0.12508227652E+03 0.  0.
          5    1    3    3  502    0  0.12249331316E+02  0.35212069910E+02 -0.38668791189E+02  0.53876560739E+02  0.41800000000E+01 0.  1.
         -5    1    3    3    0  502  0.36932348327E+01 -0.27813302718E+02  0.71072827538E+02  0.76524760737E+02  0.41800000000E+01 0.  1.
        -11    1    1    2    0    0  0.13823111438E+02 -0.91389993242E+01 -0.34984112060E+02  0.38710306316E+02  0.00000000000E+00 0.  1.
         11    1    1    2    0    0 -0.29765677587E+02  0.17402321320E+01  0.47028790628E+02  0.55684208875E+02  0.00000000000E+00 0. -1.
</event>
<event>
 7    1  0.2732144E-009  0.1119910E+03  0.7561462E-02  0.1256927E+00
         -2   -1    0    0    0  501 -0.00000000000E+00  0.00000000000E+00  0.15563390107E+02  0.15563390107E+02  0.00000000000E+00 0.  1.
          2   -1    0    0  501    0  0.00000000000E+00 -0.00000000000E+00 -0.82120620623E+03  0.82120620623E+03  0.00000000000E+00 0. -1.
         25    2    1    2    0    0 -0.19713523363E+02  0.25166917313E+02 -0.50732407297E+03  0.52349452668E+03  0.12508720045E+03 0.  0.
          5    1    3    3  502    0 -0.72588307444E+02  0.21138506630E+02 -0.31205617697E+03  0.32111124058E+03  0.41800000000E+01 0. -1.
         -5    1    3    3    0  502  0.52874784082E+02  0.40284106835E+01 -0.19526789600E+03  0.20238328610E+03  0.41800000000E+01 0. -1.
        -11    1    1    2    0    0 -0.54854464885E+01  0.32068100602E+02 -0.11886662018E+03  0.12323849477E+03  0.00000000000E+00 0.  1.
         11    1    1    2    0    0  0.25198969851E+02 -0.57235017915E+02 -0.17945212297E+03  0.19003657489E+03  0.00000000000E+00 0. -1.
</event>
<event>
 7    1  0.2732144E-009  0.1163742E+03  0.7561462E-02  0.1249201E+00
          1   -1    0    0  501    0  0.00000000000E+00  0.00000000000E+00  0.21243580347E+02  0.21243580347E+02  0.00000000000E+00 0. -1.
         -1   -1    0    0    0  501 -0.00000000000E+00 -0.00000000000E+00 -0.76606426172E+03  0.76606426172E+03  0.00000000000E+00 0.  1.
         25    2    1    2    0    0 -0.21679179283E+02 -0.86631231430E+01 -0.54561876419E+03  0.56026153035E+03  0.12509240598E+03 0.  0.
          5    1    3    3  502    0 -0.65472432593E+02 -0.34310010470E+02 -0.26939480000E+03  0.27938297535E+03  0.41800000000E+01 0. -1.
         -5    1    3    3    0  502  0.43793253311E+02  0.25646887327E+02 -0.27622396419E+03  0.28087855500E+03  0.41800000000E+01 0. -1.
        -11    1    1    2    0    0  0.57184654778E+02  0.31780453993E+02 -0.13655372645E+03  0.15141665101E+03  0.00000000000E+00 0.  1.
         11    1    1    2    0    0 -0.35505475495E+02 -0.23117330850E+02 -0.62648190744E+02  0.75629660711E+02  0.00000000000E+00 0. -1.
</event>
<event>
 7    1  0.2732144E-009  0.9201359E+02  0.7561462E-02  0.1298047E+00
         -2   -1    0    0    0  501 -0.00000000000E+00  0.00000000000E+00  0.14750384604E+03  0.14750384604E+03  0.00000000000E+00 0.  1.
          2   -1    0    0  501    0  0.00000000000E+00 -0.00000000000E+00 -0.81743577915E+02  0.81743577915E+02  0.00000000000E+00 0. -1.
         25    2    1    2    0    0 -0.18760757636E+02 -0.10322522688E+02  0.55787299356E+02  0.13863029986E+03  0.12509043436E+03 0.  0.
          5    1    3    3  502    0 -0.54919285157E+02  0.67284965581E+01  0.75631934414E+02  0.93803317912E+02  0.41800000000E+01 0.  1.
         -5    1    3    3    0  502  0.36158527521E+02 -0.17051019246E+02 -0.19844635058E+02  0.44826981946E+02  0.41800000000E+01 0.  1.
        -11    1    1    2    0    0  0.21829647835E+02  0.46851129608E+02  0.14497052023E+02  0.53681713716E+02  0.00000000000E+00 0.  1.
         11    1    1    2    0    0 -0.30688901992E+01 -0.36528606921E+02 -0.45240832551E+01  0.36935410380E+02  0.00000000000E+00 0. -1.
</event>
<event>
 7    1  0.2732144E-009  0.8554474E+02  0.7561462E-02  0.1314014E+00
          2   -1    0    0  501    0  0.00000000000E+00  0.00000000000E+00  0.93467726417E+02  0.93467726417E+02  0.00000000000E+00 0. -1.
         -2   -1    0    0    0  501 -0.00000000000E+00 -0.00000000000E+00 -0.12703211962E+03  0.12703211962E+03  0.00000000000E+00 0.  1.
         25    2    1    2    0    0 -0.18126390407E+02 -0.25718076445E+01 -0.27469213053E+02  0.12937324791E+03  0.12509076459E+03 0.  0.
          5    1    3    3  502    0 -0.69075438286E+02 -0.73394599629E+01  0.30293576179E+01  0.69655819961E+02  0.41800000000E+01 0. -1.
         -5    1    3    3    0  502  0.50949047879E+02  0.47676523184E+01 -0.30498570671E+02  0.59717427953E+02  0.41800000000E+01 0. -1.
        -11    1    1    2    0    0  0.32460006289E+02  0.10063398697E+02 -0.40643852011E+02  0.52979682029E+02  0.00000000000E+00 0.  1.
         11    1    1    2    0    0 -0.14333615882E+02 -0.74915910530E+01  0.34548671857E+02  0.38146916098E+02  0.00000000000E+00 0. -1.
</event>
<event>
 7    1  0.2732144E-009  0.9452764E+02  0.7561462E-02  0.1292244E+00
          1   -1    0    0  501    0  0.00000000000E+00  0.00000000000E+00  0.26521336052E+03  0.26521336052E+03  0.00000000000E+00 0. -1.
         -1   -1    0    0    0  501 -0.00000000000E+00 -0.00000000000E+00 -0.54264860093E+02  0.54264860093E+02  0.00000000000E+00 0.  1.
         25    2    1    2    0    0 -0.17806277193E+02 -0.33946729906E+02  0.82137324082E+02  0.15447471559E+03  0.12508578565E+03 0.  0.
          5    1    3    3  502    0  0.24469893967E+02  0.13012021766E+02  0.86572073919E+02  0.90996070266E+02  0.41800000000E+01 0. -1.
         -5    1    3    3    0  502 -0.42276171159E+02 -0.46958751673E+02 -0.44347498369E+01  0.63478645328E+02  0.41800000000E+01 0. -1.
        -11    1    1    2    0    0 -0.36868186934E+02  0.15606723628E+02  0.79969470335E+02  0.89431254134E+02  0.00000000000E+00 0. -1.
         11    1    1    2    0    0  0.54674464127E+02  0.18340006278E+02  0.48841706009E+02  0.75572250884E+02  0.00000000000E+00 0.  1.
</event>
<event>
 7    1  0.2732144E-009  0.9794457E+02  0.7561462E-02  0.1284679E+00
         -2   -1    0    0    0  501 -0.00000000000E+00  0.00000000000E+00  0.14831190068E+02  0.14831190068E+02  0.00000000000E+00 0. -1.
          2   -1    0    0  501    0  0.00000000000E+00 -0.00000000000E+00 -0.98721108338E+03  0.98721108338E+03  0.00000000000E+00 0.  1.
         25    2    1    2    0    0 -0.11324360728E+02 -0.21587272639E+02 -0.73745161836E+03  0.74838155507E+03  0.12508321656E+03 0.  0.
          5    1    3    3  502    0  0.47471497905E+02 -0.12981351235E+02 -0.53698076907E+03  0.53924751028E+03  0.41800000000E+01 0. -1.
         -5    1    3    3    0  502 -0.58795858632E+02 -0.86059214038E+01 -0.20047084929E+03  0.20913404479E+03  0.41800000000E+01 0. -1.
        -11    1    1    2    0    0 -0.34881303529E+02  0.21008009875E+02 -0.16421320922E+03  0.16918634666E+03  0.00000000000E+00 0.  1.
         11    1    1    2    0    0  0.46205664257E+02  0.57926276361E+00 -0.70715065728E+02  0.84474371709E+02  0.00000000000E+00 0. -1.
</event>
<event>
 7    1  0.2732144E-009  0.9972786E+02  0.7561462E-02  0.1280869E+00
         -4   -1    0    0    0  501 -0.00000000000E+00  0.00000000000E+00  0.40297276624E+03  0.40297276624E+03  0.00000000000E+00 0.  1.
          4   -1    0    0  501    0  0.00000000000E+00 -0.00000000000E+00 -0.37418912427E+02  0.37418912427E+02  0.00000000000E+00 0. -1.
         25    2    1    2    0    0  0.62210049968E+02  0.89533245628E+01  0.19843348932E+03  0.24284641124E+03  0.12509307506E+03 0.  0.
          5    1    3    3  502    0  0.68954701122E+02  0.55429826904E+02  0.15612203116E+03  0.17949589836E+03  0.41800000000E+01 0.  1.
         -5    1    3    3    0  502 -0.67446511546E+01 -0.46476502342E+02  0.42311458169E+02  0.63350512875E+02  0.41800000000E+01 0.  1.
        -11    1    1    2    0    0 -0.50959322930E+02 -0.11409033946E+02  0.17562838998E+03  0.18322759076E+03  0.00000000000E+00 0.  1.
         11    1    1    2    0    0 -0.11250727038E+02  0.24557093835E+01 -0.85080254900E+01  0.14317676669E+02  0.00000000000E+00 0. -1.
</event>
<event>
 7    1  0.2732144E-009  0.1174576E+03  0.7561462E-02  0.1247351E+00
         -1   -1    0    0    0  501 -0.00000000000E+00  0.00000000000E+00  0.64428029810E+02  0.64428029810E+02  0.00000000000E+00 0.  1.
          1   -1    0    0  501    0  0.00000000000E+00 -0.00000000000E+00 -0.25726491305E+03  0.25726491305E+03  0.00000000000E+00 0. -1.
         25    2    1    2    0    0 -0.54757482032E+02  0.35487641062E+02 -0.71738189820E+02  0.15827786650E+03  0.12509100942E+03 0.  0.
          5    1    3    3  502    0  0.13595221514E+02  0.64063709389E+02 -0.44239881472E+02  0.79143088273E+02  0.41800000000E+01 0. -1.
         -5    1    3    3    0  502 -0.68352703546E+02 -0.28576068327E+02 -0.27498308349E+02  0.79134778228E+02  0.41800000000E+01 0. -1.
        -11    1    1    2    0    0  0.29793461912E+02  0.18873792578E+02 -0.88547041752E+02  0.95312376017E+02  0.00000000000E+00 0. -1.
         11    1    1    2    0    0  0.24964020120E+02 -0.54361433640E+02 -0.32551651669E+02  0.68102700345E+02  0.00000000000E+00 0.  1.
</event>
<event>
 7    1  0.2732144E-009  0.1865779E+03  0.7561462E-02  0.1161585E+00
         -2   -1    0    0    0  501 -0.00000000000E+00  0.00000000000E+00  0.10811023369E+03  0.10811023369E+03  0.00000000000E+00 0.  1.
          2   -1    0    0  501    0  0.00000000000E+00 -0.00000000000E+00 -0.43033742188E+03  0.43033742188E+03  0.00000000000E+00 0. -1.
         25    2    1    2    0    0  0.10032659198E+03 -0.14574176625E+03 -0.96125058447E+02  0.23705030398E+03  0.12508689886E+03 0.  0.
          5    1    3    3  502    0  0.74279247320E+02 -0.45585309037E+02 -0.10086856431E+03  0.13336928675E+03  0.41800000000E+01 0.  1.
         -5    1    3    3    0  502  0.26047344663E+02 -0.10015645721E+03  0.47435058659E+01  0.10368101722E+03  0.41800000000E+01 0.  1.
        -11    1    1    2    0    0 -0.10398848809E+03  0.13161712751E+03 -0.23146246590E+03  0.28585231681E+03  0.00000000000E+00 0. -1.
         11    1    1    2    0    0  0.36618961026E+01  0.14124638732E+02  0.53603361532E+01  0.15545034772E+02  0.00000000000E+00 0.  1.
</event>
<event>
 7    1  0.2732144E-009  0.1036978E+03  0.7561462E-02  0.1272707E+00
          2   -1    0    0  501    0  0.00000000000E+00  0.00000000000E+00  0.10625423156E+04  0.10625423156E+04  0.00000000000E+00 0. -1.
         -2   -1    0    0    0  501 -0.00000000000E+00 -0.00000000000E+00 -0.12837773244E+02  0.12837773244E+02  0.00000000000E+00 0.  1.
         25    2    1    2    0    0  0.30559223686E+01 -0.41418307100E+02  0.50302120666E+03  0.52000379446E+03  0.12509515209E+03 0.  0.
          5    1    3    3  502    0 -0.48970074039E+02 -0.21785967563E+02  0.10369178372E+03  0.11679963590E+03  0.41800000000E+01 0.  1.
         -5    1    3    3    0  502  0.52025996407E+02 -0.19632339537E+02  0.39932942294E+03  0.40320415856E+03  0.41800000000E+01 0.  1.
        -11    1    1    2    0    0 -0.24563437680E+02  0.62867844033E+02  0.38005156420E+03  0.38599860069E+03  0.00000000000E+00 0. -1.
         11    1    1    2    0    0  0.21507515311E+02 -0.21449536933E+02  0.16663177146E+03  0.16937769366E+03  0.00000000000E+00 0.  1.
</event>
<event>
 7    1  0.2732144E-009  0.9056919E+02  0.7561462E-02  0.1301479E+00
          3   -1    0    0  501    0  0.00000000000E+00  0.00000000000E+00  0.39424024615E+03  0.39424024615E+03  0.00000000000E+00 0. -1.
         -3   -1    0    0    0  501 -0.00000000000E+00 -0.00000000000E+00 -0.59715430595E+02  0.59715430595E+02  0.00000000000E+00 0.  1.
         25    2    1    2    0    0  0.18891945522E+02 -0.75457471200E+02  0.11765863717E+03  0.18852723035E+03  0.12509286997E+03 0.  0.
          5    1    3    3  502    0 -0.12128162388E+02 -0.34798521099E+01 -0.23509302615E+02  0.27006691820E+02  0.41800000000E+01 0. -1.
         -5    1    3    3    0  502  0.31020107910E+02 -0.71977619090E+02  0.14116793978E+03  0.16152053853E+03  0.41800000000E+01 0. -1.
        -11    1    1    2    0    0 -0.28830292749E+02  0.25715336880E+02 -0.39751734060E+01  0.38836404757E+02  0.00000000000E+00 0.  1.
         11    1    1    2    0    0  0.99383472267E+01  0.49742134319E+02  0.22084135179E+03  0.22659204164E+03  0.00000000000E+00 0. -1.
</event>
<event>
 7    1  0.2732144E-009  0.1989859E+03  0.7561462E-02  0.1150597E+00
          1   -1    0    0  501    0  0.00000000000E+00  0.00000000000E+00  0.45373227872E+03  0.45373227872E+03  0.00000000000E+00 0. -1.
         -1   -1    0    0    0  501 -0.00000000000E+00 -0.00000000000E+00 -0.10168884231E+03  0.10168884231E+03  0.00000000000E+00 0.  1.
         25    2    1    2    0    0 -0.13710441191E+03  0.10541564877E+03  0.94655585101E+02  0.23348872062E+03  0.12508886480E+03 0.  0.
          5    1    3    3  502    0 -0.11331579822E+03  0.12139111710E+02  0.70784882228E+02  0.13422294927E+03  0.41800000000E+01 0.  1.
         -5    1    3    3    0  502 -0.23788613692E+02  0.93276537056E+02  0.23870702873E+02  0.99265771352E+02  0.41800000000E+01 0.  1.
        -11    1    1    2    0    0  0.87334664169E+02 -0.21385405134E+02  0.16276137386E+03  0.18594607804E+03  0.00000000000E+00 0.  1.
         11    1    1    2    0    0  0.49769747741E+02 -0.84030243632E+02  0.94626477452E+02  0.13598632236E+03  0.00000000000E+00 0. -1.
</event>
<event>
 7    1  0.2732144E-009  0.1252020E+03  0.7561462E-02  0.1234754E+00
         -2   -1    0    0    0  501 -0.00000000000E+00  0.00000000000E+00  0.54514223026E+02  0.54514223026E+02  0.00000000000E+00 0.  1.
          2   -1    0    0  501    0  0.00000000000E+00 -0.00000000000E+00 -0.33555991835E+03  0.33555991835E+03  0.00000000000E+00 0. -1.
         25    2    1    2    0    0  0.34765954383E+02  0.72104852095E+02 -0.15264884429E+03  0.21297195841E+03  0.12509038383E+03 0.  0.
          5    1    3    3  502    0  0.79774607160E+02  0.46783198281E+02 -0.12065546372E+03  0.15207849590E+03  0.41800000000E+01 0.  1.
         -5    1    3    3    0  502 -0.45008652778E+02  0.25321653814E+02 -0.31993380563E+02  0.60893462511E+02  0.41800000000E+01 0.  1.
        -11    1    1    2    0    0 -0.47830186658E+02 -0.19227722754E+02 -0.10664787671E+03  0.11845337346E+03  0.00000000000E+00 0. -1.
         11    1    1    2    0    0  0.13064232275E+02 -0.52877129341E+02 -0.21748974336E+02  0.58648809510E+02  0.00000000000E+00 0.  1.
</event>
<event>
 7    1  0.2732144E-009  0.1981398E+03  0.7561462E-02  0.1151318E+00
          1   -1    0    0  501    0  0.00000000000E+00  0.00000000000E+00  0.18768321409E+03  0.18768321409E+03  0.00000000000E+00 0. -1.
         -1   -1    0    0    0  501 -0.00000000000E+00 -0.00000000000E+00 -0.22391947320E+03  0.22391947320E+03  0.00000000000E+00 0.  1.
         25    2    1    2    0    0  0.15920141234E+03 -0.61726304125E+02 -0.39255152536E+02  0.21527567807E+03  0.12508966486E+03 0.  0.
          5    1    3    3  502    0  0.17728036013E+03 -0.41734558830E+02 -0.44426884901E+02  0.18751351949E+03  0.41800000000E+01 0.  1.
         -5    1    3    3    0  502 -0.18078947791E+02 -0.19991745295E+02  0.51717323648E+01  0.27762158577E+02  0.41800000000E+01 0.  1.
        -11    1    1    2    0    0 -0.75136447213E+02 -0.10665524786E+02  0.30897861980E+02  0.81938495188E+02  0.00000000000E+00 0. -1.
         11    1    1    2    0    0 -0.84064965127E+02  0.72391828912E+02 -0.27878968552E+02  0.11438851403E+03  0.00000000000E+00 0.  1.
</event>
<event>
 7    1  0.2732144E-009  0.1049532E+03  0.7561462E-02  0.1270212E+00
         -3   -1    0    0    0  501 -0.00000000000E+00  0.00000000000E+00  0.15726457857E+03  0.15726457857E+03  0.00000000000E+00 0.  1.
          3   -1    0    0  501    0  0.00000000000E+00 -0.00000000000E+00 -0.12149210985E+03  0.12149210985E+03  0.00000000000E+00 0. -1.
         25    2    1    2    0    0 -0.50087063684E+02 -0.51214814880E+01  0.84106743730E+02  0.15892419045E+03  0.12509200793E+03 0.  0.
          5    1    3    3  502    0 -0.82257512315E+02 -0.33314973438E+02  0.40316829204E+02  0.97565900316E+02  0.41800000000E+01 0.  1.
         -5    1    3    3    0  502  0.32170448631E+02  0.28193491950E+02  0.43789914527E+02  0.61358290130E+02  0.41800000000E+01 0.  1.
        -11    1    1    2    0    0 -0.34552156639E+01 -0.19031216725E+02 -0.57243351578E+02  0.60422901496E+02  0.00000000000E+00 0. -1.
         11    1    1    2    0    0  0.53542279348E+02  0.24152698213E+02  0.89090765722E+01  0.59409596482E+02  0.00000000000E+00 0.  1.
</event>
<event>
 7    1  0.2732144E-009  0.1184327E+03  0.7561462E-02  0.1245705E+00
         -2   -1    0    0    0  501 -0.00000000000E+00  0.00000000000E+00  0.87892834828E+03  0.87892834828E+03  0.00000000000E+00 0.  1.
          2   -1    0    0  501    0  0.00000000000E+00 -0.00000000000E+00 -0.18967014260E+02  0.18967014260E+02  0.00000000000E+00 0. -1.
         25    2    1    2    0    0  0.63447208161E+02 -0.90474195670E+01  0.46989907852E+03  0.49047043564E+03  0.12509476495E+03 0.  0.
          5    1    3    3  502    0  0.91947081993E+02 -0.13082341922E+02  0.21933898906E+03  0.23822778611E+03  0.41800000000E+01 0. -1.
         -5    1    3    3    0  502 -0.28499873832E+02  0.40349223545E+01  0.25056008947E+03  0.25224264953E+03  0.41800000000E+01 0. -1.
        -11    1    1    2    0    0 -0.64668810146E+02 -0.33099777537E+02  0.28743394076E+03  0.29647246176E+03  0.00000000000E+00 0.  1.
         11    1    1    2    0    0  0.12216019846E+01  0.42147197104E+02  0.10262831474E+03  0.11095246514E+03  0.00000000000E+00 0. -1.
</event>
<event>
 7    1  0.2732144E-009  0.7853318E+02  0.7561462E-02  0.1333266E+00
         -1   -1    0    0    0  501 -0.00000000000E+00  0.00000000000E+00  0.35076321380E+03  0.35076321380E+03  0.00000000000E+00 0.  1.
          1   -1    0    0  501    0  0.00000000000E+00 -0.00000000000E+00 -0.42450003358E+02  0.42450003358E+02  0.00000000000E+00 0. -1.
         25    2    1    2    0    0 -0.36432175070E+02 -0.12853260538E+02  0.24155627094E+03  0.27475382808E+03  0.12509086427E+03 0.  0.
          5    1    3    3  502    0 -0.40841177582E+02 -0.37611014344E+02  0.24292574244E+03  0.24922475585E+03  0.41800000000E+01 0. -1.
         -5    1    3    3    0  502  0.44090025116E+01  0.24757753806E+02 -0.13694715016E+01  0.25529072228E+02  0.41800000000E+01 0. -1.
        -11    1    1    2    0    0  0.10891699080E+02  0.38314271885E+02 -0.29859913656E+01  0.39944069440E+02  0.00000000000E+00 0. -1.
         11    1    1    2    0    0  0.25540475990E+02 -0.25461011347E+02  0.69742930863E+02  0.78515319639E+02  0.00000000000E+00 0.  1.
</event>
<event>
 7    1  0.2732144E-009  0.1033243E+03  0.7561462E-02  0.1273457E+00
          3   -1    0    0  501    0  0.00000000000E+00  0.00000000000E+00  0.46106473328E+02  0.46106473328E+02  0.00000000000E+00 0. -1.
         -3   -1    0    0    0  501 -0.00000000000E+00 -0.00000000000E+00 -0.32864517830E+03  0.32864517830E+03  0.00000000000E+00 0.  1.
         25    2    1    2    0    0 -0.23614634047E+02 -0.52206286180E+02 -0.11646514857E+03  0.18025908772E+03  0.12508421409E+03 0.  0.
          5    1    3    3  502    0 -0.49264629543E+02 -0.82630674992E+02 -0.70649542391E+02  0.11943057571E+03  0.41800000000E+01 0.  1.
         -5    1    3    3    0  502  0.25649995496E+02  0.30424388812E+02 -0.45815606179E+02  0.60828512008E+02  0.41800000000E+01 0.  1.
        -11    1    1    2    0    0  0.25216010754E+02  0.85043101372E+01 -0.43549667555E+01  0.26965463555E+02  0.00000000000E+00 0. -1.
         11    1    1    2    0    0 -0.16013767075E+01  0.43701976043E+02 -0.16171858964E+03  0.16752710036E+03  0.00000000000E+00 0.  1.
</event>
<event>
 7    1  0.2732144E-009  0.1003513E+03  0.7561462E-02  0.1279559E+00
          1   -1    0    0  501    0  0.00000000000E+00  0.00000000000E+00  0.19218143901E+03  0.19218143901E+03  0.00000000000E+00 0. -1.
         -1   -1    0    0    0  501 -0.00000000000E+00 -0.00000000000E+00 -0.11229671614E+03  0.11229671614E+03  0.00000000000E+00 0.  1.
         25    2    1    2    0    0  0.70020745482E+00  0.25544225367E+02 -0.59494624085E+02  0.14085415639E+03  0.12508910959E+03 0.  0.
          5    1    3    3  502    0  0.50017229229E+02 -0.20705908596E+02 -0.61710503536E+01  0.54644415387E+02  0.41800000000E+01 0.  1.
         -5    1    3    3    0  502 -0.49317021774E+02  0.46250133963E+02 -0.53323573731E+02  0.86209741002E+02  0.41800000000E+01 0.  1.
        -11    1    1    2    0    0  0.33734051109E+02  0.31009580733E+01  0.93755939072E+02  0.99688405828E+02  0.00000000000E+00 0. -1.
         11    1    1    2    0    0 -0.34434258564E+02 -0.28645183440E+02  0.45623407881E+02  0.63935592934E+02  0.00000000000E+00 0.  1.
</event>
<event>
 7    1  0.2732144E-009  0.9038882E+02  0.7561462E-02  0.1301913E+00
          1   -1    0    0  501    0  0.00000000000E+00  0.00000000000E+00  0.40025991972E+03  0.40025991972E+03  0.00000000000E+00 0. -1.
         -1   -1    0    0    0  501 -0.00000000000E+00 -0.00000000000E+00 -0.30511360360E+02  0.30511360360E+02  0.00000000000E+00 0.  1.
         25    2    1    2    0    0  0.97906917873E+01 -0.76579720797E+01  0.17178928394E+03  0.21287007809E+03  0.12509040685E+03 0.  0.
          5    1    3    3  502    0 -0.47291379705E+00  0.57562287240E+02  0.98293776085E+02  0.11398587358E+03  0.41800000000E+01 0.  1.
         -5    1    3    3    0  502  0.10263605584E+02 -0.65220259320E+02  0.73495507859E+02  0.98884204506E+02  0.41800000000E+01 0.  1.
        -11    1    1    2    0    0  0.19445161009E+02 -0.10886764783E+02  0.63262785914E+01  0.23165874361E+02  0.00000000000E+00 0.  1.
         11    1    1    2    0    0 -0.29235852796E+02  0.18544736863E+02  0.19163299682E+03  0.19473532762E+03  0.00000000000E+00 0. -1.
</event>
<event>
 7    1  0.2732144E-009  0.1180937E+03  0.7561462E-02  0.1246275E+00
         -2   -1    0    0    0  501 -0.00000000000E+00  0.00000000000E+00  0.93251419107E+02  0.93251419107E+02  0.00000000000E+00 0.  1.
          2   -1    0    0  501    0  0.00000000000E+00 -0.00000000000E+00 -0.15624401309E+03  0.15624401309E+03  0.00000000000E+00 0. -1.
         25    2    1    2    0    0 -0.27148530878E+02 -0.44304193558E+02 -0.20585775436E+02  0.13700436760E+03  0.12508604357E+03 0.  0.
          5    1    3    3  502    0 -0.35162384571E+01  0.43107652637E+02 -0.15785635400E+02  0.46230859107E+02  0.41800000000E+01 0. -1.
         -5    1    3    3    0  502 -0.23632292421E+02 -0.87411846195E+02 -0.48001400360E+01  0.90773508496E+02  0.41800000000E+01 0. -1.
        -11    1    1    2    0    0  0.11822007272E+02  0.70637406544E+02 -0.39738552485E+02  0.81905772769E+02  0.00000000000E+00 0. -1.
         11    1    1    2    0    0  0.15326523606E+02 -0.26333212987E+02 -0.26682660586E+01  0.30585291822E+02  0.00000000000E+00 0.  1.
</event>
<event>
 7    1  0.2732144E-009  0.7614762E+02  0.7561462E-02  0.1340354E+00
          3   -1    0    0  501    0  0.00000000000E+00  0.00000000000E+00  0.12800204039E+03  0.12800204039E+03  0.00000000000E+00 0. -1.
         -3   -1    0    0    0  501 -0.00000000000E+00 -0.00000000000E+00 -0.12150368905E+03  0.12150368905E+03  0.00000000000E+00 0.  1.
         25    2    1    2    0    0 -0.52659833989E+02 -0.44739123058E+01 -0.29622437569E+02  0.13898620781E+03  0.12508638274E+03 0.  0.
          5    1    3    3  502    0 -0.27841250145E+02 -0.21523440136E+02  0.45659384270E+02  0.57798317076E+02  0.41800000000E+01 0. -1.
         -5    1    3    3    0  502 -0.24818583844E+02  0.17049527830E+02 -0.75281821838E+02  0.81187890738E+02  0.41800000000E+01 0. -1.
        -11    1    1    2    0    0  0.46339235858E+02 -0.27486721857E+02  0.51464119582E+02  0.74507719484E+02  0.00000000000E+00 0. -1.
         11    1    1    2    0    0  0.63205981303E+01  0.31960634162E+02 -0.15343330676E+02  0.36011802135E+02  0.00000000000E+00 0.  1.
</event>
<event>
 7    1  0.2732144E-009  0.1123066E+03  0.7561462E-02  0.1256357E+00
         -1   -1    0    0    0  501 -0.00000000000E+00  0.00000000000E+00  0.43742331867E+02  0.43742331867E+02  0.00000000000E+00 0.  1.
          1   -1    0    0  501    0  0.00000000000E+00 -0.00000000000E+00 -0.40367543895E+03  0.40367543895E+03  0.00000000000E+00 0. -1.
         25    2    1    2    0    0  0.38867538941E+02 -0.17169201189E+02 -0.30787022954E+03  0.33502004101E+03  0.12509549386E+03 0.  0.
          5    1    3    3  502    0  0.43337374986E+02 -0.65398838116E+02 -0.14336417163E+03  0.16348056216E+03  0.41800000000E+01 0.  1.
         -5    1    3    3    0  502 -0.44698360451E+01  0.48229636927E+02 -0.16450605791E+03  0.17153947884E+03  0.41800000000E+01 0.  1.
        -11    1    1    2    0    0 -0.45247305970E+02 -0.27074834714E+02 -0.16423147671E+02  0.55227576008E+02  0.00000000000E+00 0.  1.
         11    1    1    2    0    0  0.63797670283E+01  0.44244035904E+02 -0.35639729867E+02  0.57170153799E+02  0.00000000000E+00 0. -1.
</event>
<event>
 7    1  0.2732144E-009  0.1387151E+03  0.7561462E-02  0.1215068E+00
         -2   -1    0    0    0  501 -0.00000000000E+00  0.00000000000E+00  0.47827936549E+02  0.47827936549E+02  0.00000000000E+00 0.  1.
          2   -1    0    0  501    0  0.00000000000E+00 -0.00000000000E+00 -0.48196105279E+03  0.48196105279E+03  0.00000000000E+00 0. -1.
         25    2    1    2    0    0 -0.26700292537E+02  0.10342824257E+03 -0.23126298517E+03  0.28379900026E+03  0.12509595220E+03 0.  0.
          5    1    3    3  502    0  0.31243013619E+02 -0.10456243478E+02 -0.26885052526E+02  0.42728648200E+02  0.41800000000E+01 0.  1.
         -5    1    3    3    0  502 -0.57943306157E+02  0.11388448605E+03 -0.20437793265E+03  0.24107035206E+03  0.41800000000E+01 0.  1.
        -11    1    1    2    0    0 -0.74572126710E+01 -0.63034631518E+02 -0.40680571435E+02  0.75391535889E+02  0.00000000000E+00 0.  1.
         11    1    1    2    0    0  0.34157505209E+02 -0.40393611052E+02 -0.16218955964E+03  0.17059845319E+03  0.00000000000E+00 0. -1.
</event>
<event>
 7    1  0.2732144E-009  0.1191369E+03  0.7561462E-02  0.1244528E+00
          3   -1    0    0  501    0  0.00000000000E+00  0.00000000000E+00  0.39301723831E+02  0.39301723831E+02  0.00000000000E+00 0. -1.
         -3   -1    0    0    0  501 -0.00000000000E+00 -0.00000000000E+00 -0.43591888402E+03  0.43591888402E+03  0.00000000000E+00 0.  1.
         25    2    1    2    0    0  0.31945344911E+02  0.51378812006E+02 -0.30531233966E+03  0.33544629426E+03  0.12509318208E+03 0.  0.
          5    1    3    3  502    0 -0.16744488560E+02  0.76732547482E+02 -0.13258706578E+03  0.15415921689E+03  0.41800000000E+01 0. -1.
         -5    1    3    3    0  502  0.48689833472E+02 -0.25353735476E+02 -0.17272527387E+03  0.18128707737E+03  0.41800000000E+01 0. -1.
        -11    1    1    2    0    0  0.12001868451E+02  0.18481340190E+02 -0.28693712097E+02  0.36179191470E+02  0.00000000000E+00 0.  1.
         11    1    1    2    0    0 -0.43947213363E+02 -0.69860152196E+02 -0.62611108435E+02  0.10359512212E+03  0.00000000000E+00 0. -1.
</event>
<event>
 7    1  0.2732144E-009  0.1955107E+03  0.7561462E-02  0.1153583E+00
          2   -1    0    0  501    0  0.00000000000E+00  0.00000000000E+00  0.50450655712E+03  0.50450655712E+03  0.00000000000E+00 0. -1.
         -2   -1    0    0    0  501 -0.00000000000E+00 -0.00000000000E+00 -0.90337275365E+02  0.90337275365E+02  0.00000000000E+00 0.  1.
         25    2    1    2    0    0  0.17348072416E+03 -0.84623740855E+00  0.13306937118E+03  0.25189598400E+03  0.12509137235E+03 0.  0.
          5    1    3    3  502    0  0.18304262998E+03  0.14418777988E+02  0.88961498531E+02  0.20406892505E+03  0.41800000000E+01 0.  1.
         -5    1    3    3    0  502 -0.95619058279E+01 -0.15265015397E+02  0.44107872651E+02  0.47827058951E+02  0.41800000000E+01 0.  1.
        -11    1    1    2    0    0 -0.11849632509E+03  0.35718473738E+02  0.22592802987E+03  0.25760563485E+03  0.00000000000E+00 0. -1.
         11    1    1    2    0    0 -0.54984399066E+02 -0.34872236329E+02  0.55171880698E+02  0.85342213628E+02  0.00000000000E+00 0.  1.
</event>
<event>
 7    1  0.2732144E-009  0.1879018E+03  0.7561462E-02  0.1160367E+00
         -1   -1    0    0    0  501 -0.00000000000E+00  0.00000000000E+00  0.18912873025E+03  0.18912873025E+03  0.00000000000E+00 0.  1.
          1   -1    0    0  501    0  0.00000000000E+00 -0.00000000000E+00 -0.20336475957E+03  0.20336475957E+03  0.00000000000E+00 0. -1.
         25    2    1    2    0    0  0.15790401533E+03 -0.16008895065E+02 -0.49343891169E+02  0.20801764409E+03  0.12508620179E+03 0.  0.
          5    1    3    3  502    0  0.37675689317E+02 -0.56349834466E+02  0.87341564677E+01  0.68472763191E+02  0.41800000000E+01 0.  1.
         -5    1    3    3    0  502  0.12022832601E+03  0.40340939401E+02 -0.58078047637E+02  0.13954488090E+03  0.41800000000E+01 0.  1.
        -11    1    1    2    0    0 -0.12505430200E+03  0.49127881214E+02  0.23385429084E+02  0.13637817074E+03  0.00000000000E+00 0.  1.
         11    1    1    2    0    0 -0.32849713328E+02 -0.33118986149E+02  0.11722432770E+02  0.48097674989E+02  0.00000000000E+00 0. -1.
</event>
<event>
 7    1  0.2732144E-009  0.1482312E+03  0.7561462E-02  0.1202663E+00
          1   -1    0    0  501    0  0.00000000000E+00  0.00000000000E+00  0.35395805048E+03  0.35395805048E+03  0.00000000000E+00 0. -1.
         -1   -1    0    0    0  501 -0.00000000000E+00 -0.00000000000E+00 -0.66984079659E+02  0.66984079659E+02  0.00000000000E+00 0.  1.
         25    2    1    2    0    0  0.40917685658E+02  0.10206939011E+03  0.20931970824E+03  0.26749733716E+03  0.12509063808E+03 0.  0.
          5    1    3    3  502    0  0.78445702303E+02  0.28876902560E+02  0.11583746495E+03  0.14291044187E+03  0.41800000000E+01 0.  1.
         -5    1    3    3    0  502 -0.37528016646E+02  0.73192487545E+02  0.93482243291E+02  0.12458689529E+03  0.41800000000E+01 0.  1.
        -11    1    1    2    0    0 -0.49509751611E+02 -0.30131060434E+02  0.47638727352E+02  0.75023627286E+02  0.00000000000E+00 0. -1.
         11    1    1    2    0    0  0.85920659531E+01 -0.71938329672E+02  0.30015535229E+02  0.78421165691E+02  0.00000000000E+00 0.  1.
</event>
<event>
 7    1  0.2732144E-009  0.1458793E+03  0.7561462E-02  0.1205630E+00
          2   -1    0    0  501    0  0.00000000000E+00  0.00000000000E+00  0.16184111895E+03  0.16184111895E+03  0.00000000000E+00 0. -1.
         -2   -1    0    0    0  501 -0.00000000000E+00 -0.00000000000E+00 -0.15229169953E+03  0.15229169953E+03  0.00000000000E+00 0.  1.
         25    2    1    2    0    0 -0.62676325157E+02  0.75735142782E+02  0.56318091886E+02  0.16876974130E+03  0.12508942609E+03 0.  0.
          5    1    3    3  502    0  0.47234553583E+01  0.89249534798E+02  0.23643994853E+02  0.92543510765E+02  0.41800000000E+01 0.  1.
         -5    1    3    3    0  502 -0.67399780515E+02 -0.13514392016E+02  0.32674097033E+02  0.76226230538E+02  0.41800000000E+01 0.  1.
        -11    1    1    2    0    0 -0.23301422031E+02 -0.10845839944E+02 -0.24212378589E+02  0.35310448732E+02  0.00000000000E+00 0.  1.
         11    1    1    2    0    0  0.85977747188E+02 -0.64889302838E+02 -0.22556293872E+02  0.11005262844E+03  0.00000000000E+00 0. -1.
</event>
<event>
 7    1  0.2732144E-009  0.1062924E+03  0.7561462E-02  0.1267594E+00
         -1   -1    0    0    0  501 -0.00000000000E+00  0.00000000000E+00  0.11979072441E+03  0.11979072441E+03  0.00000000000E+00 0.  1.
          1   -1    0    0  501    0  0.00000000000E+00 -0.00000000000E+00 -0.20174913036E+03  0.20174913036E+03  0.00000000000E+00 0. -1.
         25    2    1    2    0    0  0.98322586640E+01  0.14008156807E+02 -0.15759998975E+03  0.20193830661E+03  0.12509364948E+03 0.  0.
          5    1    3    3  502    0 -0.16178924294E+02 -0.50145413927E+02 -0.43683101671E+02  0.68571173979E+02  0.41800000000E+01 0. -1.
         -5    1    3    3    0  502  0.26011182958E+02  0.64153570734E+02 -0.11391688808E+03  0.13336713263E+03  0.41800000000E+01 0. -1.
        -11    1    1    2    0    0 -0.76512249729E+01  0.37777575866E+02  0.45543230476E+02  0.59664665625E+02  0.00000000000E+00 0.  1.
         11    1    1    2    0    0 -0.21810336911E+01 -0.51785732674E+02  0.30098353320E+02  0.59936882544E+02  0.00000000000E+00 0. -1.
</event>
<event>
 7    1  0.2732144E-009  0.9598225E+02  0.7561462E-02  0.1288979E+00
          1   -1    0    0  501    0  0.00000000000E+00  0.00000000000E+00  0.17759716922E+03  0.17759716922E+03  0.00000000000E+00 0. -1.
         -1   -1    0    0    0  501 -0.00000000000E+00 -0.00000000000E+00 -0.12315464033E+03  0.12315464033E+03  0.00000000000E+00 0.  1.
         25    2    1    2    0    0 -0.50190958520E+02 -0.22690573108E+02  0.11645755464E+03  0.17956469777E+03  0.12508846561E+03 0.  0.
          5    1    3    3  502    0 -0.15483039150E+00 -0.36165964683E+02  0.12196844000E+03  0.12728618829E+03  0.41800000000E+01 0.  1.
         -5    1    3    3    0  502 -0.50036128128E+02  0.13475391575E+02 -0.55108853624E+01  0.52278509482E+02  0.41800000000E+01 0.  1.
        -11    1    1    2    0    0  0.75331315499E+02  0.12129192515E+02 -0.51006891000E+02  0.91780321068E+02  0.00000000000E+00 0.  1.
         11    1    1    2    0    0 -0.25140356979E+02  0.10561380592E+02 -0.11008134755E+02  0.29406790710E+02  0.00000000000E+00 0. -1.
</event>
<event>
 7    1  0.2732144E-009  0.1060670E+03  0.7561462E-02  0.1268031E+00
         -1   -1    0    0    0  501 -0.00000000000E+00  0.00000000000E+00  0.22103353252E+02  0.22103353252E+02  0.00000000000E+00 0.  1.
          1   -1    0    0  501    0  0.00000000000E+00 -0.00000000000E+00 -0.81097489781E+03  0.81097489781E+03  0.00000000000E+00 0. -1.
         25    2    1    2    0    0 -0.27906631088E+02 -0.12720325366E+02 -0.66376576656E+03  0.67614590390E+03  0.12509078206E+03 0.  0.
          5    1    3    3  502    0  0.13227492058E+02 -0.55949527697E+02 -0.46542274270E+03  0.46897880338E+03  0.41800000000E+01 0. -1.
         -5    1    3    3    0  502 -0.41134123146E+02  0.43229202332E+02 -0.19834302387E+03  0.20716710052E+03  0.41800000000E+01 0. -1.
        -11    1    1    2    0    0  0.60126812968E+02  0.26295226063E+00 -0.76497719595E+02  0.97299557475E+02  0.00000000000E+00 0. -1.
         11    1    1    2    0    0 -0.32220181881E+02  0.12457373105E+02 -0.48608058398E+02  0.59632789691E+02  0.00000000000E+00 0.  1.
</event>
<event>
 7    1  0.2732144E-009  0.9405309E+02  0.7561462E-02  0.1293323E+00
         -1   -1    0    0    0  501 -0.00000000000E+00  0.00000000000E+00  0.20518486956E+02  0.20518486956E+02  0.00000000000E+00 0.  1.
          1   -1    0    0  501    0  0.00000000000E+00 -0.00000000000E+00 -0.59703677831E+03  0.59703677831E+03  0.00000000000E+00 0. -1.
         25    2    1    2    0    0 -0.22039432635E+02 -0.29379778252E+01 -0.31521584812E+03  0.33985414628E+03  0.12508173940E+03 0.  0.
          5    1    3    3  502    0  0.41405998095E+02  0.32462082485E+02 -0.15871477593E+03  0.16726056312E+03  0.41800000000E+01 0.  1.
         -5    1    3    3    0  502 -0.63445430730E+02 -0.35400060310E+02 -0.15650107220E+03  0.17259358316E+03  0.41800000000E+01 0.  1.
        -11    1    1    2    0    0 -0.19388613200E+02  0.76802439539E+01 -0.10301276459E+02  0.23259853089E+02  0.00000000000E+00 0.  1.
         11    1    1    2    0    0  0.41428045835E+02 -0.47422661287E+01 -0.25100116677E+03  0.25444126590E+03  0.00000000000E+00 0. -1.
</event>
<event>
 7    1  0.2732144E-009  0.1758376E+03  0.7561462E-02  0.1171893E+00
          1   -1    0    0  501    0  0.00000000000E+00  0.00000000000E+00  0.10906453985E+04  0.10906453985E+04  0.00000000000E+00 0. -1.
         -1   -1    0    0    0  501 -0.00000000000E+00 -0.00000000000E+00 -0.33294404407E+02  0.33294404407E+02  0.00000000000E+00 0.  1.
         25    2    1    2    0    0 -0.12520507803E+03 -0.69233974580E+02  0.73715615989E+03  0.76125981370E+03  0.12509054756E+03 0.  0.
          5    1    3    3  502    0 -0.29612545324E+02 -0.86871625889E+02  0.39456957255E+03  0.40512492173E+03  0.41800000000E+01 0. -1.
         -5    1    3    3    0  502 -0.95592532702E+02  0.17637651308E+02  0.34258658734E+03  0.35613489197E+03  0.41800000000E+01 0. -1.
        -11    1    1    2    0    0  0.15782179358E+02  0.48670908483E+02  0.15696770748E+03  0.16509632252E+03  0.00000000000E+00 0.  1.
         11    1    1    2    0    0  0.10942289867E+03  0.20563066098E+02  0.16322712668E+03  0.19758366664E+03  0.00000000000E+00 0. -1.
</event>
<event>
 7    1  0.2732144E-009  0.1182512E+03  0.7561462E-02  0.1246010E+00
         -2   -1    0    0    0  501 -0.00000000000E+00  0.00000000000E+00  0.50618789799E+02  0.50618789799E+02  0.00000000000E+00 0.  1.
          2   -1    0    0  501    0  0.00000000000E+00 -0.00000000000E+00 -0.32915855707E+03  0.32915855707E+03  0.00000000000E+00 0. -1.
         25    2    1    2    0    0 -0.66831338099E+02 -0.18837501515E+02 -0.19622619167E+03  0.24284423531E+03  0.12508926856E+03 0.  0.
          5    1    3    3  502    0  0.11503611513E+02 -0.43442531174E+02 -0.12892197464E+03  0.13659405015E+03  0.41800000000E+01 0. -1.
         -5    1    3    3    0  502 -0.78334949611E+02  0.24605029660E+02 -0.67304217037E+02  0.10625018516E+03  0.41800000000E+01 0. -1.
        -11    1    1    2    0    0  0.20107449587E+02 -0.33452211179E+02 -0.34160615301E+02  0.51868175209E+02  0.00000000000E+00 0.  1.
         11    1    1    2    0    0  0.46723888511E+02  0.52289712694E+02 -0.48152960297E+02  0.85064936352E+02  0.00000000000E+00 0. -1.
</event>
<event>
 7    1  0.2732144E-009  0.1136954E+03  0.7561462E-02  0.1253876E+00
         -2   -1    0    0    0  501 -0.00000000000E+00  0.00000000000E+00  0.21567204500E+03  0.21567204500E+03  0.00000000000E+00 0.  1.
          2   -1    0    0  501    0  0.00000000000E+00 -0.00000000000E+00 -0.86057158599E+02  0.86057158599E+02  0.00000000000E+00 0. -1.
         25    2    1    2    0    0  0.23798165910E+02  0.77201965846E+02  0.55848271232E+02  0.15903800291E+03  0.12509021040E+03 0.  0.
          5    1    3    3  502    0 -0.21877187084E+02  0.64329269584E+02  0.80478266880E+02  0.10540915558E+03  0.41800000000E+01 0.  1.
         -5    1    3    3    0  502  0.45675352995E+02  0.12872696263E+02 -0.24629995649E+02  0.53628847330E+02  0.41800000000E+01 0.  1.
        -11    1    1    2    0    0 -0.49650068809E+02 -0.30423672757E+02  0.67079683761E+02  0.88827997671E+02  0.00000000000E+00 0.  1.
         11    1    1    2    0    0  0.25851902898E+02 -0.46778293089E+02  0.66869314074E+01  0.53863203018E+02  0.00000000000E+00 0. -1.
</event>
<event>
 7    1  0.2732144E-009  0.1563299E+03  0.7561462E-02  0.1192904E+00
          2   -1    0    0  501    0  0.00000000000E+00  0.00000000000E+00  0.11040097568E+04  0.11040097568E+04  0.00000000000E+00 0. -1.
         -2   -1    0    0    0  501 -0.00000000000E+00 -0.00000000000E+00 -0.24271606494E+02  0.24271606494E+02  0.00000000000E+00 0.  1.
         25    2    1    2    0    0  0.10271355999E+03  0.56466598056E+02  0.71328751855E+03  0.73359763162E+03  0.12509136220E+03 0.  0.
          5    1    3    3  502    0  0.12362401578E+03  0.71042580755E+02  0.64508221723E+03  0.66066518369E+03  0.41800000000E+01 0. -1.
         -5    1    3    3    0  502 -0.20910455784E+02 -0.14575982698E+02  0.68205301327E+02  0.72932447935E+02  0.41800000000E+01 0. -1.
        -11    1    1    2    0    0 -0.20820401179E+02  0.22336445894E+02  0.51713105636E+02  0.60055401214E+02  0.00000000000E+00 0.  1.
         11    1    1    2    0    0 -0.81893158812E+02 -0.78803043951E+02  0.31473752608E+03  0.33462833042E+03  0.00000000000E+00 0. -1.
</event>
<event>
 7    1  0.2732144E-009  0.8479219E+02  0.7561462E-02  0.1315977E+00
         -2   -1    0    0    0  501 -0.00000000000E+00  0.00000000000E+00  0.11903958148E+03  0.11903958148E+03  0.00000000000E+00 0.  1.
          2   -1    0    0  501    0  0.00000000000E+00 -0.00000000000E+00 -0.12471931719E+03  0.12471931719E+03  0.00000000000E+00 0. -1.
         25    2    1    2    0    0  0.63927136026E+00  0.33775997886E+02  0.44416484270E+02  0.13697068735E+03  0.12508764295E+03 0.  0.
          5    1    3    3  502    0  0.43136119608E+02  0.34923178451E+01 -0.24902237018E+02  0.50105038741E+02  0.41800000000E+01 0.  1.
         -5    1    3    3    0  502 -0.42496848248E+02  0.30283680041E+02  0.69318721288E+02  0.86865648612E+02  0.41800000000E+01 0.  1.
        -11    1    1    2    0    0 -0.31611154844E+02 -0.60470072275E+01  0.10011429402E+02  0.33705491031E+02  0.00000000000E+00 0. -1.
         11    1    1    2    0    0  0.30971883484E+02 -0.27728990659E+02 -0.60107649381E+02  0.73082720280E+02  0.00000000000E+00 0.  1.
</event>
<event>
 6    1  0.2732144E-009  0.1146529E+03  0.7561462E-02  0.1252188E+00
         -1   -1    0    0    0  501 -0.00000000000E+00  0.00000000000E+00  0.19471823726E+03  0.19471823726E+03  0.00000000000E+00 0.  1.
          1   -1    0    0  501    0  0.00000000000E+00 -0.00000000000E+00 -0.84944511788E+02  0.84944511788E+02  0.00000000000E+00 0. -1.
          5    1    1    2  502    0  0.21549904366E+02 -0.31166311410E+02 -0.73457916035E+01  0.38822292557E+02  0.41800000000E+01 0.  1.
         -5    1    1    2    0  502  0.59530669025E+01  0.94939385853E+02  0.66379888427E+02  0.11607190866E+03  0.41800000000E+01 0.  1.
        -11    1    1    2    0    0 -0.18601579352E+02 -0.77447847340E+02  0.65225604442E+02  0.10294934330E+03  0.00000000000E+00 0.  1.
         11    1    1    2    0    0 -0.89013919165E+01  0.13674772898E+02 -0.14485975791E+02  0.21819204534E+02  0.00000000000E+00 0. -1.
</event>
<event>
 7    1  0.2732144E-009  0.8292114E+02  0.7561462E-02  0.1320960E+00
          1   -1    0    0  501    0  0.00000000000E+00  0.00000000000E+00  0.64134954748E+02  0.64134954748E+02  0.00000000000E+00 0. -1.
         -1   -1    0    0    0  501 -0.00000000000E+00 -0.00000000000E+00 -0.24797792086E+03  0.24797792086E+03  0.00000000000E+00 0.  1.
         25    2    1    2    0    0  0.37776060383E+01 -0.38046192632E+02 -0.16333310177E+03  0.20925432678E+03  0.12509151874E+03 0.  0.
          5    1    3    3  502    0 -0.27717928309E+02 -0.25564011127E+02 -0.17024928344E+03  0.17442503583E+03  0.41800000000E+01 0.  1.
         -5    1    3    3    0  502  0.31495534347E+02 -0.12482181505E+02  0.69161816664E+01  0.34829290946E+02  0.41800000000E+01 0.  1.
        -11    1    1    2    0    0  0.40438009937E+02  0.10886186324E+02 -0.28076655565E+02  0.50418650201E+02  0.00000000000E+00 0.  1.
         11    1    1    2    0    0 -0.44215615976E+02  0.27160006308E+02  0.75667912238E+01  0.52439898628E+02  0.00000000000E+00 0. -1.
</event>
<event>
 7    1  0.2732144E-009  0.1068960E+03  0.7561462E-02  0.1266428E+00
          1   -1    0    0  501    0  0.00000000000E+00  0.00000000000E+00  0.68529303449E+02  0.68529303449E+02  0.00000000000E+00 0. -1.
         -1   -1    0    0    0  501 -0.00000000000E+00 -0.00000000000E+00 -0.20910996653E+03  0.20910996653E+03  0.00000000000E+00 0.  1.
         25    2    1    2    0    0  0.46211362211E+01  0.50627422130E+02 -0.71673080890E+02  0.15286972237E+03  0.12509049014E+03 0.  0.
          5    1    3    3  502    0 -0.34223083017E+02  0.62383034653E+02 -0.10209331131E+01  0.71283778857E+02  0.41800000000E+01 0.  1.
         -5    1    3    3    0  502  0.38844219238E+02 -0.11755612524E+02 -0.70652147777E+02  0.81585943517E+02  0.41800000000E+01 0.  1.
        -11    1    1    2    0    0  0.10925840776E+02 -0.73363876851E+02 -0.37899161665E+02  0.83294530902E+02  0.00000000000E+00 0. -1.
         11    1    1    2    0    0 -0.15546976997E+02  0.22736454721E+02 -0.31008420526E+02  0.41475016703E+02  0.00000000000E+00 0.  1.
</event>
<event>
 7    1  0.2995062E-009  0.1371983E+03  0.7561462E-02  0.1217149E+00
          2   -1    0    0  501    0  0.00000000000E+00  0.00000000000E+00  0.26520797014E+03  0.26520797014E+03  0.00000000000E+00 0. -1.
         -2   -1    0    0    0  501 -0.00000000000E+00 -0.00000000000E+00 -0.90007196944E+02  0.90007196944E+02  0.00000000000E+00 0.  1.
         25    2    1    2    0    0 -0.49338294342E+02 -0.97422311446E+02  0.99428767313E+02  0.19354376160E+03  0.12509090227E+03 0.  0.
          5    1    3    3  502    0 -0.35140586587E+02  0.24070311578E+02  0.34652633970E+02  0.55068304552E+02  0.41800000000E+01 0. -1.
         -5    1    3    3    0  502 -0.14197707755E+02 -0.12149262302E+03  0.64776133343E+02  0.13847545705E+03  0.41800000000E+01 0. -1.
        -11    1    1    2    0    0  0.90710260495E+01  0.17124453853E+02 -0.21717725255E+02  0.29106528883E+02  0.00000000000E+00 0.  1.
         11    1    1    2    0    0  0.40267268293E+02  0.80297857594E+02  0.97489731142E+02  0.13256487660E+03  0.00000000000E+00 0. -1.
</event>
<event>
 7    1  0.2732144E-009  0.3575584E+02  0.7561462E-02  0.1541989E+00
         -2   -1    0    0    0  501 -0.00000000000E+00  0.00000000000E+00  0.38265325145E+02  0.38265325145E+02  0.00000000000E+00 0. -1.
          2   -1    0    0  501    0  0.00000000000E+00 -0.00000000000E+00 -0.33184883670E+03  0.33184883670E+03  0.00000000000E+00 0.  1.
         25    2    1    2    0    0  0.89634135638E+01  0.92052881379E+01 -0.20918744740E+03  0.24407403669E+03  0.12509063565E+03 0.  0.
          5    1    3    3  502    0  0.21826370555E+02  0.10245488681E+02 -0.22321968047E+03  0.22455702758E+03  0.41800000000E+01 0.  1.
         -5    1    3    3    0  502 -0.12862956991E+02 -0.10402005435E+01  0.14032233068E+02  0.19517009111E+02  0.41800000000E+01 0.  1.
        -11    1    1    2    0    0 -0.18997548077E+02 -0.12698498120E+02 -0.10251767369E+03  0.10503348088E+03  0.00000000000E+00 0.  1.
         11    1    1    2    0    0  0.10034134514E+02  0.34932099818E+01  0.18121609532E+02  0.21006644269E+02  0.00000000000E+00 0. -1.
</event>
<event>
 7    1  0.2732144E-009  0.1190460E+03  0.7561462E-02  0.1244679E+00
         -1   -1    0    0    0  501 -0.00000000000E+00  0.00000000000E+00  0.81433110234E+02  0.81433110234E+02  0.00000000000E+00 0.  1.
          1   -1    0    0  501    0  0.00000000000E+00 -0.00000000000E+00 -0.24407419648E+03  0.24407419648E+03  0.00000000000E+00 0. -1.
         25    2    1    2    0    0  0.11893903016E+02  0.54970988418E+02 -0.66942893895E+01  0.13731115855E+03  0.12508503610E+03 0.  0.
          5    1    3    3  502    0  0.62257284587E+02  0.11292180179E+01 -0.10880207222E+02  0.63349000992E+02  0.41800000000E+01 0.  1.
         -5    1    3    3    0  502 -0.50363381571E+02  0.53841770400E+02  0.41859178327E+01  0.73962157562E+02  0.41800000000E+01 0.  1.
        -11    1    1    2    0    0 -0.48378572293E+02 -0.24105674785E+02 -0.10649279497E+03  0.11942480980E+03  0.00000000000E+00 0. -1.
         11    1    1    2    0    0  0.36484669277E+02 -0.30865313633E+02 -0.49454001882E+02  0.68771338361E+02  0.00000000000E+00 0.  1.
</event>
<event>
 7    1  0.2732144E-009  0.1194091E+03  0.7561462E-02  0.1244075E+00
         -1   -1    0    0    0  501 -0.00000000000E+00  0.00000000000E+00  0.28994109746E+02  0.28994109746E+02  0.00000000000E+00 0.  1.
          1   -1    0    0  501    0  0.00000000000E+00 -0.00000000000E+00 -0.54848200825E+03  0.54848200825E+03  0.00000000000E+00 0. -1.
         25    2    1    2    0    0  0.67362118275E+02  0.15100256046E+01 -0.29105295548E+03  0.32388294227E+03  0.12509357393E+03 0.  0.
          5    1    3    3  502    0  0.82431146363E+02  0.44537492563E+02 -0.22238976159E+03  0.24135691537E+03  0.41800000000E+01 0.  1.
         -5    1    3    3    0  502 -0.15069028088E+02 -0.43027466958E+02 -0.68663193892E+02  0.82526026899E+02  0.41800000000E+01 0.  1.
        -11    1    1    2    0    0 -0.78449884825E+00  0.26866327578E+02 -0.21661717199E+02  0.34520211297E+02  0.00000000000E+00 0.  1.
         11    1    1    2    0    0 -0.66577619426E+02 -0.28376353183E+02 -0.20677322582E+03  0.21907296443E+03  0.00000000000E+00 0. -1.
</event>
<event>
 7    1  0.2732144E-009  0.1073062E+03  0.7561462E-02  0.1265641E+00
          1   -1    0    0  501    0  0.00000000000E+00  0.00000000000E+00  0.92823431378E+02  0.92823431378E+02  0.00000000000E+00 0. -1.
         -1   -1    0    0    0  501 -0.00000000000E+00 -0.00000000000E+00 -0.21641488283E+03  0.21641488283E+03  0.00000000000E+00 0.  1.
         25    2    1    2    0    0  0.60187652818E+02 -0.66860156636E+02 -0.55452845576E+02  0.16375592775E+03  0.12509257250E+03 0.  0.
          5    1    3    3  502    0  0.23959447977E+02 -0.12568737872E+02 -0.86954254726E+02  0.91162180393E+02  0.41800000000E+01 0. -1.
         -5    1    3    3    0  502  0.36228204841E+02 -0.54291418764E+02  0.31501409151E+02  0.72593747361E+02  0.41800000000E+01 0. -1.
        -11    1    1    2    0    0 -0.50427679029E+02 -0.37351493221E+01 -0.51754987863E+02  0.72356623203E+02  0.00000000000E+00 0.  1.
         11    1    1    2    0    0 -0.97599737897E+01  0.70595305958E+02 -0.16383618013E+02  0.73125763250E+02  0.00000000000E+00 0. -1.
</event>
<event>
 7    1  0.2732144E-009  0.4355924E+03  0.7561462E-02  0.1032108E+00
         -1   -1    0    0    0  501 -0.00000000000E+00  0.00000000000E+00  0.72122040518E+02  0.72122040518E+02  0.00000000000E+00 0.  1.
          1   -1    0    0  501    0  0.00000000000E+00 -0.00000000000E+00 -0.26919321407E+04  0.26919321407E+04  0.00000000000E+00 0. -1.
         25    2    1    2    0    0  0.39789146999E+03 -0.15302758667E+03 -0.13832639756E+04  0.14528605560E+04  0.12509798055E+03 0.  0.
          5    1    3    3  502    0  0.15629604051E+03 -0.11779745653E+03 -0.71758468463E+03  0.74380773393E+03  0.41800000000E+01 0. -1.
         -5    1    3    3    0  502  0.24159542948E+03 -0.35230130137E+02 -0.66567929095E+03  0.70905282202E+03  0.41800000000E+01 0. -1.
        -11    1    1    2    0    0 -0.13621304244E+03  0.19955238768E+02 -0.30854215785E+03  0.33786161021E+03  0.00000000000E+00 0.  1.
         11    1    1    2    0    0 -0.26167842755E+03  0.13307234790E+03 -0.92800396679E+03  0.97333201509E+03  0.00000000000E+00 0. -1.
</event>
<event>
 7    1  0.2732144E-009  0.1881057E+03  0.7561462E-02  0.1160181E+00
          1   -1    0    0  501    0  0.00000000000E+00  0.00000000000E+00  0.31091626699E+02  0.31091626699E+02  0.00000000000E+00 0. -1.
         -1   -1    0    0    0  501 -0.00000000000E+00 -0.00000000000E+00 -0.14342591005E+04  0.14342591005E+04  0.00000000000E+00 0.  1.
         25    2    1    2    0    0 -0.68479810905E+02  0.16650057731E+03 -0.76569420750E+03  0.79645908948E+03  0.12509010781E+03 0.  0.
          5    1    3    3  502    0 -0.47251012521E+02  0.49809788057E+02 -0.10729759932E+03  0.12745163942E+03  0.41800000000E+01 0. -1.
         -5    1    3    3    0  502 -0.21228798384E+02  0.11669078926E+03 -0.65839660818E+03  0.66900745006E+03  0.41800000000E+01 0. -1.
        -11    1    1    2    0    0  0.59699461439E+02 -0.70646703406E+02 -0.43471313310E+03  0.44444402402E+03  0.00000000000E+00 0.  1.
         11    1    1    2    0    0  0.87803494653E+01 -0.95853873906E+02 -0.20276013322E+03  0.22444761371E+03  0.00000000000E+00 0. -1.
</event>
<event>
 7    1  0.2732144E-009  0.1169629E+03  0.7561462E-02  0.1248193E+00
          1   -1    0    0  501    0  0.00000000000E+00  0.00000000000E+00  0.13914507366E+03  0.13914507366E+03  0.00000000000E+00 0. -1.
         -1   -1    0    0    0  501 -0.00000000000E+00 -0.00000000000E+00 -0.19277437027E+03  0.19277437027E+03  0.00000000000E+00 0.  1.
         25    2    1    2    0    0  0.10600588426E+03  0.31223945991E+01  0.33934313755E+02  0.16747040311E+03  0.12509117244E+03 0.  0.
          5    1    3    3  502    0  0.86302666866E+02 -0.25915610593E+02 -0.29456508558E+02  0.94894296336E+02  0.41800000000E+01 0.  1.
         -5    1    3    3    0  502  0.19703217391E+02  0.29038005192E+02  0.63390822314E+02  0.72576106775E+02  0.41800000000E+01 0.  1.
        -11    1    1    2    0    0 -0.66969973209E+02  0.88421051422E+01  0.31190861714E+00  0.67551886887E+02  0.00000000000E+00 0. -1.
         11    1    1    2    0    0 -0.39035911048E+02 -0.11964499741E+02 -0.87875518973E+02  0.96897153933E+02  0.00000000000E+00 0.  1.
</event>
<event>
 7    1  0.2732144E-009  0.2604224E+03  0.7561462E-02  0.1106890E+00
          2   -1    0    0  501    0  0.00000000000E+00  0.00000000000E+00  0.17951272452E+04  0.17951272452E+04  0.00000000000E+00 0. -1.
         -2   -1    0    0    0  501 -0.00000000000E+00 -0.00000000000E+00 -0.43161590213E+02  0.43161590213E+02  0.00000000000E+00 0.  1.
         25    2    1    2    0    0 -0.28619885910E+02 -0.25074627329E+03  0.10407804559E+04  0.10782228032E+04  0.12509062519E+03 0.  0.
          5    1    3    3  502    0 -0.49085806839E+02 -0.22157795387E+03  0.99218642278E+03  0.10178200116E+04  0.41800000000E+01 0.  1.
         -5    1    3    3    0  502  0.20465920929E+02 -0.29168319415E+02  0.48594033117E+02  0.60402791587E+02  0.41800000000E+01 0.  1.
        -11    1    1    2    0    0  0.44539940614E+02  0.17502936378E+03  0.39150334993E+03  0.43115421545E+03  0.00000000000E+00 0.  1.
         11    1    1    2    0    0 -0.15920054704E+02  0.75716909506E+02  0.31968184913E+03  0.32891181674E+03  0.00000000000E+00 0. -1.
</event>
<event>
 7    1  0.2732144E-009  0.9172412E+02  0.7561462E-02  0.1298729E+00
          1   -1    0    0  501    0  0.00000000000E+00  0.00000000000E+00  0.52459540147E+02  0.52459540147E+02  0.00000000000E+00 0. -1.
         -1   -1    0    0    0  501 -0.00000000000E+00 -0.00000000000E+00 -0.28056766934E+03  0.28056766934E+03  0.00000000000E+00 0.  1.
         25    2    1    2    0    0  0.53247133956E+02 -0.30865023075E+01 -0.12248719631E+03  0.18301666437E+03  0.12508877810E+03 0.  0.
          5    1    3    3  502    0  0.50628080414E+02 -0.23666142758E+02  0.26475994746E+01  0.56104999977E+02  0.41800000000E+01 0.  1.
         -5    1    3    3    0  502  0.26190535420E+01  0.20579640450E+02 -0.12513479579E+03  0.12691166440E+03  0.41800000000E+01 0.  1.
        -11    1    1    2    0    0 -0.66852535295E+01  0.43851324967E+02 -0.49513205328E+02  0.66476979609E+02  0.00000000000E+00 0.  1.
         11    1    1    2    0    0 -0.46561880426E+02 -0.40764822659E+02 -0.56107727552E+02  0.83533565507E+02  0.00000000000E+00 0. -1.
</event>
<event>
 7    1  0.2732144E-009  0.1214143E+03  0.7561462E-02  0.1240782E+00
          2   -1    0    0  501    0  0.00000000000E+00  0.00000000000E+00  0.44349624623E+03  0.44349624623E+03  0.00000000000E+00 0. -1.
         -2   -1    0    0    0  501 -0.00000000000E+00 -0.00000000000E+00 -0.61449995529E+02  0.61449995529E+02  0.00000000000E+00 0.  1.
         25    2    1    2    0    0  0.43957241567E+02 -0.39871230717E+02  0.37008904080E+02  0.14332777781E+03  0.12510491112E+03 0.  0.
          5    1    3    3  502    0 -0.30276447281E+02  0.24166178370E+02  0.15616165116E+01  0.38994595563E+02  0.41800000000E+01 0.  1.
         -5    1    3    3    0  502  0.74233688848E+02 -0.64037409087E+02  0.35447287568E+02  0.10433318225E+03  0.41800000000E+01 0.  1.
        -11    1    1    2    0    0 -0.49022426794E+02  0.64262747159E+02  0.29269937498E+03  0.30365411756E+03  0.00000000000E+00 0. -1.
         11    1    1    2    0    0  0.50651852268E+01 -0.24391516442E+02  0.52337971650E+02  0.57964346388E+02  0.00000000000E+00 0.  1.
</event>
<event>
 7    1  0.2732144E-009  0.2551876E+03  0.7561462E-02  0.1110070E+00
         -2   -1    0    0    0  501 -0.00000000000E+00  0.00000000000E+00  0.60065074046E+02  0.60065074046E+02  0.00000000000E+00 0.  1.
          2   -1    0    0  501    0  0.00000000000E+00 -0.00000000000E+00 -0.16823116107E+04  0.16823116107E+04  0.00000000000E+00 0. -1.
         25    2    1    2    0    0 -0.20480620512E+03  0.11285477785E+03 -0.13375276499E+04  0.13635645849E+04  0.12508549264E+03 0.  0.
          5    1    3    3  502    0  0.16638047109E+01 -0.16898590421E+02 -0.16603829716E+03  0.16695663847E+03  0.41800000000E+01 0.  1.
         -5    1    3    3    0  502 -0.20647000983E+03  0.12975336827E+03 -0.11714893527E+04  0.11966079464E+04  0.41800000000E+01 0.  1.
        -11    1    1    2    0    0  0.14269432154E+03 -0.12003917281E+03 -0.19900544643E+03  0.27271640970E+03  0.00000000000E+00 0.  1.
         11    1    1    2    0    0  0.62111883583E+02  0.71843949639E+01 -0.85713440380E+02  0.10609569018E+03  0.00000000000E+00 0. -1.
</event>
<event>
 7    1  0.2732144E-009  0.1495488E+03  0.7561462E-02  0.1201028E+00
         -2   -1    0    0    0  501 -0.00000000000E+00  0.00000000000E+00  0.52626600355E+02  0.52626600355E+02  0.00000000000E+00 0.  1.
          2   -1    0    0  501    0  0.00000000000E+00 -0.00000000000E+00 -0.44009058686E+03  0.44009058686E+03  0.00000000000E+00 0. -1.
         25    2    1    2    0    0  0.67910611848E+02 -0.77947668124E+02 -0.23790762023E+03  0.28798505904E+03  0.12509064034E+03 0.  0.
          5    1    3    3  502    0  0.83162884133E+02 -0.10172542309E+03 -0.17478964004E+03  0.21870760770E+03  0.41800000000E+01 0.  1.
         -5    1    3    3    0  502 -0.15252272284E+02  0.23777754970E+02 -0.63117980187E+02  0.69277451340E+02  0.41800000000E+01 0.  1.
        -11    1    1    2    0    0  0.21338922910E+02  0.32623812130E+02 -0.32846090702E+02  0.50975763097E+02  0.00000000000E+00 0.  1.
         11    1    1    2    0    0 -0.89249534759E+02  0.45323855993E+02 -0.11671027558E+03  0.15375636508E+03  0.00000000000E+00 0. -1.
</event>
<event>
 7    1  0.2732144E-009  0.1174079E+03  0.7561462E-02  0.1247436E+00
         -2   -1    0    0    0  501 -0.00000000000E+00  0.00000000000E+00  0.16974595203E+04  0.16974595203E+04  0.00000000000E+00 0.  1.
          2   -1    0    0  501    0  0.00000000000E+00 -0.00000000000E+00 -0.11192929985E+02  0.11192929985E+02  0.00000000000E+00 0. -1.
         25    2    1    2    0    0 -0.77507030214E+01  0.58859557357E+02  0.12902762490E+04  0.12976841382E+04  0.12508718118E+03 0.  0.
          5    1    3    3  502    0 -0.65986420444E+02  0.37074230610E+02  0.75301313683E+03  0.75681897631E+03  0.41800000000E+01 0.  1.
         -5    1    3    3    0  502  0.58235717422E+02  0.21785326746E+02  0.53726311213E+03  0.54086516185E+03  0.41800000000E+01 0.  1.
        -11    1    1    2    0    0  0.40530496399E+02 -0.18097569694E+02  0.87925897021E+02  0.98494703076E+02  0.00000000000E+00 0. -1.
         11    1    1    2    0    0 -0.32779793377E+02 -0.40761987663E+02  0.30806444432E+03  0.31247360904E+03  0.00000000000E+00 0.  1.
</event>
<event>
 7    1  0.2732144E-009  0.8891315E+02  0.7561462E-02  0.1305505E+00
          3   -1    0    0  501    0  0.00000000000E+00  0.00000000000E+00  0.18669719397E+03  0.18669719397E+03  0.00000000000E+00 0. -1.
         -3   -1    0    0    0  501 -0.00000000000E+00 -0.00000000000E+00 -0.78279329007E+02  0.78279329007E+02  0.00000000000E+00 0.  1.
         25    2    1    2    0    0  0.32191119055E+02  0.28274413653E+02  0.91362436596E+02  0.16071881674E+03  0.12509089743E+03 0.  0.
          5    1    3    3  502    0 -0.25044395588E+02  0.22163487314E+02 -0.17148404474E+02  0.37815104076E+02  0.41800000000E+01 0.  1.
         -5    1    3    3    0  502  0.57235514643E+02  0.61109263385E+01  0.10851084107E+03  0.12290371266E+03  0.41800000000E+01 0.  1.
        -11    1    1    2    0    0 -0.52167301488E+02 -0.37658890249E+02 -0.14303507267E+02  0.65910618867E+02  0.00000000000E+00 0.  1.
         11    1    1    2    0    0  0.19976182433E+02  0.93844765960E+01  0.31358935634E+02  0.38347087369E+02  0.00000000000E+00 0. -1.
</event>
<event>
 7    1  0.2732144E-009  0.1750450E+03  0.7561462E-02  0.1172686E+00
         -2   -1    0    0    0  501 -0.00000000000E+00  0.00000000000E+00  0.13062747270E+03  0.13062747270E+03  0.00000000000E+00 0. -1.
          2   -1    0    0  501    0  0.00000000000E+00 -0.00000000000E+00 -0.30337708654E+03  0.30337708654E+03  0.00000000000E+00 0.  1.
         25    2    1    2    0    0  0.50539078825E+02  0.15641634573E+03 -0.94023479231E+02  0.22695563549E+03  0.12509266220E+03 0.  0.
          5    1    3    3  502    0 -0.78038975317E+00  0.10407325837E+03  0.42927413848E+01  0.10424851147E+03  0.41800000000E+01 0. -1.
         -5    1    3    3    0  502  0.51319468578E+02  0.52343087360E+02 -0.98316220616E+02  0.12270712402E+03  0.41800000000E+01 0. -1.
        -11    1    1    2    0    0 -0.10473839496E+02  0.56920608218E+00 -0.38788302308E+02  0.40181559269E+02  0.00000000000E+00 0.  1.
         11    1    1    2    0    0 -0.40065239329E+02 -0.15698555181E+03 -0.39937832301E+02  0.16686736448E+03  0.00000000000E+00 0. -1.
</event>
<event>
 7    1  0.2732144E-009  0.1702589E+03  0.7561462E-02  0.1177578E+00
          2   -1    0    0  501    0  0.00000000000E+00  0.00000000000E+00  0.82146946503E+03  0.82146946503E+03  0.00000000000E+00 0. -1.
         -2   -1    0    0    0  501 -0.00000000000E+00 -0.00000000000E+00 -0.42291679012E+02  0.42291679012E+02  0.00000000000E+00 0.  1.
         25    2    1    2    0    0  0.94083412286E+02  0.10423349360E+03  0.28064948648E+03  0.33783311176E+03  0.12510302748E+03 0.  0.
          5    1    3    3  502    0  0.78541352961E+01  0.84087909418E+02  0.71729896048E+02  0.11088333661E+03  0.41800000000E+01 0. -1.
         -5    1    3    3    0  502  0.86229276990E+02  0.20145584185E+02  0.20891959043E+03  0.22694977515E+03  0.41800000000E+01 0. -1.
        -11    1    1    2    0    0  0.72336665958E+01 -0.53526373098E+02  0.14830178011E+03  0.15783160816E+03  0.00000000000E+00 0.  1.
         11    1    1    2    0    0 -0.10131707888E+03 -0.50707120505E+02  0.35022651943E+03  0.36809642413E+03  0.00000000000E+00 0. -1.
</event>
<event>
 7    1  0.2732144E-009  0.1498902E+03  0.7561462E-02  0.1200608E+00
          3   -1    0    0  501    0  0.00000000000E+00  0.00000000000E+00  0.47625605327E+02  0.47625605327E+02  0.00000000000E+00 0. -1.
         -3   -1    0    0    0  501 -0.00000000000E+00 -0.00000000000E+00 -0.55647181952E+03  0.55647181952E+03  0.00000000000E+00 0.  1.
         25    2    1    2    0    0 -0.24777016885E+02  0.10870144635E+03 -0.36116091232E+03  0.39813889459E+03  0.12508984691E+03 0.  0.
          5    1    3    3  502    0 -0.42408189284E+02  0.13045246744E+03 -0.27315480817E+03  0.30569154781E+03  0.41800000000E+01 0. -1.
         -5    1    3    3    0  502  0.17631172400E+02 -0.21751021096E+02 -0.88006104149E+02  0.92447346779E+02  0.41800000000E+01 0. -1.
        -11    1    1    2    0    0 -0.11146659705E+02 -0.95210960303E+02 -0.68047408814E+02  0.11755775104E+03  0.00000000000E+00 0.  1.
         11    1    1    2    0    0  0.35923676590E+02 -0.13490486044E+02 -0.79637893062E+02  0.88400779209E+02  0.00000000000E+00 0. -1.
</event>
<event>
 7    1  0.2732144E-009  0.7291054E+02  0.7561462E-02  0.1350466E+00
         -2   -1    0    0    0  501 -0.00000000000E+00  0.00000000000E+00  0.32794076928E+03  0.32794076928E+03  0.00000000000E+00 0.  1.
          2   -1    0    0  501    0  0.00000000000E+00 -0.00000000000E+00 -0.53276009465E+02  0.53276009465E+02  0.00000000000E+00 0. -1.
         25    2    1    2    0    0 -0.26578752551E+02 -0.41295709558E+01  0.50500562578E+02  0.13755558884E+03  0.12509096593E+03 0.  0.
          5    1    3    3  502    0 -0.69138825616E+01  0.23965484887E+02 -0.36237775503E+02  0.44190440271E+02  0.41800000000E+01 0. -1.
         -5    1    3    3    0  502 -0.19664869989E+02 -0.28095055843E+02  0.86738338081E+02  0.93365148570E+02  0.41800000000E+01 0. -1.
        -11    1    1    2    0    0  0.84310500728E+00 -0.37246662562E+02  0.15260753390E+03  0.15708941435E+03  0.00000000000E+00 0.  1.
         11    1    1    2    0    0  0.25735647543E+02  0.41376233517E+02  0.71556663344E+02  0.86571775559E+02  0.00000000000E+00 0. -1.
</event>
<event>
 7    1  0.2732144E-009  0.1196655E+03  0.7561462E-02  0.1243650E+00
          2   -1    0    0  501    0  0.00000000000E+00  0.00000000000E+00  0.44707468221E+03  0.44707468221E+03  0.00000000000E+00 0. -1.
         -2   -1    0    0    0  501 -0.00000000000E+00 -0.00000000000E+00 -0.41081740700E+02  0.41081740700E+02  0.00000000000E+00 0.  1.
         25    2    1    2    0    0  0.25620769572E+02  0.59759607708E+02  0.31406616909E+03  0.34425705276E+03  0.12509086801E+03 0.  0.
          5    1    3    3  502    0 -0.40206087452E+02  0.80643879443E+00  0.17366653681E+03  0.17831073501E+03  0.41800000000E+01 0.  1.
         -5    1    3    3    0  502  0.65826857024E+02  0.58953168913E+02  0.14039963228E+03  0.16594631775E+03  0.41800000000E+01 0.  1.
        -11    1    1    2    0    0  0.62577888968E+01 -0.74887828952E+02  0.57751172557E+02  0.94776288061E+02  0.00000000000E+00 0.  1.
         11    1    1    2    0    0 -0.31878558469E+02  0.15128221244E+02  0.34175599867E+02  0.49123082093E+02  0.00000000000E+00 0. -1.
</event>
<event>
 7    1  0.2732144E-009  0.7549787E+02  0.7561462E-02  0.1342336E+00
         -1   -1    0    0    0  501 -0.00000000000E+00  0.00000000000E+00  0.98047961053E+02  0.98047961053E+02  0.00000000000E+00 0.  1.
          1   -1    0    0  501    0  0.00000000000E+00 -0.00000000000E+00 -0.18537866630E+03  0.18537866630E+03  0.00000000000E+00 0. -1.
         25    2    1    2    0    0  0.37322400241E+02  0.57695945358E+02 -0.92680293312E+02  0.17016557851E+03  0.12507958934E+03 0.  0.
          5    1    3    3  502    0  0.87153949719E+01  0.51107897201E+02 -0.11940847054E+03  0.13024527056E+03  0.41800000000E+01 0. -1.
         -5    1    3    3    0  502  0.28607005269E+02  0.65880481569E+01  0.26728177229E+02  0.39920307951E+02  0.41800000000E+01 0. -1.
        -11    1    1    2    0    0 -0.99631067916E+01 -0.23581051062E+02  0.46584884828E+02  0.53155253368E+02  0.00000000000E+00 0.  1.
         11    1    1    2    0    0 -0.27359293449E+02 -0.34114894295E+02 -0.41235296766E+02  0.60105795479E+02  0.00000000000E+00 0. -1.
</event>
<event>
 7    1  0.2732144E-009  0.1095332E+03  0.7561462E-02  0.1261437E+00
          1   -1    0    0  501    0  0.00000000000E+00  0.00000000000E+00  0.16168869878E+04  0.16168869878E+04  0.00000000000E+00 0. -1.
         -1   -1    0    0    0  501 -0.00000000000E+00 -0.00000000000E+00 -0.10221054830E+02  0.10221054830E+02  0.00000000000E+00 0.  1.
         25    2    1    2    0    0 -0.58781772637E+02  0.80496717458E+00  0.10616769830E+04  0.10706360770E+04  0.12509056010E+03 0.  0.
          5    1    3    3  502    0 -0.64015707163E+02 -0.33410003151E+02  0.96771561540E+03  0.97041497503E+03  0.41800000000E+01 0. -1.
         -5    1    3    3    0  502  0.52339345261E+01  0.34214970326E+02  0.93961367633E+02  0.10022110193E+03  0.41800000000E+01 0. -1.
        -11    1    1    2    0    0  0.82958445425E+02  0.13092175317E+02  0.38298613040E+03  0.39208657820E+03  0.00000000000E+00 0. -1.
         11    1    1    2    0    0 -0.24176672788E+02 -0.13897142491E+02  0.16200281954E+03  0.16438538748E+03  0.00000000000E+00 0.  1.
</event>
<event>
 7    1  0.2732144E-009  0.1143980E+03  0.7561462E-02  0.1252636E+00
         -1   -1    0    0    0  501 -0.00000000000E+00  0.00000000000E+00  0.21847441496E+03  0.21847441496E+03  0.00000000000E+00 0.  1.
          1   -1    0    0  501    0  0.00000000000E+00 -0.00000000000E+00 -0.70614731720E+02  0.70614731720E+02  0.00000000000E+00 0. -1.
         25    2    1    2    0    0  0.30047845639E+01 -0.47169247475E+02  0.12784035893E+03  0.18499964932E+03  0.12509095187E+03 0.  0.
          5    1    3    3  502    0 -0.46738424956E+02  0.13794031917E+02  0.77023939209E+02  0.91240973774E+02  0.41800000000E+01 0.  1.
         -5    1    3    3    0  502  0.49743209520E+02 -0.60963279392E+02  0.50816419719E+02  0.93758675548E+02  0.41800000000E+01 0.  1.
        -11    1    1    2    0    0 -0.31825111833E+02 -0.12999154870E+02 -0.20014214113E+00  0.34378130074E+02  0.00000000000E+00 0. -1.
         11    1    1    2    0    0  0.28820327269E+02  0.60168402345E+02  0.20219466451E+02  0.69711367281E+02  0.00000000000E+00 0.  1.
</event>
<event>
 7    1  0.2732144E-009  0.9552721E+02  0.7561462E-02  0.1289993E+00
         -2   -1    0    0    0  501 -0.00000000000E+00  0.00000000000E+00  0.26386104130E+02  0.26386104130E+02  0.00000000000E+00 0.  1.
          2   -1    0    0  501    0  0.00000000000E+00 -0.00000000000E+00 -0.70896586978E+03  0.70896586978E+03  0.00000000000E+00 0. -1.
         25    2    1    2    0    0  0.38662418913E+02  0.71775691301E+02 -0.32937152490E+03  0.36162778777E+03  0.12507007225E+03 0.  0.
          5    1    3    3  502    0  0.24988870398E+01 -0.63420193113E+01  0.92406236538E+01  0.12219949709E+02  0.41800000000E+01 0.  1.
         -5    1    3    3    0  502  0.36163531873E+02  0.78117710612E+02 -0.33861214855E+03  0.34940783806E+03  0.41800000000E+01 0.  1.
        -11    1    1    2    0    0  0.11342175426E+02 -0.28047496584E+01 -0.14223239165E+01  0.11770070916E+02  0.00000000000E+00 0.  1.
         11    1    1    2    0    0 -0.50004594339E+02 -0.68970941642E+02 -0.35178591684E+03  0.36195411523E+03  0.00000000000E+00 0. -1.
</event>
<event>
 7    1  0.2732144E-009  0.1012604E+03  0.7561462E-02  0.1277668E+00
         -2   -1    0    0    0  501 -0.00000000000E+00  0.00000000000E+00  0.23176870641E+02  0.23176870641E+02  0.00000000000E+00 0.  1.
          2   -1    0    0  501    0  0.00000000000E+00 -0.00000000000E+00 -0.73186759674E+03  0.73186759674E+03  0.00000000000E+00 0. -1.
         25    2    1    2    0    0  0.27423967183E+02  0.20727711391E+02 -0.57783989846E+03  0.59222271182E+03  0.12508828940E+03 0.  0.
          5    1    3    3  502    0  0.50793271015E+02 -0.32812667470E+02 -0.17618663691E+03  0.18632184776E+03  0.41800000000E+01 0.  1.
         -5    1    3    3    0  502 -0.23369303832E+02  0.53540378861E+02 -0.40165326155E+03  0.40590086406E+03  0.41800000000E+01 0.  1.
        -11    1    1    2    0    0  0.25538350128E+02 -0.16066233879E+02 -0.11724986779E+02  0.32369839562E+02  0.00000000000E+00 0.  1.
         11    1    1    2    0    0 -0.52962317311E+02 -0.46614775113E+01 -0.11912584086E+03  0.13045191600E+03  0.00000000000E+00 0. -1.
</event>
<event>
 7    1  0.2732144E-009  0.9643010E+02  0.7561462E-02  0.1287987E+00
         -1   -1    0    0    0  501 -0.00000000000E+00  0.00000000000E+00  0.17069752077E+03  0.17069752077E+03  0.00000000000E+00 0.  1.
          1   -1    0    0  501    0  0.00000000000E+00 -0.00000000000E+00 -0.81867056551E+02  0.81867056551E+02  0.00000000000E+00 0. -1.
         25    2    1    2    0    0  0.27673332475E+02  0.22107248865E+02  0.18234127819E+02  0.13128106454E+03  0.12509072990E+03 0.  0.
          5    1    3    3  502    0 -0.15561234597E+02  0.47138562914E+02  0.51077385199E+02  0.71348215216E+02  0.41800000000E+01 0.  1.
         -5    1    3    3    0  502  0.43234567072E+02 -0.25031314049E+02 -0.32843257380E+02  0.59932849325E+02  0.41800000000E+01 0.  1.
        -11    1    1    2    0    0 -0.48790790837E+02  0.14282327310E+02  0.58505467738E+02  0.77507521565E+02  0.00000000000E+00 0.  1.
         11    1    1    2    0    0  0.21117458362E+02 -0.36389576174E+02  0.12090868661E+02  0.43775991214E+02  0.00000000000E+00 0. -1.
</event>
<event>
 7    1  0.2732144E-009  0.1136607E+03  0.7561462E-02  0.1253937E+00
         -1   -1    0    0    0  501 -0.00000000000E+00  0.00000000000E+00  0.38959517490E+02  0.38959517490E+02  0.00000000000E+00 0.  1.
          1   -1    0    0  501    0  0.00000000000E+00 -0.00000000000E+00 -0.47579647816E+03  0.47579647816E+03  0.00000000000E+00 0. -1.
         25    2    1    2    0    0  0.35000141229E+02 -0.71235931899E+02 -0.24966422093E+03  0.29030954749E+03  0.12509133574E+03 0.  0.
          5    1    3    3  502    0  0.27354467629E+02  0.29021077993E+02 -0.11775664398E+03  0.12439690297E+03  0.41800000000E+01 0.  1.
         -5    1    3    3    0  502  0.76456736007E+01 -0.10025700989E+03 -0.13190757695E+03  0.16591264453E+03  0.41800000000E+01 0.  1.
        -11    1    1    2    0    0 -0.16298233198E+01  0.42551752426E+02 -0.17307904941E+03  0.17824047044E+03  0.00000000000E+00 0. -1.
         11    1    1    2    0    0 -0.33370317909E+02  0.28684179473E+02 -0.14093690335E+02  0.46205977716E+02  0.00000000000E+00 0.  1.
</event>
<event>
 7    1  0.2732144E-009  0.9251878E+02  0.7561462E-02  0.1296864E+00
          1   -1    0    0  501    0  0.00000000000E+00  0.00000000000E+00  0.75747088584E+02  0.75747088584E+02  0.00000000000E+00 0. -1.
         -1   -1    0    0    0  501 -0.00000000000E+00 -0.00000000000E+00 -0.17020342381E+03  0.17020342381E+03  0.00000000000E+00 0.  1.
         25    2    1    2    0    0 -0.80223356400E+01  0.43348756105E+00 -0.56709851172E+02  0.13757722301E+03  0.12508772638E+03 0.  0.
          5    1    3    3  502    0 -0.51211340722E+02  0.82420662042E+01  0.14323840510E+02  0.53973862941E+02  0.41800000000E+01 0. -1.
         -5    1    3    3    0  502  0.43189005082E+02 -0.78085786431E+01 -0.71033691682E+02  0.83603360066E+02  0.41800000000E+01 0. -1.
        -11    1    1    2    0    0  0.48418358287E+02 -0.22910709351E+01  0.59497582086E+01  0.48836318944E+02  0.00000000000E+00 0.  1.
         11    1    1    2    0    0 -0.40396022647E+02  0.18575833741E+01 -0.43696242263E+02  0.59536970443E+02  0.00000000000E+00 0. -1.
</event>
<event>
 7    1  0.3928645E-009  0.5625708E+02  0.7561462E-02  0.1414246E+00
         -3   -1    0    0    0  501 -0.00000000000E+00  0.00000000000E+00  0.19645618886E+03  0.19645618886E+03  0.00000000000E+00 0.  1.
          3   -1    0    0  501    0  0.00000000000E+00 -0.00000000000E+00 -0.65598752462E+02  0.65598752462E+02  0.00000000000E+00 0. -1.
         25    2    1    2    0    0  0.26574008409E+00  0.17579382398E+02  0.10874311368E+03  0.16669767408E+03  0.12511572430E+03 0.  0.
          5    1    3    3  502    0  0.10323993660E+01  0.22031535139E+02 -0.24547983929E+02  0.33264550260E+02  0.41800000000E+01 0. -1.
         -5    1    3    3    0  502 -0.76665928195E+00 -0.44521527409E+01  0.13329109760E+03  0.13343312382E+03  0.41800000000E+01 0. -1.
        -11    1    1    2    0    0  0.20630581506E+02 -0.44960086988E+02  0.32729748930E+02  0.59314979392E+02  0.00000000000E+00 0.  1.
         11    1    1    2    0    0 -0.20896321591E+02  0.27380704589E+02 -0.10615426213E+02  0.36042287851E+02  0.00000000000E+00 0. -1.
</event>
<event>
 7    1  0.2732144E-009  0.1226363E+03  0.7561462E-02  0.1238810E+00
          2   -1    0    0  501    0  0.00000000000E+00  0.00000000000E+00  0.76174985594E+02  0.76174985594E+02  0.00000000000E+00 0. -1.
         -2   -1    0    0    0  501 -0.00000000000E+00 -0.00000000000E+00 -0.22185275251E+03  0.22185275251E+03  0.00000000000E+00 0.  1.
         25    2    1    2    0    0  0.11121144683E+02  0.65613840760E+02 -0.33981280320E+02  0.14566246563E+03  0.12503587695E+03 0.  0.
          5    1    3    3  502    0  0.48640598655E+02 -0.16283231776E+02 -0.12240709239E+02  0.52899516418E+02  0.41800000000E+01 0. -1.
         -5    1    3    3    0  502 -0.37519453972E+02  0.81897072535E+02 -0.21740571081E+02  0.92762949215E+02  0.41800000000E+01 0. -1.
        -11    1    1    2    0    0 -0.41441122038E+02 -0.59802089125E+02 -0.78462882724E+02  0.10700504860E+03  0.00000000000E+00 0.  1.
         11    1    1    2    0    0  0.30319977355E+02 -0.58117516343E+01 -0.33233603877E+02  0.45360223880E+02  0.00000000000E+00 0. -1.
</event>
<event>
 7    1  0.2732144E-009  0.2236465E+03  0.7561462E-02  0.1131193E+00
         -1   -1    0    0    0  501 -0.00000000000E+00  0.00000000000E+00  0.34483279745E+03  0.34483279745E+03  0.00000000000E+00 0.  1.
          1   -1    0    0  501    0  0.00000000000E+00 -0.00000000000E+00 -0.19681522263E+03  0.19681522263E+03  0.00000000000E+00 0. -1.
         25    2    1    2    0    0 -0.14069598088E+03  0.15067178536E+03  0.19773491428E+03  0.31184308343E+03  0.12509862676E+03 0.  0.
          5    1    3    3  502    0 -0.10634579504E+02  0.70581420411E+02  0.13973185634E+02  0.72852958109E+02  0.41800000000E+01 0.  1.
         -5    1    3    3    0  502 -0.13006140138E+03  0.80090364948E+02  0.18376172864E+03  0.23899012532E+03  0.41800000000E+01 0.  1.
        -11    1    1    2    0    0  0.50393388288E+02 -0.37434293453E+01 -0.78888585998E+00  0.50538393201E+02  0.00000000000E+00 0.  1.
         11    1    1    2    0    0  0.90302592592E+02 -0.14692835601E+03 -0.48928453595E+02  0.17926654345E+03  0.00000000000E+00 0. -1.
</event>
<event>
 7    1  0.2732144E-009  0.1079371E+03  0.7561462E-02  0.1264439E+00
          1   -1    0    0  501    0  0.00000000000E+00  0.00000000000E+00  0.94177056829E+03  0.94177056829E+03  0.00000000000E+00 0. -1.
         -1   -1    0    0    0  501 -0.00000000000E+00 -0.00000000000E+00 -0.19327155239E+02  0.19327155239E+02  0.00000000000E+00 0.  1.
         25    2    1    2    0    0  0.78015167201E+02  0.13481814928E+02  0.59688966236E+03  0.61497401030E+03  0.12509052192E+03 0.  0.
          5    1    3    3  502    0  0.25502545172E+02 -0.30494546626E+02  0.46110652748E+03  0.46283582323E+03  0.41800000000E+01 0. -1.
         -5    1    3    3    0  502  0.52512622029E+02  0.43976361554E+02  0.13578313488E+03  0.15213818707E+03  0.41800000000E+01 0. -1.
        -11    1    1    2    0    0 -0.54511669669E+02  0.26722831618E+02  0.25085677716E+03  0.25809834271E+03  0.00000000000E+00 0. -1.
         11    1    1    2    0    0 -0.23503497532E+02 -0.40204646546E+02  0.74696973531E+02  0.88025370518E+02  0.00000000000E+00 0.  1.
</event>
<event>
 7    1  0.2732144E-009  0.1265293E+03  0.7561462E-02  0.1232698E+00
         -1   -1    0    0    0  501 -0.00000000000E+00  0.00000000000E+00  0.17707276070E+04  0.17707276070E+04  0.00000000000E+00 0.  1.
          1   -1    0    0  501    0  0.00000000000E+00 -0.00000000000E+00 -0.14069850680E+02  0.14069850680E+02  0.00000000000E+00 0. -1.
         25    2    1    2    0    0  0.71684413596E+02  0.63692221068E+02  0.13191130344E+04  0.13284965195E+04  0.12509376789E+03 0.  0.
          5    1    3    3  502    0 -0.16662233280E+02  0.16060759376E+02  0.76434703763E+03  0.76470873170E+03  0.41800000000E+01 0. -1.
         -5    1    3    3    0  502  0.88346646876E+02  0.47631461692E+02  0.55476599676E+03  0.56378778784E+03  0.41800000000E+01 0. -1.
        -11    1    1    2    0    0 -0.18697083203E+02 -0.72939402877E+02  0.23745500560E+03  0.24910764159E+03  0.00000000000E+00 0. -1.
         11    1    1    2    0    0 -0.52987330393E+02  0.92471818091E+01  0.20008971628E+03  0.20719329650E+03  0.00000000000E+00 0.  1.
</event>
<event>
 7    1  0.2732144E-009  0.1513566E+03  0.7561462E-02  0.1198816E+00
          2   -1    0    0  501    0  0.00000000000E+00  0.00000000000E+00  0.11255981879E+04  0.11255981879E+04  0.00000000000E+00 0. -1.
         -2   -1    0    0    0  501 -0.00000000000E+00 -0.00000000000E+00 -0.24696758337E+02  0.24696758337E+02  0.00000000000E+00 0.  1.
         25    2    1    2    0    0  0.84614032762E+02  0.93191531213E+02  0.52605546445E+03  0.55518170561E+03  0.12509267980E+03 0.  0.
          5    1    3    3  502    0  0.43298967300E+02 -0.23492659073E+02  0.10101976352E+03  0.11246853169E+03  0.41800000000E+01 0.  1.
         -5    1    3    3    0  502  0.41315065462E+02  0.11668419029E+03  0.42503570093E+03  0.44271317392E+03  0.41800000000E+01 0.  1.
        -11    1    1    2    0    0 -0.14546866593E+02 -0.36499455831E+02  0.55476545415E+02  0.67981384914E+02  0.00000000000E+00 0.  1.
         11    1    1    2    0    0 -0.70067166169E+02 -0.56692075382E+02  0.51936941965E+03  0.52713185567E+03  0.00000000000E+00 0. -1.
</event>
<event>
 7    1  0.2732144E-009  0.1931506E+03  0.7561462E-02  0.1155650E+00
         -2   -1    0    0    0  501 -0.00000000000E+00  0.00000000000E+00  0.55950191601E+02  0.55950191601E+02  0.00000000000E+00 0.  1.
          2   -1    0    0  501    0  0.00000000000E+00 -0.00000000000E+00 -0.84572080298E+03  0.84572080298E+03  0.00000000000E+00 0. -1.
         25    2    1    2    0    0 -0.17556256919E+03 -0.47725622265E+01 -0.54241258639E+03  0.58369685736E+03  0.12508243033E+03 0.  0.
          5    1    3    3  502    0 -0.88982215529E+02  0.43589549957E+02 -0.38527765267E+03  0.39783693342E+03  0.41800000000E+01 0. -1.
         -5    1    3    3    0  502 -0.86580353656E+02 -0.48362112184E+02 -0.15713493371E+03  0.18585992394E+03  0.41800000000E+01 0. -1.
        -11    1    1    2    0    0  0.10612666794E+03 -0.29897768592E+02 -0.19608020501E+03  0.22495375750E+03  0.00000000000E+00 0. -1.
         11    1    1    2    0    0  0.69435901250E+02  0.34670330818E+02 -0.51277819976E+02  0.93020379718E+02  0.00000000000E+00 0.  1.
</event>
<event>
 7    1  0.2732144E-009  0.1622662E+03  0.7561462E-02  0.1186162E+00
         -4   -1    0    0    0  501 -0.00000000000E+00  0.00000000000E+00  0.61578683051E+02  0.61578683051E+02  0.00000000000E+00 0.  1.
          4   -1    0    0  501    0  0.00000000000E+00 -0.00000000000E+00 -0.51462193132E+03  0.51462193132E+03  0.00000000000E+00 0. -1.
         25    2    1    2    0    0 -0.68528300802E+02 -0.12050228646E+03 -0.20658065660E+03  0.27846359419E+03  0.12509786790E+03 0.  0.
          5    1    3    3  502    0 -0.18118855035E+02 -0.12744898298E+03 -0.11068994923E+03  0.16982718696E+03  0.41800000000E+01 0. -1.
         -5    1    3    3    0  502 -0.50409445767E+02  0.69466965224E+01 -0.95890707370E+02  0.10863640723E+03  0.41800000000E+01 0. -1.
        -11    1    1    2    0    0  0.35255013994E+02  0.24129497761E+02 -0.15496357501E+03  0.16074469899E+03  0.00000000000E+00 0. -1.
         11    1    1    2    0    0  0.33273286808E+02  0.96372788699E+02 -0.91499016668E+02  0.13699232120E+03  0.00000000000E+00 0.  1.
</event>
<event>
 7    1  0.2732144E-009  0.1153523E+03  0.7561462E-02  0.1250967E+00
          2   -1    0    0  501    0  0.00000000000E+00  0.00000000000E+00  0.17076779916E+03  0.17076779916E+03  0.00000000000E+00 0. -1.
         -2   -1    0    0    0  501 -0.00000000000E+00 -0.00000000000E+00 -0.11492166406E+03  0.11492166406E+03  0.00000000000E+00 0.  1.
         25    2    1    2    0    0  0.56521779741E+02  0.12997666856E+02 -0.12988522050E+02  0.13849219484E+03  0.12509090853E+03 0.  0.
          5    1    3    3  502    0  0.15476498593E+02  0.65524881502E+02  0.92627082133E+01  0.68090397767E+02  0.41800000000E+01 0.  1.
         -5    1    3    3    0  502  0.41045281147E+02 -0.52527214646E+02 -0.22251230263E+02  0.70401797074E+02  0.41800000000E+01 0.  1.
        -11    1    1    2    0    0 -0.65159834837E+02  0.15245499933E+02  0.89061050123E+02  0.11140062833E+03  0.00000000000E+00 0. -1.
         11    1    1    2    0    0  0.86380550967E+01 -0.28243166789E+02 -0.20226392976E+02  0.35796640051E+02  0.00000000000E+00 0.  1.
</event>
<event>
 6    1  0.2732144E-009  0.2672355E+03  0.7561462E-02  0.1102872E+00
         -1   -1    0    0    0  501 -0.00000000000E+00  0.00000000000E+00  0.24651448229E+03  0.24651448229E+03  0.00000000000E+00 0.  1.
          1   -1    0    0  501    0  0.00000000000E+00 -0.00000000000E+00 -0.40688398942E+03  0.40688398942E+03  0.00000000000E+00 0. -1.
          5    1    1    2  502    0 -0.13430941836E+02 -0.40677120800E+02 -0.11279361695E+03  0.12072651233E+03  0.41800000000E+01 0.  1.
         -5    1    1    2    0  502  0.83701485907E+01 -0.21796821180E+03 -0.11979820933E+03  0.24889613115E+03  0.41800000000E+01 0.  1.
        -11    1    1    2    0    0  0.46325175602E+02  0.12103046761E+03  0.47337472656E+02  0.13796822932E+03  0.00000000000E+00 0. -1.
         11    1    1    2    0    0 -0.41264382356E+02  0.13761486499E+03  0.24884846495E+02  0.14580759892E+03  0.00000000000E+00 0.  1.
</event>
<event>
 7    1  0.2732144E-009  0.9008993E+02  0.7561462E-02  0.1302634E+00
          2   -1    0    0  501    0  0.00000000000E+00  0.00000000000E+00  0.69461903363E+03  0.69461903363E+03  0.00000000000E+00 0. -1.
         -2   -1    0    0    0  501 -0.00000000000E+00 -0.00000000000E+00 -0.21820873363E+02  0.21820873363E+02  0.00000000000E+00 0.  1.
         25    2    1    2    0    0 -0.31582049426E+02 -0.41049855417E+02  0.46054320963E+03  0.48003131703E+03  0.12508997132E+03 0.  0.
          5    1    3    3  502    0  0.19721208972E+02 -0.41342900993E+02  0.57118107689E+02  0.73335613257E+02  0.41800000000E+01 0. -1.
         -5    1    3    3    0  502 -0.51303258398E+02  0.29304557625E+00  0.40342510194E+03  0.40669570378E+03  0.41800000000E+01 0. -1.
        -11    1    1    2    0    0 -0.14172397631E+02  0.33449911045E+02  0.16942728430E+03  0.17327826773E+03  0.00000000000E+00 0. -1.
         11    1    1    2    0    0  0.45754447057E+02  0.75999443711E+01  0.42827666343E+02  0.63130322226E+02  0.00000000000E+00 0.  1.
</event>
<event>
 7    1  0.2732144E-009  0.1319842E+03  0.7561462E-02  0.1224541E+00
         -2   -1    0    0    0  501 -0.00000000000E+00  0.00000000000E+00  0.19612951182E+03  0.19612951182E+03  0.00000000000E+00 0.  1.
          2   -1    0    0  501    0  0.00000000000E+00 -0.00000000000E+00 -0.99158116693E+02  0.99158116693E+02  0.00000000000E+00 0. -1.
         25    2    1    2    0    0  0.46334094972E+02  0.62438369458E+02  0.69579056984E+01  0.14744960618E+03  0.12509026970E+03 0.  0.
          5    1    3    3  502    0  0.88555236999E+02  0.54345927694E+02  0.74783410543E+01  0.10425405432E+03  0.41800000000E+01 0. -1.
         -5    1    3    3    0  502 -0.42221142028E+02  0.80924417642E+01 -0.52043535595E+00  0.43195551863E+02  0.41800000000E+01 0. -1.
        -11    1    1    2    0    0 -0.65952140474E+02 -0.18230965440E+02  0.46053069820E+02  0.82479925884E+02  0.00000000000E+00 0. -1.
         11    1    1    2    0    0  0.19618045502E+02 -0.44207404018E+02  0.43960419612E+02  0.65358096451E+02  0.00000000000E+00 0.  1.
</event>
<event>
 7    1  0.2732144E-009  0.2163783E+03  0.7561462E-02  0.1136612E+00
         -2   -1    0    0    0  501 -0.00000000000E+00  0.00000000000E+00  0.85801097665E+02  0.85801097665E+02  0.00000000000E+00 0.  1.
          2   -1    0    0  501    0  0.00000000000E+00 -0.00000000000E+00 -0.88384254656E+03  0.88384254656E+03  0.00000000000E+00 0. -1.
         25    2    1    2    0    0  0.31807738363E+02  0.18417444866E+03 -0.70656057191E+03  0.74148931159E+03  0.12508636082E+03 0.  0.
          5    1    3    3  502    0 -0.32925058291E+01 -0.17875877588E+02 -0.82554571616E+02  0.84635201240E+02  0.41800000000E+01 0.  1.
         -5    1    3    3    0  502  0.35100244192E+02  0.20205032625E+03 -0.62400600029E+03  0.65685411035E+03  0.41800000000E+01 0.  1.
        -11    1    1    2    0    0  0.27246653996E+02 -0.11428575939E+03 -0.53161443397E+02  0.12895640355E+03  0.00000000000E+00 0. -1.
         11    1    1    2    0    0 -0.59054392358E+02 -0.69888689268E+02 -0.38319433593E+02  0.99197929088E+02  0.00000000000E+00 0.  1.
</event>
<event>
 7    1  0.2732144E-009  0.8632502E+02  0.7561462E-02  0.1312003E+00
         -1   -1    0    0    0  501 -0.00000000000E+00  0.00000000000E+00  0.98933414859E+02  0.98933414859E+02  0.00000000000E+00 0.  1.
          1   -1    0    0  501    0  0.00000000000E+00 -0.00000000000E+00 -0.15893636014E+03  0.15893636014E+03  0.00000000000E+00 0. -1.
         25    2    1    2    0    0 -0.25549575253E+02  0.57354930857E+02 -0.41694517737E+02  0.14604106379E+03  0.12508873096E+03 0.  0.
          5    1    3    3  502    0 -0.26200582131E+02  0.75344004674E+02  0.19409827011E+02  0.82203426503E+02  0.41800000000E+01 0.  1.
         -5    1    3    3    0  502  0.65100687774E+00 -0.17989073818E+02 -0.61104344748E+02  0.63837637283E+02  0.41800000000E+01 0.  1.
        -11    1    1    2    0    0  0.29853269556E+02 -0.18333914259E+02 -0.50223293751E+02  0.61235033686E+02  0.00000000000E+00 0. -1.
         11    1    1    2    0    0 -0.43036943036E+01 -0.39021016597E+02  0.31914866206E+02  0.50593677529E+02  0.00000000000E+00 0.  1.
</event>
<event>
 7    1  0.2732144E-009  0.6273938E+02  0.7561462E-02  0.1386683E+00
          1   -1    0    0  501    0  0.00000000000E+00  0.00000000000E+00  0.14238092819E+04  0.14238092819E+04  0.00000000000E+00 0. -1.
         -1   -1    0    0    0  501 -0.00000000000E+00 -0.00000000000E+00 -0.14004001105E+02  0.14004001105E+02  0.00000000000E+00 0.  1.
         25    2    1    2    0    0 -0.41282199737E+02  0.13533822786E+02  0.11921644421E+04  0.11994959246E+04  0.12508809632E+03 0.  0.
          5    1    3    3  502    0 -0.86421815485E+01  0.16361982894E+02  0.11196883794E+04  0.11198490707E+04  0.41800000000E+01 0.  1.
         -5    1    3    3    0  502 -0.32640018188E+02 -0.28281601085E+01  0.72476062647E+02  0.79646853884E+02  0.41800000000E+01 0.  1.
        -11    1    1    2    0    0  0.32092060592E+02  0.20597612460E+02  0.33325761131E+02  0.50643542007E+02  0.00000000000E+00 0.  1.
         11    1    1    2    0    0  0.91901391448E+01 -0.34131435246E+02  0.18431507762E+03  0.18767381641E+03  0.00000000000E+00 0. -1.
</event>
<event>
 7    1  0.2732144E-009  0.1089563E+03  0.7561462E-02  0.1262515E+00
         -4   -1    0    0    0  501 -0.00000000000E+00  0.00000000000E+00  0.30778002356E+02  0.30778002356E+02  0.00000000000E+00 0. -1.
          4   -1    0    0  501    0  0.00000000000E+00 -0.00000000000E+00 -0.44748066610E+03  0.44748066610E+03  0.00000000000E+00 0.  1.
         25    2    1    2    0    0 -0.22362731506E+02  0.60758326791E+02 -0.23274536592E+03  0.27204516942E+03  0.12508598169E+03 0.  0.
          5    1    3    3  502    0 -0.58902215657E+02 -0.81722527073E+01 -0.73248104038E+02  0.94440530858E+02  0.41800000000E+01 0. -1.
         -5    1    3    3    0  502  0.36539484151E+02  0.68930579498E+02 -0.15949726188E+03  0.17760463856E+03  0.41800000000E+01 0. -1.
        -11    1    1    2    0    0  0.36480653740E+02 -0.33762567253E+02 -0.56894002413E+02  0.75549166477E+02  0.00000000000E+00 0. -1.
         11    1    1    2    0    0 -0.14117922234E+02 -0.26995759538E+02 -0.12706329541E+03  0.13066433256E+03  0.00000000000E+00 0.  1.
</event>
<event>
 7    1  0.2732144E-009  0.1653790E+03  0.7561462E-02  0.1182754E+00
          2   -1    0    0  501    0  0.00000000000E+00  0.00000000000E+00  0.80493380769E+03  0.80493380769E+03  0.00000000000E+00 0.  1.
         -2   -1    0    0    0  501 -0.00000000000E+00 -0.00000000000E+00 -0.47435798774E+02  0.47435798774E+02  0.00000000000E+00 0. -1.
         25    2    1    2    0    0  0.13095434818E+03 -0.26549881779E+02  0.19669633465E+03  0.26868269198E+03  0.12508798254E+03 0.  0.
          5    1    3    3  502    0  0.12165144983E+03  0.29489460957E+02  0.14671781033E+03  0.19290487765E+03  0.41800000000E+01 0.  1.
         -5    1    3    3    0  502  0.93028983542E+01 -0.56039342736E+02  0.49978524322E+02  0.75777814335E+02  0.41800000000E+01 0.  1.
        -11    1    1    2    0    0 -0.15307431624E+02  0.29098034583E+02  0.49226389661E+02  0.59196710369E+02  0.00000000000E+00 0. -1.
         11    1    1    2    0    0 -0.11564691656E+03 -0.25481528035E+01  0.51157528461E+03  0.52449020412E+03  0.00000000000E+00 0.  1.
</event>
<event>
 7    1  0.2732144E-009  0.1146424E+03  0.7561462E-02  0.1252207E+00
          1   -1    0    0  501    0  0.00000000000E+00  0.00000000000E+00  0.24905288970E+03  0.24905288970E+03  0.00000000000E+00 0. -1.
         -1   -1    0    0    0  501 -0.00000000000E+00 -0.00000000000E+00 -0.60352509413E+02  0.60352509413E+02  0.00000000000E+00 0.  1.
         25    2    1    2    0    0 -0.13598249222E+02  0.55552390466E+02  0.10539344610E+03  0.17327729144E+03  0.12508501422E+03 0.  0.
          5    1    3    3  502    0  0.37524909876E+01 -0.32743369282E+02 -0.17861559916E+01  0.33269688513E+02  0.41800000000E+01 0.  1.
         -5    1    3    3    0  502 -0.17350740209E+02  0.88295759747E+02  0.10717960209E+03  0.14000760293E+03  0.41800000000E+01 0.  1.
        -11    1    1    2    0    0  0.26406741619E+02  0.17588303670E+02  0.14457159576E+02  0.34866515340E+02  0.00000000000E+00 0.  1.
         11    1    1    2    0    0 -0.12808492398E+02 -0.73140694135E+02  0.68849774610E+02  0.10126159232E+03  0.00000000000E+00 0. -1.
</event>
<event>
 7    1  0.2732144E-009  0.2954153E+03  0.7561462E-02  0.1087555E+00
          1   -1    0    0  501    0  0.00000000000E+00  0.00000000000E+00  0.28781425388E+03  0.28781425388E+03  0.00000000000E+00 0. -1.
         -1   -1    0    0    0  501 -0.00000000000E+00 -0.00000000000E+00 -0.34136653153E+03  0.34136653153E+03  0.00000000000E+00 0.  1.
         25    2    1    2    0    0 -0.28561663329E+02 -0.28980754628E+03  0.10476855778E+02  0.31712208319E+03  0.12510982634E+03 0.  0.
          5    1    3    3  502    0 -0.44693882196E+02 -0.21535753233E+03  0.57661439877E+02  0.22741751007E+03  0.41800000000E+01 0.  1.
         -5    1    3    3    0  502  0.16132218867E+02 -0.74450013949E+02 -0.47184584098E+02  0.89704573123E+02  0.41800000000E+01 0.  1.
        -11    1    1    2    0    0 -0.85327539516E+01  0.13855249551E+03  0.10883352138E+02  0.13924097549E+03  0.00000000000E+00 0.  1.
         11    1    1    2    0    0  0.37094417280E+02  0.15125505077E+03 -0.74912485570E+02  0.17281772673E+03  0.00000000000E+00 0. -1.
</event>
<event>
 7    1  0.2732144E-009  0.1352493E+03  0.7561462E-02  0.1219868E+00
         -2   -1    0    0    0  501 -0.00000000000E+00  0.00000000000E+00  0.53400763444E+03  0.53400763444E+03  0.00000000000E+00 0.  1.
          2   -1    0    0  501    0  0.00000000000E+00 -0.00000000000E+00 -0.44140400561E+02  0.44140400561E+02  0.00000000000E+00 0. -1.
         25    2    1    2    0    0  0.10358688946E+03 -0.29637419085E+02  0.30545070580E+03  0.34721105183E+03  0.12508701195E+03 0.  0.
          5    1    3    3  502    0  0.44065856278E+02  0.39192313943E+02  0.19647716063E+03  0.20517939519E+03  0.41800000000E+01 0. -1.
         -5    1    3    3    0  502  0.59521033181E+02 -0.68829733028E+02  0.10897354518E+03  0.14203165664E+03  0.41800000000E+01 0. -1.
        -11    1    1    2    0    0 -0.67540912286E+02 -0.81877550725E+01  0.15876802987E+03  0.17273129848E+03  0.00000000000E+00 0.  1.
         11    1    1    2    0    0 -0.36045977172E+02  0.37825174157E+02  0.25648498202E+02  0.58205684691E+02  0.00000000000E+00 0. -1.
</event>
<event>
 7    1  0.2732144E-009  0.1114403E+03  0.7561462E-02  0.1257926E+00
         -2   -1    0    0    0  501 -0.00000000000E+00  0.00000000000E+00  0.28542859869E+02  0.28542859869E+02  0.00000000000E+00 0.  1.
          2   -1    0    0  501    0  0.00000000000E+00 -0.00000000000E+00 -0.46157817897E+03  0.46157817897E+03  0.00000000000E+00 0. -1.
         25    2    1    2    0    0 -0.35126684166E+02  0.13937520227E+02 -0.26419930534E+03  0.29475081234E+03  0.12509448438E+03 0.  0.
          5    1    3    3  502    0  0.47244303091E+02  0.41804099465E+01 -0.94257243025E+02  0.10560019065E+03  0.41800000000E+01 0.  1.
         -5    1    3    3    0  502 -0.82370987257E+02  0.97571102802E+01 -0.16994206231E+03  0.18915062169E+03  0.41800000000E+01 0.  1.
        -11    1    1    2    0    0  0.45483589766E+02  0.25015810187E+02 -0.60154030645E+02  0.79454736172E+02  0.00000000000E+00 0.  1.
         11    1    1    2    0    0 -0.10356905600E+02 -0.38953330414E+02 -0.10868198312E+03  0.11591549033E+03  0.00000000000E+00 0. -1.
</event>
<event>
 7    1  0.2732144E-009  0.1183430E+03  0.7561462E-02  0.1245856E+00
          2   -1    0    0  501    0  0.00000000000E+00  0.00000000000E+00  0.10735243696E+04  0.10735243696E+04  0.00000000000E+00 0.  1.
         -2   -1    0    0    0  501 -0.00000000000E+00 -0.00000000000E+00 -0.27759370588E+02  0.27759370588E+02  0.00000000000E+00 0. -1.
         25    2    1    2    0    0 -0.63376508840E+02 -0.58737647568E+02  0.86374664039E+03  0.87702490441E+03  0.12509089120E+03 0.  0.
          5    1    3    3  502    0  0.24662815869E+02  0.18640064530E+02  0.27073328344E+03  0.27252465880E+03  0.41800000000E+01 0.  1.
         -5    1    3    3    0  502 -0.88039324709E+02 -0.77377712098E+02  0.59301335695E+03  0.60450024561E+03  0.41800000000E+01 0.  1.
        -11    1    1    2    0    0  0.12349799388E+02  0.22344385476E+02  0.15313467196E+03  0.15524824271E+03  0.00000000000E+00 0.  1.
         11    1    1    2    0    0  0.51026709452E+02  0.36393262092E+02  0.28883686699E+02  0.69010593104E+02  0.00000000000E+00 0. -1.
</event>
<event>
 7    1  0.2732144E-009  0.9499791E+02  0.7561462E-02  0.1291181E+00
         -2   -1    0    0    0  501 -0.00000000000E+00  0.00000000000E+00  0.53953114323E+03  0.53953114323E+03  0.00000000000E+00 0.  1.
          2   -1    0    0  501    0  0.00000000000E+00 -0.00000000000E+00 -0.24026295228E+02  0.24026295228E+02  0.00000000000E+00 0. -1.
         25    2    1    2    0    0  0.25503079351E+02 -0.23476159100E+02  0.29080069333E+03  0.31845583163E+03  0.12509011294E+03 0.  0.
          5    1    3    3  502    0  0.72458181167E+02 -0.22705178851E+02  0.12722120792E+03  0.14821747977E+03  0.41800000000E+01 0. -1.
         -5    1    3    3    0  502 -0.46955101816E+02 -0.77098024934E+00  0.16357948541E+03  0.17023835186E+03  0.41800000000E+01 0. -1.
        -11    1    1    2    0    0  0.14531894657E+02 -0.73394595978E+01  0.16112133122E+01  0.16359695531E+02  0.00000000000E+00 0. -1.
         11    1    1    2    0    0 -0.40034974008E+02  0.30815618698E+02  0.22309294136E+03  0.22874191129E+03  0.00000000000E+00 0.  1.
</event>
<event>
 7    1  0.2732144E-009  0.2438583E+03  0.7561462E-02  0.1117249E+00
          2   -1    0    0  501    0  0.00000000000E+00  0.00000000000E+00  0.24130768973E+04  0.24130768973E+04  0.00000000000E+00 0. -1.
         -2   -1    0    0    0  501 -0.00000000000E+00 -0.00000000000E+00 -0.34174228764E+02  0.34174228764E+02  0.00000000000E+00 0.  1.
         25    2    1    2    0    0  0.15860473005E+03  0.17170444374E+03  0.17291573884E+04  0.17493629985E+04  0.12509096870E+03 0.  0.
          5    1    3    3  502    0  0.80347492705E+02  0.89289616028E+02  0.12947096077E+04  0.13002764306E+04  0.41800000000E+01 0. -1.
         -5    1    3    3    0  502  0.78257237345E+02  0.82414827714E+02  0.43444778065E+03  0.44908656798E+03  0.41800000000E+01 0. -1.
        -11    1    1    2    0    0 -0.11324848806E+03 -0.49771311900E+02  0.28720942697E+03  0.31271657851E+03  0.00000000000E+00 0.  1.
         11    1    1    2    0    0 -0.45356241994E+02 -0.12193313184E+03  0.36253585317E+03  0.38517154900E+03  0.00000000000E+00 0. -1.
</event>
<event>
 7    1  0.2732144E-009  0.9663099E+02  0.7561462E-02  0.1287544E+00
         -2   -1    0    0    0  501 -0.00000000000E+00  0.00000000000E+00  0.52948893444E+02  0.52948893444E+02  0.00000000000E+00 0. -1.
          2   -1    0    0  501    0  0.00000000000E+00 -0.00000000000E+00 -0.37122258950E+03  0.37122258950E+03  0.00000000000E+00 0.  1.
         25    2    1    2    0    0 -0.82743482388E+02 -0.14628933677E+02 -0.18377347028E+03  0.23765719692E+03  0.12509102802E+03 0.  0.
          5    1    3    3  502    0 -0.42328677017E+02  0.25328986089E+02 -0.17263431923E+03  0.17959219084E+03  0.41800000000E+01 0.  1.
         -5    1    3    3    0  502 -0.40414805371E+02 -0.39957919766E+02 -0.11139151054E+02  0.58065006083E+02  0.41800000000E+01 0.  1.
        -11    1    1    2    0    0  0.54232833716E+02 -0.10300104960E+01 -0.14295977760E+03  0.15290441192E+03  0.00000000000E+00 0.  1.
         11    1    1    2    0    0  0.28510648672E+02  0.15658944173E+02  0.84595518215E+01  0.33609874105E+02  0.00000000000E+00 0. -1.
</event>
<event>
 7    1  0.2732144E-009  0.1130188E+03  0.7561462E-02  0.1255080E+00
          1   -1    0    0  501    0  0.00000000000E+00  0.00000000000E+00  0.14939768601E+02  0.14939768601E+02  0.00000000000E+00 0. -1.
         -1   -1    0    0    0  501 -0.00000000000E+00 -0.00000000000E+00 -0.92425792330E+03  0.92425792330E+03  0.00000000000E+00 0.  1.
         25    2    1    2    0    0 -0.12253846204E+00  0.29270915493E+02 -0.38796626252E+03  0.40868746262E+03  0.12510323630E+03 0.  0.
          5    1    3    3  502    0  0.55405081359E+02  0.43370526881E+02 -0.19472481824E+03  0.20708923893E+03  0.41800000000E+01 0. -1.
         -5    1    3    3    0  502 -0.55527619821E+02 -0.14099611389E+02 -0.19324144428E+03  0.20159822368E+03  0.41800000000E+01 0. -1.
        -11    1    1    2    0    0  0.45296854949E+02 -0.19968151025E+01 -0.24843913690E+03  0.25254266388E+03  0.00000000000E+00 0.  1.
         11    1    1    2    0    0 -0.45174316487E+02 -0.27274100390E+02 -0.27291275528E+03  0.27796756541E+03  0.00000000000E+00 0. -1.
</event>
<event>
 7    1  0.2732144E-009  0.8124351E+02  0.7561462E-02  0.1325559E+00
         -2   -1    0    0    0  501 -0.00000000000E+00  0.00000000000E+00  0.10738606029E+03  0.10738606029E+03  0.00000000000E+00 0.  1.
          2   -1    0    0  501    0  0.00000000000E+00 -0.00000000000E+00 -0.13923925680E+03  0.13923925680E+03  0.00000000000E+00 0. -1.
         25    2    1    2    0    0  0.31126739228E+02 -0.19671458852E+02 -0.60481062050E+02  0.14374189858E+03  0.12509170377E+03 0.  0.
          5    1    3    3  502    0  0.62826981816E+02 -0.22736966510E+02  0.86605968333E+01  0.67503167539E+02  0.41800000000E+01 0. -1.
         -5    1    3    3    0  502 -0.31700242589E+02  0.30655076585E+01 -0.69141658883E+02  0.76238731039E+02  0.41800000000E+01 0. -1.
        -11    1    1    2    0    0 -0.18926212315E+02  0.37390291567E+02  0.54810759396E+02  0.68996048884E+02  0.00000000000E+00 0.  1.
         11    1    1    2    0    0 -0.12200526913E+02 -0.17718832715E+02 -0.26182893851E+02  0.33887369626E+02  0.00000000000E+00 0. -1.
</event>
<event>
 7    1  0.2732144E-009  0.2002553E+03  0.7561462E-02  0.1149524E+00
         -2   -1    0    0    0  501 -0.00000000000E+00  0.00000000000E+00  0.87816262942E+02  0.87816262942E+02  0.00000000000E+00 0. -1.
          2   -1    0    0  501    0  0.00000000000E+00 -0.00000000000E+00 -0.54467675880E+03  0.54467675880E+03  0.00000000000E+00 0.  1.
         25    2    1    2    0    0 -0.11630395665E+03 -0.13815256105E+03 -0.15510788765E+03  0.26892218300E+03  0.12509173929E+03 0.  0.
          5    1    3    3  502    0 -0.46237265189E+02  0.16905925283E+02 -0.32100617099E+02  0.58920429564E+02  0.41800000000E+01 0. -1.
         -5    1    3    3    0  502 -0.70066691457E+02 -0.15505848634E+03 -0.12300727055E+03  0.21000175343E+03  0.41800000000E+01 0. -1.
        -11    1    1    2    0    0  0.47701382509E+02  0.48738762812E+02 -0.41168149497E+02  0.79659936146E+02  0.00000000000E+00 0. -1.
         11    1    1    2    0    0  0.68602574137E+02  0.89413798241E+02 -0.26058445871E+03  0.28391090260E+03  0.00000000000E+00 0.  1.
</event>
<event>
 7    1  0.2732144E-009  0.8946995E+02  0.7561462E-02  0.1304140E+00
          1   -1    0    0  501    0  0.00000000000E+00  0.00000000000E+00  0.37885901702E+03  0.37885901702E+03  0.00000000000E+00 0. -1.
         -1   -1    0    0    0  501 -0.00000000000E+00 -0.00000000000E+00 -0.34788374141E+02  0.34788374141E+02  0.00000000000E+00 0.  1.
         25    2    1    2    0    0 -0.14864494232E+02 -0.21189608649E+02  0.14594913673E+03  0.19395390849E+03  0.12508803062E+03 0.  0.
          5    1    3    3  502    0  0.40324786041E+02 -0.22976554601E+01  0.44545428117E+01  0.40849515806E+02  0.41800000000E+01 0. -1.
         -5    1    3    3    0  502 -0.55189280273E+02 -0.18891953189E+02  0.14149459391E+03  0.15310439268E+03  0.41800000000E+01 0. -1.
        -11    1    1    2    0    0 -0.62260886600E+01 -0.26756548745E+02  0.19867003323E+02  0.33902432092E+02  0.00000000000E+00 0.  1.
         11    1    1    2    0    0  0.21090582892E+02  0.47946157394E+02  0.17825450283E+03  0.18579105058E+03  0.00000000000E+00 0. -1.
</event>
<event>
 7    1  0.2732144E-009  0.9068065E+02  0.7561462E-02  0.1301212E+00
          1   -1    0    0  501    0  0.00000000000E+00  0.00000000000E+00  0.51379145271E+02  0.51379145271E+02  0.00000000000E+00 0. -1.
         -1   -1    0    0    0  501 -0.00000000000E+00 -0.00000000000E+00 -0.37877246895E+03  0.37877246895E+03  0.00000000000E+00 0.  1.
         25    2    1    2    0    0  0.33188769034E+02 -0.44930596219E+02 -0.28366328368E+03  0.31501178843E+03  0.12508923005E+03 0.  0.
          5    1    3    3  502    0  0.28787760724E+02 -0.57307770291E+02 -0.29194152297E+03  0.29893183326E+03  0.41800000000E+01 0.  1.
         -5    1    3    3    0  502  0.44010083096E+01  0.12377174073E+02  0.82782392952E+01  0.16079955162E+02  0.41800000000E+01 0.  1.
        -11    1    1    2    0    0  0.29693876910E+02  0.19224594481E+02 -0.20380037634E+01  0.35432538975E+02  0.00000000000E+00 0. -1.
         11    1    1    2    0    0 -0.62882645944E+02  0.25706001738E+02 -0.41692036234E+02  0.79707286816E+02  0.00000000000E+00 0.  1.
</event>
<event>
 7    1  0.2732144E-009  0.1244153E+03  0.7561462E-02  0.1235986E+00
         -2   -1    0    0    0  501 -0.00000000000E+00  0.00000000000E+00  0.32658878739E+02  0.32658878739E+02  0.00000000000E+00 0.  1.
          2   -1    0    0  501    0  0.00000000000E+00 -0.00000000000E+00 -0.51386985440E+03  0.51386985440E+03  0.00000000000E+00 0. -1.
         25    2    1    2    0    0 -0.96382127473E+01 -0.60986118122E+02 -0.19641939668E+03  0.24091428258E+03  0.12508761093E+03 0.  0.
          5    1    3    3  502    0  0.53956652361E+02 -0.46228443010E+01 -0.81026572930E+02  0.97547265181E+02  0.41800000000E+01 0. -1.
         -5    1    3    3    0  502 -0.63594865109E+02 -0.56363273821E+02 -0.11539282375E+03  0.14336701740E+03  0.41800000000E+01 0. -1.
        -11    1    1    2    0    0  0.48729641510E+02  0.47587661007E+02 -0.20019371944E+03  0.21146320896E+03  0.00000000000E+00 0. -1.
         11    1    1    2    0    0 -0.39091428762E+02  0.13398457115E+02 -0.84597859539E+02  0.94151241597E+02  0.00000000000E+00 0.  1.
</event>
<event>
 7    1  0.2732144E-009  0.1136892E+03  0.7561462E-02  0.1253887E+00
          1   -1    0    0  501    0  0.00000000000E+00  0.00000000000E+00  0.15872300945E+03  0.15872300945E+03  0.00000000000E+00 0. -1.
         -1   -1    0    0    0  501 -0.00000000000E+00 -0.00000000000E+00 -0.20099228435E+03  0.20099228435E+03  0.00000000000E+00 0.  1.
         25    2    1    2    0    0 -0.85369341952E+02  0.67454043352E+02  0.66165308814E+02  0.17850231691E+03  0.12508899449E+03 0.  0.
          5    1    3    3  502    0 -0.37480022897E+02  0.10011573899E+02 -0.35142317141E+02  0.52511318612E+02  0.41800000000E+01 0. -1.
         -5    1    3    3    0  502 -0.47889319055E+02  0.57442469454E+02  0.10130762596E+03  0.12599099830E+03  0.41800000000E+01 0. -1.
        -11    1    1    2    0    0  0.24392075118E+02 -0.27487759596E+01 -0.86113783425E+02  0.89543915448E+02  0.00000000000E+00 0.  1.
         11    1    1    2    0    0  0.60977266833E+02 -0.64705267393E+02 -0.22320800286E+02  0.91669061434E+02  0.00000000000E+00 0. -1.
</event>
<event>
 7    1  0.2732144E-009  0.2236203E+03  0.7561462E-02  0.1131212E+00
         -2   -1    0    0    0  501 -0.00000000000E+00  0.00000000000E+00  0.26943926491E+03  0.26943926491E+03  0.00000000000E+00 0.  1.
          2   -1    0    0  501    0  0.00000000000E+00 -0.00000000000E+00 -0.20605695699E+03  0.20605695699E+03  0.00000000000E+00 0. -1.
         25    2    1    2    0    0 -0.14573629063E+03 -0.14830024217E+03  0.40497292344E+02  0.24601509344E+03  0.12510542465E+03 0.  0.
          5    1    3    3  502    0 -0.11197500624E+02  0.15348239535E+02 -0.17672342795E+02  0.26281867835E+02  0.41800000000E+01 0.  1.
         -5    1    3    3    0  502 -0.13453879000E+03 -0.16364848171E+03  0.58169635140E+02  0.21973322560E+03  0.41800000000E+01 0.  1.
        -11    1    1    2    0    0  0.39264826524E+02  0.85145206042E+01  0.35087160637E+02  0.53341658248E+02  0.00000000000E+00 0.  1.
         11    1    1    2    0    0  0.10647146410E+03  0.13978572157E+03 -0.12202145054E+02  0.17613947021E+03  0.00000000000E+00 0. -1.
</event>
<event>
 7    1  0.2732144E-009  0.1478872E+03  0.7561462E-02  0.1203093E+00
          2   -1    0    0  501    0  0.00000000000E+00  0.00000000000E+00  0.52389406412E+02  0.52389406412E+02  0.00000000000E+00 0. -1.
         -2   -1    0    0    0  501 -0.00000000000E+00 -0.00000000000E+00 -0.58860525683E+03  0.58860525683E+03  0.00000000000E+00 0.  1.
         25    2    1    2    0    0 -0.11456409838E+03  0.62830276159E+02 -0.36411245338E+03  0.40656813991E+03  0.12508875825E+03 0.  0.
          5    1    3    3  502    0 -0.12525486137E+03  0.41151692097E+02 -0.35765192949E+03  0.38120154397E+03  0.41800000000E+01 0. -1.
         -5    1    3    3    0  502  0.10690762990E+02  0.21678584062E+02 -0.64605238911E+01  0.25366595933E+02  0.41800000000E+01 0. -1.
        -11    1    1    2    0    0  0.47257246990E+02 -0.53505047780E+02 -0.14433131146E+03  0.16102038690E+03  0.00000000000E+00 0.  1.
         11    1    1    2    0    0  0.67306851391E+02 -0.93252283789E+01 -0.27772085576E+02  0.73406136431E+02  0.00000000000E+00 0. -1.
</event>
<event>
 7    1  0.2732144E-009  0.1361027E+03  0.7561462E-02  0.1218671E+00
         -1   -1    0    0    0  501 -0.00000000000E+00  0.00000000000E+00  0.79167003816E+02  0.79167003816E+02  0.00000000000E+00 0.  1.
          1   -1    0    0  501    0  0.00000000000E+00 -0.00000000000E+00 -0.26523622933E+03  0.26523622933E+03  0.00000000000E+00 0. -1.
         25    2    1    2    0    0 -0.23821501109E+02  0.91898605754E+02 -0.10004789019E+03  0.18619549615E+03  0.12508543001E+03 0.  0.
          5    1    3    3  502    0 -0.59294044819E+02  0.86208596322E+02 -0.10661168134E+03  0.14943637050E+03  0.41800000000E+01 0. -1.
         -5    1    3    3    0  502  0.35472543709E+02  0.56900094327E+01  0.65637911439E+01  0.36759125652E+02  0.41800000000E+01 0. -1.
        -11    1    1    2    0    0  0.58471118162E+02 -0.65212039835E+02 -0.68086284657E+02  0.11093792840E+03  0.00000000000E+00 0. -1.
         11    1    1    2    0    0 -0.34649617052E+02 -0.26686565919E+02 -0.17935050662E+02  0.47269808596E+02  0.00000000000E+00 0.  1.
</event>
<event>
 7    1  0.2732144E-009  0.1122786E+03  0.7561462E-02  0.1256408E+00
         -2   -1    0    0    0  501 -0.00000000000E+00  0.00000000000E+00  0.94499525910E+02  0.94499525910E+02  0.00000000000E+00 0.  1.
          2   -1    0    0  501    0  0.00000000000E+00 -0.00000000000E+00 -0.31454440015E+03  0.31454440015E+03  0.00000000000E+00 0. -1.
         25    2    1    2    0    0  0.36336799920E+02 -0.61226353365E+02 -0.25158794806E+03  0.28985119586E+03  0.12509272864E+03 0.  0.
          5    1    3    3  502    0  0.16372778122E+02 -0.87965505279E+02 -0.98606528186E+02  0.13321680744E+03  0.41800000000E+01 0.  1.
         -5    1    3    3    0  502  0.19964021798E+02  0.26739151914E+02 -0.15298141987E+03  0.15663438842E+03  0.41800000000E+01 0.  1.
        -11    1    1    2    0    0  0.14508957008E+02  0.46063274188E+02  0.43281991994E+02  0.64851105568E+02  0.00000000000E+00 0.  1.
         11    1    1    2    0    0 -0.50845756928E+02  0.15163079177E+02 -0.11738918179E+02  0.54341624633E+02  0.00000000000E+00 0. -1.
</event>
<event>
 7    1  0.2732144E-009  0.9967744E+02  0.7561462E-02  0.1280976E+00
          1   -1    0    0  501    0  0.00000000000E+00  0.00000000000E+00  0.62077802293E+03  0.62077802293E+03  0.00000000000E+00 0. -1.
         -1   -1    0    0    0  501 -0.00000000000E+00 -0.00000000000E+00 -0.28191079898E+02  0.28191079898E+02  0.00000000000E+00 0.  1.
         25    2    1    2    0    0  0.46404772348E+01  0.38151989228E+02  0.48698878504E+03  0.50426509417E+03  0.12509236642E+03 0.  0.
          5    1    3    3  502    0  0.32951895157E+02 -0.22739552782E+02  0.61586157472E+02  0.73574736475E+02  0.41800000000E+01 0.  1.
         -5    1    3    3    0  502 -0.28311417922E+02  0.60891542010E+02  0.42540262757E+03  0.43069035770E+03  0.41800000000E+01 0.  1.
        -11    1    1    2    0    0  0.36108237676E+02 -0.16199644677E+00  0.16680520874E+02  0.39775254211E+02  0.00000000000E+00 0.  1.
         11    1    1    2    0    0 -0.40748714911E+02 -0.37989992781E+02  0.88917637119E+02  0.10492875444E+03  0.00000000000E+00 0. -1.
</event>
<event>
 7    1  0.2732144E-009  0.1482619E+03  0.7561462E-02  0.1202625E+00
         -1   -1    0    0    0  501 -0.00000000000E+00  0.00000000000E+00  0.12294135231E+03  0.12294135231E+03  0.00000000000E+00 0.  1.
          1   -1    0    0  501    0  0.00000000000E+00 -0.00000000000E+00 -0.49827102247E+03  0.49827102247E+03  0.00000000000E+00 0. -1.
         25    2    1    2    0    0 -0.12467435300E+03  0.35407715783E+01  0.37085327983E+02  0.18049794066E+03  0.12509178100E+03 0.  0.
          5    1    3    3  502    0 -0.49517576498E+01  0.19304567809E+02  0.54723216594E+02  0.58389117792E+02  0.41800000000E+01 0.  1.
         -5    1    3    3    0  502 -0.11972259535E+03 -0.15763796231E+02 -0.17637888611E+02  0.12210882287E+03  0.41800000000E+01 0.  1.
        -11    1    1    2    0    0  0.12049637840E+03  0.27843208302E+02 -0.33269895450E+03  0.35494114410E+03  0.00000000000E+00 0.  1.
         11    1    1    2    0    0  0.41779745984E+01 -0.31383979881E+02 -0.79716043651E+02  0.85773290017E+02  0.00000000000E+00 0. -1.
</event>
<event>
 7    1  0.2732144E-009  0.1022211E+03  0.7561462E-02  0.1275693E+00
          2   -1    0    0  501    0  0.00000000000E+00  0.00000000000E+00  0.21356900145E+03  0.21356900145E+03  0.00000000000E+00 0. -1.
         -2   -1    0    0    0  501 -0.00000000000E+00 -0.00000000000E+00 -0.10422594607E+03  0.10422594607E+03  0.00000000000E+00 0.  1.
         25    2    1    2    0    0 -0.63626461586E+01 -0.80751266457E+02 -0.75401507483E+01  0.14921722309E+03  0.12509066909E+03 0.  0.
          5    1    3    3  502    0 -0.49431161382E+02 -0.46821030764E+02  0.37764900102E+02  0.77969921875E+02  0.41800000000E+01 0. -1.
         -5    1    3    3    0  502  0.43068515224E+02 -0.33930235693E+02 -0.45305050851E+02  0.71247301214E+02  0.41800000000E+01 0. -1.
        -11    1    1    2    0    0 -0.57007646084E+00  0.31380476944E+02  0.11443664152E+03  0.11866256462E+03  0.00000000000E+00 0. -1.
         11    1    1    2    0    0  0.69327226195E+01  0.49370789513E+02  0.24465646118E+01  0.49915159806E+02  0.00000000000E+00 0.  1.
</event>
<event>
 7    1  0.2732144E-009  0.7265144E+02  0.7561462E-02  0.1351302E+00
          2   -1    0    0  501    0  0.00000000000E+00  0.00000000000E+00  0.10386549882E+03  0.10386549882E+03  0.00000000000E+00 0. -1.
         -2   -1    0    0    0  501 -0.00000000000E+00 -0.00000000000E+00 -0.17570596357E+03  0.17570596357E+03  0.00000000000E+00 0.  1.
         25    2    1    2    0    0 -0.21484466475E+02 -0.59846903915E+02 -0.92144217924E+02  0.16787272534E+03  0.12508981097E+03 0.  0.
          5    1    3    3  502    0 -0.21801700643E+01 -0.61354976897E+02 -0.11931427704E+03  0.13424811149E+03  0.41800000000E+01 0.  1.
         -5    1    3    3    0  502 -0.19304296411E+02  0.15080729814E+01  0.27170059120E+02  0.33624613851E+02  0.41800000000E+01 0.  1.
        -11    1    1    2    0    0  0.98023435218E+01  0.37271864445E+02 -0.34221213326E+02  0.51539977292E+02  0.00000000000E+00 0.  1.
         11    1    1    2    0    0  0.11682122954E+02  0.22575039470E+02  0.54524966503E+02  0.60158759761E+02  0.00000000000E+00 0. -1.
</event>
<event>
 7    1  0.2732144E-009  0.2586511E+03  0.7561462E-02  0.1107956E+00
          1   -1    0    0  501    0  0.00000000000E+00  0.00000000000E+00  0.14751982088E+04  0.14751982088E+04  0.00000000000E+00 0. -1.
         -1   -1    0    0    0  501 -0.00000000000E+00 -0.00000000000E+00 -0.47447851161E+02  0.47447851161E+02  0.00000000000E+00 0.  1.
         25    2    1    2    0    0  0.45887996315E+02  0.23749172998E+03  0.74324754267E+03  0.79156278515E+03  0.12508678238E+03 0.  0.
          5    1    3    3  502    0  0.59240009964E+01  0.22303666066E+03  0.67620665809E+03  0.71207679546E+03  0.41800000000E+01 0. -1.
         -5    1    3    3    0  502  0.39963995319E+02  0.14455069320E+02  0.67040884579E+02  0.79485989684E+02  0.41800000000E+01 0. -1.
        -11    1    1    2    0    0 -0.62248933973E+02 -0.14945009508E+03  0.50783080147E+03  0.53301255484E+03  0.00000000000E+00 0. -1.
         11    1    1    2    0    0  0.16360937658E+02 -0.88041634899E+02  0.17667201350E+03  0.19807071997E+03  0.00000000000E+00 0.  1.
</event>
<event>
 7    1  0.2732144E-009  0.1185059E+03  0.7561462E-02  0.1245582E+00
          2   -1    0    0  501    0  0.00000000000E+00  0.00000000000E+00  0.20841653178E+04  0.20841653178E+04  0.00000000000E+00 0. -1.
         -2   -1    0    0    0  501 -0.00000000000E+00 -0.00000000000E+00 -0.13277485564E+02  0.13277485564E+02  0.00000000000E+00 0.  1.
         25    2    1    2    0    0 -0.89914391628E+02 -0.18885488163E+02  0.16485547078E+04  0.16558447042E+04  0.12509116842E+03 0.  0.
          5    1    3    3  502    0 -0.27033608126E+02  0.20084475150E+02  0.10162649727E+03  0.10714298604E+03  0.41800000000E+01 0.  1.
         -5    1    3    3    0  502 -0.62880783502E+02 -0.38969963313E+02  0.15469282105E+04  0.15487017181E+04  0.41800000000E+01 0.  1.
        -11    1    1    2    0    0  0.62532319638E+02 -0.32708575384E+02  0.23580865665E+03  0.24614195996E+03  0.00000000000E+00 0.  1.
         11    1    1    2    0    0  0.27382071991E+02  0.51594063547E+02  0.18652446784E+03  0.19545613923E+03  0.00000000000E+00 0. -1.
</event>
<event>
 7    1  0.2732144E-009  0.1187517E+03  0.7561462E-02  0.1245171E+00
         -3   -1    0    0    0  501 -0.00000000000E+00  0.00000000000E+00  0.10153882010E+03  0.10153882010E+03  0.00000000000E+00 0. -1.
          3   -1    0    0  501    0  0.00000000000E+00 -0.00000000000E+00 -0.29013204058E+03  0.29013204058E+03  0.00000000000E+00 0.  1.
         25    2    1    2    0    0  0.11416348162E+03 -0.22912273510E+02 -0.17464557395E+03  0.24434955790E+03  0.12508939656E+03 0.  0.
          5    1    3    3  502    0  0.77162953905E+02 -0.17621003482E+02 -0.15424196187E+02  0.80746513529E+02  0.41800000000E+01 0.  1.
         -5    1    3    3    0  502  0.37000527711E+02 -0.52912700279E+01 -0.15922137776E+03  0.16360304437E+03  0.41800000000E+01 0.  1.
        -11    1    1    2    0    0 -0.50466383350E+02 -0.57351517102E+01 -0.47764699092E+02  0.69722408829E+02  0.00000000000E+00 0.  1.
         11    1    1    2    0    0 -0.63697098266E+02  0.28647425220E+02  0.33817052558E+02  0.77598893954E+02  0.00000000000E+00 0. -1.
</event>
<event>
 7    1  0.2732144E-009  0.7240582E+02  0.7561462E-02  0.1352098E+00
          1   -1    0    0  501    0  0.00000000000E+00  0.00000000000E+00  0.58090386691E+02  0.58090386691E+02  0.00000000000E+00 0. -1.
         -1   -1    0    0    0  501 -0.00000000000E+00 -0.00000000000E+00 -0.22758517014E+03  0.22758517014E+03  0.00000000000E+00 0.  1.
         25    2    1    2    0    0 -0.30379437802E+02 -0.13894024518E+02 -0.12558076061E+03  0.18037142439E+03  0.12508944456E+03 0.  0.
          5    1    3    3  502    0 -0.26105357348E+02 -0.46831164178E+02 -0.36201547224E+01  0.53900144162E+02  0.41800000000E+01 0. -1.
         -5    1    3    3    0  502 -0.42740804541E+01  0.32937139660E+02 -0.12196060589E+03  0.12647128023E+03  0.41800000000E+01 0. -1.
        -11    1    1    2    0    0  0.22644931718E+02 -0.15318034274E+02 -0.63608003425E+02  0.69234479894E+02  0.00000000000E+00 0.  1.
         11    1    1    2    0    0  0.77345060842E+01  0.29212058792E+02  0.19693980593E+02  0.36069652546E+02  0.00000000000E+00 0. -1.
</event>
<event>
 7    1  0.2732144E-009  0.1531977E+03  0.7561462E-02  0.1196598E+00
         -2   -1    0    0    0  501 -0.00000000000E+00  0.00000000000E+00  0.21779596802E+03  0.21779596802E+03  0.00000000000E+00 0.  1.
          2   -1    0    0  501    0  0.00000000000E+00 -0.00000000000E+00 -0.13673523200E+03  0.13673523200E+03  0.00000000000E+00 0. -1.
         25    2    1    2    0    0 -0.12568784824E+03 -0.44027487475E+02  0.29408978677E+02  0.18506092798E+03  0.12508718636E+03 0.  0.
          5    1    3    3  502    0 -0.21981779362E+02  0.26631897315E+02 -0.30205021491E+02  0.46068126745E+02  0.41800000000E+01 0. -1.
         -5    1    3    3    0  502 -0.10370606888E+03 -0.70659384790E+02  0.59614000169E+02  0.13899280124E+03  0.41800000000E+01 0. -1.
        -11    1    1    2    0    0  0.28195454763E+02 -0.15146945546E+02 -0.17116405338E+02  0.36295798109E+02  0.00000000000E+00 0. -1.
         11    1    1    2    0    0  0.97492393475E+02  0.59174433022E+02  0.68768162682E+02  0.13317447393E+03  0.00000000000E+00 0.  1.
</event>
<event>
 7    1  0.2732144E-009  0.1221735E+03  0.7561462E-02  0.1239554E+00
          2   -1    0    0  501    0  0.00000000000E+00  0.00000000000E+00  0.59542033126E+03  0.59542033126E+03  0.00000000000E+00 0. -1.
         -2   -1    0    0    0  501 -0.00000000000E+00 -0.00000000000E+00 -0.36117057487E+02  0.36117057487E+02  0.00000000000E+00 0.  1.
         25    2    1    2    0    0 -0.25386384161E+02  0.87040576202E+02  0.21037249365E+03  0.26100585019E+03  0.12508771859E+03 0.  0.
          5    1    3    3  502    0 -0.50096301461E+02  0.29151757718E+02  0.18342544715E+03  0.19241058043E+03  0.41800000000E+01 0. -1.
         -5    1    3    3    0  502  0.24709917300E+02  0.57888818484E+02  0.26947046499E+02  0.68595269760E+02  0.41800000000E+01 0. -1.
        -11    1    1    2    0    0  0.40359842351E+02 -0.60726509590E+01  0.89960930001E+02  0.98786450948E+02  0.00000000000E+00 0.  1.
         11    1    1    2    0    0 -0.14973458190E+02 -0.80967925243E+02  0.25896985012E+03  0.27174508761E+03  0.00000000000E+00 0. -1.
</event>
<event>
 7    1  0.2732144E-009  0.2174476E+03  0.7561462E-02  0.1135800E+00
          2   -1    0    0  501    0  0.00000000000E+00  0.00000000000E+00  0.62336877816E+03  0.62336877816E+03  0.00000000000E+00 0.  1.
         -2   -1    0    0    0  501 -0.00000000000E+00 -0.00000000000E+00 -0.10504320976E+03  0.10504320976E+03  0.00000000000E+00 0. -1.
         25    2    1    2    0    0  0.18995372674E+03 -0.96338866225E+02  0.38609415513E+03  0.45834866097E+03  0.12510476786E+03 0.  0.
          5    1    3    3  502    0  0.33704304076E+02 -0.28119227000E+02  0.20461004904E+03  0.20930698891E+03  0.41800000000E+01 0. -1.
         -5    1    3    3    0  502  0.15624942266E+03 -0.68219639225E+02  0.18148410610E+03  0.24904167206E+03  0.41800000000E+01 0. -1.
        -11    1    1    2    0    0 -0.17791637506E+03  0.69801705937E+02  0.73994805657E+02  0.20494327491E+03  0.00000000000E+00 0. -1.
         11    1    1    2    0    0 -0.12037351672E+02  0.26537160289E+02  0.58236607610E+02  0.65120052037E+02  0.00000000000E+00 0.  1.
</event>
<event>
 7    1  0.2732144E-009  0.1040636E+03  0.7561462E-02  0.1271976E+00
         -1   -1    0    0    0  501 -0.00000000000E+00  0.00000000000E+00  0.18619794453E+02  0.18619794453E+02  0.00000000000E+00 0.  1.
          1   -1    0    0  501    0  0.00000000000E+00 -0.00000000000E+00 -0.70865294458E+03  0.70865294458E+03  0.00000000000E+00 0. -1.
         25    2    1    2    0    0 -0.50262657614E+01  0.37784502592E+02 -0.45063507513E+03  0.46922592182E+03  0.12509221713E+03 0.  0.
          5    1    3    3  502    0  0.30219284473E+02 -0.30280546608E+02 -0.80939209193E+02  0.91644665102E+02  0.41800000000E+01 0.  1.
         -5    1    3    3    0  502 -0.35245550234E+02  0.68065049200E+02 -0.36969586594E+03  0.37758125672E+03  0.41800000000E+01 0.  1.
        -11    1    1    2    0    0 -0.49008650268E+01 -0.62008195690E+02 -0.11321679914E+03  0.12917847506E+03  0.00000000000E+00 0.  1.
         11    1    1    2    0    0  0.99271307882E+01  0.24223693098E+02 -0.12618127586E+03  0.12886834215E+03  0.00000000000E+00 0. -1.
</event>
<event>
 7    1  0.2732144E-009  0.6989725E+02  0.7561462E-02  0.1360443E+00
         -2   -1    0    0    0  501 -0.00000000000E+00  0.00000000000E+00  0.11591873189E+03  0.11591873189E+03  0.00000000000E+00 0.  1.
          2   -1    0    0  501    0  0.00000000000E+00 -0.00000000000E+00 -0.87871158440E+02  0.87871158440E+02  0.00000000000E+00 0. -1.
         25    2    1    2    0    0  0.20440875882E+02 -0.23361138723E+02  0.13851738428E+02  0.12963452502E+03  0.12509862993E+03 0.  0.
          5    1    3    3  502    0  0.44661476504E+02 -0.53479603754E+02  0.42159752785E+02  0.81545279791E+02  0.41800000000E+01 0. -1.
         -5    1    3    3    0  502 -0.24220600622E+02  0.30118465031E+02 -0.28308014357E+02  0.48089245234E+02  0.41800000000E+01 0. -1.
        -11    1    1    2    0    0 -0.72648136711E+01  0.99313757732E+01  0.40210100103E+02  0.42050706209E+02  0.00000000000E+00 0.  1.
         11    1    1    2    0    0 -0.13176062211E+02  0.13429762950E+02 -0.26014265079E+02  0.32104659099E+02  0.00000000000E+00 0. -1.
</event>
<event>
 7    1  0.2732144E-009  0.1360517E+03  0.7561462E-02  0.1218743E+00
         -2   -1    0    0    0  501 -0.00000000000E+00  0.00000000000E+00  0.81962910637E+02  0.81962910637E+02  0.00000000000E+00 0.  1.
          2   -1    0    0  501    0  0.00000000000E+00 -0.00000000000E+00 -0.34280181913E+03  0.34280181913E+03  0.00000000000E+00 0. -1.
         25    2    1    2    0    0  0.74294481766E+02 -0.10119282330E+03 -0.10485066876E+03  0.20591512711E+03  0.12509084428E+03 0.  0.
          5    1    3    3  502    0  0.39006767196E+02 -0.40693673795E+02  0.22240972830E+02  0.60742376035E+02  0.41800000000E+01 0. -1.
         -5    1    3    3    0  502  0.35287714569E+02 -0.60499149510E+02 -0.12709164159E+03  0.14517275107E+03  0.41800000000E+01 0. -1.
        -11    1    1    2    0    0 -0.61850424427E+02  0.22608783520E+02 -0.36489520123E+02  0.75286899078E+02  0.00000000000E+00 0. -1.
         11    1    1    2    0    0 -0.12444057339E+02  0.78584039784E+02 -0.11949871961E+03  0.14356270358E+03  0.00000000000E+00 0.  1.
</event>
<event>
 7    1  0.2732144E-009  0.1864892E+03  0.7561462E-02  0.1161666E+00
         -2   -1    0    0    0  501 -0.00000000000E+00  0.00000000000E+00  0.17253212020E+03  0.17253212020E+03  0.00000000000E+00 0.  1.
          2   -1    0    0  501    0  0.00000000000E+00 -0.00000000000E+00 -0.28243972548E+03  0.28243972548E+03  0.00000000000E+00 0. -1.
         25    2    1    2    0    0 -0.13324562505E+03  0.73720502153E+02  0.59277114355E+02  0.20579065975E+03  0.12508761057E+03 0.  0.
          5    1    3    3  502    0 -0.11820827031E+03  0.10741579761E+03  0.44857763552E+02  0.16595493393E+03  0.41800000000E+01 0.  1.
         -5    1    3    3    0  502 -0.15037354747E+02 -0.33695295456E+02  0.14419350803E+02  0.39835725815E+02  0.41800000000E+01 0.  1.
        -11    1    1    2    0    0  0.80662739902E+02 -0.90157387054E+02 -0.14547702381E+03  0.18920464187E+03  0.00000000000E+00 0.  1.
         11    1    1    2    0    0  0.52582885153E+02  0.16436884902E+02 -0.23707695830E+02  0.59976544063E+02  0.00000000000E+00 0. -1.
</event>
<event>
 7    1  0.2732144E-009  0.1637858E+03  0.7561462E-02  0.1184488E+00
         -2   -1    0    0    0  501 -0.00000000000E+00  0.00000000000E+00  0.22599724823E+03  0.22599724823E+03  0.00000000000E+00 0.  1.
          2   -1    0    0  501    0  0.00000000000E+00 -0.00000000000E+00 -0.13649524157E+03  0.13649524157E+03  0.00000000000E+00 0. -1.
         25    2    1    2    0    0 -0.91427551426E+02  0.10116800906E+03  0.47037120837E+02  0.19092964318E+03  0.12509066588E+03 0.  0.
          5    1    3    3  502    0 -0.78742938910E+02  0.12032957212E+03  0.68381158800E+02  0.15928939586E+03  0.41800000000E+01 0. -1.
         -5    1    3    3    0  502 -0.12684612516E+02 -0.19161563064E+02 -0.21344037963E+02  0.31640247317E+02  0.41800000000E+01 0. -1.
        -11    1    1    2    0    0 -0.92175653967E-01 -0.59995072277E+02  0.38186447351E+02  0.71116959687E+02  0.00000000000E+00 0.  1.
         11    1    1    2    0    0  0.91519727080E+02 -0.41172936778E+02  0.42784384696E+01  0.10044588694E+03  0.00000000000E+00 0. -1.
</event>
<event>
 7    1  0.2732144E-009  0.1656916E+03  0.7561462E-02  0.1182417E+00
         -2   -1    0    0    0  501 -0.00000000000E+00  0.00000000000E+00  0.10082630558E+03  0.10082630558E+03  0.00000000000E+00 0. -1.
          2   -1    0    0  501    0  0.00000000000E+00 -0.00000000000E+00 -0.33221032370E+03  0.33221032370E+03  0.00000000000E+00 0.  1.
         25    2    1    2    0    0 -0.29118089719E+01  0.14958971742E+03 -0.86769334520E+02  0.21345118542E+03  0.12508768507E+03 0.  0.
          5    1    3    3  502    0  0.46593375501E+02  0.59906285468E+02 -0.80532296235E+02  0.11073675459E+03  0.41800000000E+01 0.  1.
         -5    1    3    3    0  502 -0.49505184473E+02  0.89683431948E+02 -0.62370382853E+01  0.10271443084E+03  0.41800000000E+01 0.  1.
        -11    1    1    2    0    0 -0.11336512360E+02 -0.11327312900E+03 -0.65405620126E+02  0.13129056863E+03  0.00000000000E+00 0. -1.
         11    1    1    2    0    0  0.14248321332E+02 -0.36316588412E+02 -0.79209063477E+02  0.88294875228E+02  0.00000000000E+00 0.  1.
</event>
<event>
 7    1  0.2732144E-009  0.1330776E+03  0.7561462E-02  0.1222959E+00
          3   -1    0    0  501    0  0.00000000000E+00  0.00000000000E+00  0.52668965422E+02  0.52668965422E+02  0.00000000000E+00 0. -1.
         -3   -1    0    0    0  501 -0.00000000000E+00 -0.00000000000E+00 -0.52320471499E+03  0.52320471499E+03  0.00000000000E+00 0.  1.
         25    2    1    2    0    0 -0.58689513143E+02 -0.90891380490E+02 -0.35978785821E+03  0.39598038744E+03  0.12508981702E+03 0.  0.
          5    1    3    3  502    0 -0.84911673111E+02 -0.33745193659E+02 -0.13914612799E+03  0.16651680894E+03  0.41800000000E+01 0.  1.
         -5    1    3    3    0  502  0.26222159968E+02 -0.57146186831E+02 -0.22064173022E+03  0.22946357850E+03  0.41800000000E+01 0.  1.
        -11    1    1    2    0    0  0.33668718024E+02  0.27327793164E+02  0.68435942157E+01  0.43900178068E+02  0.00000000000E+00 0. -1.
         11    1    1    2    0    0  0.25020795119E+02  0.63563587326E+02 -0.11759148558E+03  0.13599311491E+03  0.00000000000E+00 0.  1.
</event>
<event>
 7    1  0.2732144E-009  0.1492502E+03  0.7561462E-02  0.1201397E+00
         -2   -1    0    0    0  501 -0.00000000000E+00  0.00000000000E+00  0.33876212866E+02  0.33876212866E+02  0.00000000000E+00 0.  1.
          2   -1    0    0  501    0  0.00000000000E+00 -0.00000000000E+00 -0.85258085447E+03  0.85258085447E+03  0.00000000000E+00 0. -1.
         25    2    1    2    0    0 -0.10950152253E+03 -0.57817426617E+02 -0.54587206112E+03  0.57354762158E+03  0.12508848409E+03 0.  0.
          5    1    3    3  502    0 -0.89367046010E+02  0.20053250318E+02 -0.34890321522E+03  0.36074856584E+03  0.41800000000E+01 0.  1.
         -5    1    3    3    0  502 -0.20134476521E+02 -0.77870676935E+02 -0.19696884590E+03  0.21279905575E+03  0.41800000000E+01 0.  1.
        -11    1    1    2    0    0  0.34043990139E+02  0.55734696200E+01 -0.12202062832E+02  0.36591626987E+02  0.00000000000E+00 0.  1.
         11    1    1    2    0    0  0.75457532392E+02  0.52243956997E+02 -0.26063051765E+03  0.27631781877E+03  0.00000000000E+00 0. -1.
</event>
<event>
 7    1  0.4253698E-009  0.1282383E+03  0.7561462E-02  0.1230093E+00
         -2   -1    0    0    0  501 -0.00000000000E+00  0.00000000000E+00  0.40985929537E+02  0.40985929537E+02  0.00000000000E+00 0. -1.
          2   -1    0    0  501    0  0.00000000000E+00 -0.00000000000E+00 -0.63134482827E+03  0.63134482827E+03  0.00000000000E+00 0.  1.
         25    2    1    2    0    0 -0.95638476044E+02 -0.69848260121E+02 -0.31560320061E+03  0.35954913316E+03  0.12507878069E+03 0.  0.
          5    1    3    3  502    0 -0.42272239658E+02  0.77017409198E+01 -0.16943982433E+02  0.46377041730E+02  0.41800000000E+01 0. -1.
         -5    1    3    3    0  502 -0.53366236386E+02 -0.77550001040E+02 -0.29865921818E+03  0.31317209143E+03  0.41800000000E+01 0. -1.
        -11    1    1    2    0    0  0.66320801504E+02  0.41154213666E+02 -0.72905901600E+02  0.10680537675E+03  0.00000000000E+00 0. -1.
         11    1    1    2    0    0  0.29317674540E+02  0.28694046455E+02 -0.20184979651E+03  0.20597624789E+03  0.00000000000E+00 0.  1.
</event>
<event>
 7    1  0.3541380E-009  0.8183437E+02  0.7561462E-02  0.1323925E+00
         -1   -1    0    0    0  501 -0.00000000000E+00  0.00000000000E+00  0.34330034053E+02  0.34330034053E+02  0.00000000000E+00 0.  1.
          1   -1    0    0  501    0  0.00000000000E+00 -0.00000000000E+00 -0.58963040554E+03  0.58963040554E+03  0.00000000000E+00 0. -1.
         25    2    1    2    0    0  0.49146632296E+02  0.30364682072E+02 -0.45863273817E+03  0.47887477793E+03  0.12505862239E+03 0.  0.
          5    1    3    3  502    0 -0.27686187405E+01  0.44902752702E+02 -0.52961517747E+02  0.69615495487E+02  0.41800000000E+01 0.  1.
         -5    1    3    3    0  502  0.51915251036E+02 -0.14538070629E+02 -0.40567122042E+03  0.40925928245E+03  0.41800000000E+01 0.  1.
        -11    1    1    2    0    0 -0.19720166978E+02  0.29759691865E+01  0.14957156308E+02  0.24929057404E+02  0.00000000000E+00 0.  1.
         11    1    1    2    0    0 -0.29426465318E+02 -0.33340651259E+02 -0.11162478962E+03  0.12015660425E+03  0.00000000000E+00 0. -1.
</event>
<event>
 7    1  0.2732144E-009  0.1112518E+03  0.7561462E-02  0.1258269E+00
          2   -1    0    0  501    0  0.00000000000E+00  0.00000000000E+00  0.42534058509E+03  0.42534058509E+03  0.00000000000E+00 0. -1.
         -2   -1    0    0    0  501 -0.00000000000E+00 -0.00000000000E+00 -0.36061200256E+02  0.36061200256E+02  0.00000000000E+00 0.  1.
         25    2    1    2    0    0 -0.36373940245E+02  0.36956017687E+02  0.13876591885E+03  0.19389050114E+03  0.12509490568E+03 0.  0.
          5    1    3    3  502    0  0.30163663289E+02 -0.23717139381E+02  0.16477726955E+02  0.41968287659E+02  0.41800000000E+01 0. -1.
         -5    1    3    3    0  502 -0.66537603534E+02  0.60673157068E+02  0.12228819189E+03  0.15192221348E+03  0.41800000000E+01 0. -1.
        -11    1    1    2    0    0  0.47316745040E+02 -0.55065658644E+02  0.19834619153E+03  0.21121627024E+03  0.00000000000E+00 0.  1.
         11    1    1    2    0    0 -0.10942804795E+02  0.18109640956E+02  0.52167274459E+02  0.56295013961E+02  0.00000000000E+00 0. -1.
</event>
<event>
 7    1  0.2732144E-009  0.9466598E+02  0.7561462E-02  0.1291930E+00
         -3   -1    0    0    0  501 -0.00000000000E+00  0.00000000000E+00  0.13371443802E+03  0.13371443802E+03  0.00000000000E+00 0.  1.
          3   -1    0    0  501    0  0.00000000000E+00 -0.00000000000E+00 -0.94790916912E+02  0.94790916912E+02  0.00000000000E+00 0. -1.
         25    2    1    2    0    0  0.19290700728E+02 -0.30197642333E+02  0.16964675457E+02  0.13122084303E+03  0.12508829160E+03 0.  0.
          5    1    3    3  502    0  0.13764723923E+02 -0.74481120434E+02 -0.13467459767E+02  0.77043817392E+02  0.41800000000E+01 0. -1.
         -5    1    3    3    0  502  0.55259768048E+01  0.44283478101E+02  0.30432135223E+02  0.54177025635E+02  0.41800000000E+01 0. -1.
        -11    1    1    2    0    0  0.20834521116E+02  0.15306570966E+02 -0.23436372106E+02  0.34894582995E+02  0.00000000000E+00 0. -1.
         11    1    1    2    0    0 -0.40125221844E+02  0.14891071367E+02  0.45395217761E+02  0.62389928916E+02  0.00000000000E+00 0.  1.
</event>
<event>
 7    1  0.2732144E-009  0.1443280E+03  0.7561462E-02  0.1207621E+00
          1   -1    0    0  501    0  0.00000000000E+00  0.00000000000E+00  0.10438430944E+04  0.10438430944E+04  0.00000000000E+00 0. -1.
         -1   -1    0    0    0  501 -0.00000000000E+00 -0.00000000000E+00 -0.20577695734E+02  0.20577695734E+02  0.00000000000E+00 0.  1.
         25    2    1    2    0    0  0.42739406652E+02 -0.85854049520E+02  0.47987798875E+03  0.50510061956E+03  0.12508467968E+03 0.  0.
          5    1    3    3  502    0  0.87119367107E+02 -0.55679935183E+02  0.33046986846E+03  0.34629156164E+03  0.41800000000E+01 0.  1.
         -5    1    3    3    0  502 -0.44379960455E+02 -0.30174114337E+02  0.14940812030E+03  0.15880905792E+03  0.41800000000E+01 0.  1.
        -11    1    1    2    0    0 -0.25534012263E+02  0.10356008202E+03  0.40871125464E+03  0.42239977041E+03  0.00000000000E+00 0. -1.
         11    1    1    2    0    0 -0.17205394389E+02 -0.17706032500E+02  0.13467615525E+03  0.13692040015E+03  0.00000000000E+00 0.  1.
</event>
<event>
 7    1  0.2948502E-009  0.1064237E+03  0.7561462E-02  0.1267340E+00
         -1   -1    0    0    0  501 -0.00000000000E+00  0.00000000000E+00  0.73831754841E+02  0.73831754841E+02  0.00000000000E+00 0.  1.
          1   -1    0    0  501    0  0.00000000000E+00 -0.00000000000E+00 -0.21625484698E+03  0.21625484698E+03  0.00000000000E+00 0. -1.
         25    2    1    2    0    0  0.64116164519E+02  0.96711587105E+01 -0.76329506227E+02  0.16024108087E+03  0.12508635663E+03 0.  0.
          5    1    3    3  502    0  0.88056049680E+02 -0.20165729173E+01 -0.10128023158E+02  0.88758006425E+02  0.41800000000E+01 0. -1.
         -5    1    3    3    0  502 -0.23939885161E+02  0.11687731628E+02 -0.66201483069E+02  0.71483074449E+02  0.41800000000E+01 0. -1.
        -11    1    1    2    0    0 -0.89302228169E+01 -0.35618543740E+02  0.39994215381E+01  0.36938122723E+02  0.00000000000E+00 0.  1.
         11    1    1    2    0    0 -0.55185941702E+02  0.25947385029E+02 -0.70093007451E+02  0.92907398225E+02  0.00000000000E+00 0. -1.
</event>
<event>
 7    1  0.2732144E-009  0.9474740E+02  0.7561462E-02  0.1291746E+00
         -2   -1    0    0    0  501 -0.00000000000E+00  0.00000000000E+00  0.17532077283E+02  0.17532077283E+02  0.00000000000E+00 0.  1.
          2   -1    0    0  501    0  0.00000000000E+00 -0.00000000000E+00 -0.71520023285E+03  0.71520023285E+03  0.00000000000E+00 0. -1.
         25    2    1    2    0    0 -0.69743394769E+01  0.21949406481E+02 -0.32052543651E+03  0.34484072844E+03  0.12509258444E+03 0.  0.
          5    1    3    3  502    0 -0.35895344991E+02  0.48248299373E+02 -0.75168955622E+02  0.96354649466E+02  0.41800000000E+01 0.  1.
         -5    1    3    3    0  502  0.28921005514E+02 -0.26298892891E+02 -0.24535648089E+03  0.24848607897E+03  0.41800000000E+01 0.  1.
        -11    1    1    2    0    0 -0.26950505947E+02 -0.42435072008E+02 -0.18526636895E+03  0.19196534211E+03  0.00000000000E+00 0.  1.
         11    1    1    2    0    0  0.33924845424E+02  0.20485665527E+02 -0.19187635009E+03  0.19592623958E+03  0.00000000000E+00 0. -1.
</event>
<event>
 7    1  0.3545354E-009  0.1336224E+03  0.7561462E-02  0.1222178E+00
          1   -1    0    0  501    0  0.00000000000E+00  0.00000000000E+00  0.13202820900E+03  0.13202820900E+03  0.00000000000E+00 0. -1.
         -1   -1    0    0    0  501 -0.00000000000E+00 -0.00000000000E+00 -0.20486975565E+03  0.20486975565E+03  0.00000000000E+00 0.  1.
         25    2    1    2    0    0  0.52272393368E+02  0.10814239291E+03 -0.10533201940E+02  0.17374417791E+03  0.12509560649E+03 0.  0.
          5    1    3    3  502    0  0.14019276408E+02  0.26457845678E+02  0.54598467615E+02  0.62410117567E+02  0.41800000000E+01 0.  1.
         -5    1    3    3    0  502  0.38253116961E+02  0.81684547236E+02 -0.65131669555E+02  0.11133406035E+03  0.41800000000E+01 0.  1.
        -11    1    1    2    0    0 -0.61402625308E+02 -0.30537717757E+02 -0.10443639762E+02  0.69367890353E+02  0.00000000000E+00 0. -1.
         11    1    1    2    0    0  0.91302319393E+01 -0.77604675156E+02 -0.51864704952E+02  0.93785896387E+02  0.00000000000E+00 0.  1.
</event>
<event>
 7    1  0.2732144E-009  0.1230949E+03  0.7561462E-02  0.1238077E+00
          2   -1    0    0  501    0  0.00000000000E+00  0.00000000000E+00  0.99059970741E+02  0.99059970741E+02  0.00000000000E+00 0. -1.
         -2   -1    0    0    0  501 -0.00000000000E+00 -0.00000000000E+00 -0.17545838663E+03  0.17545838663E+03  0.00000000000E+00 0.  1.
         25    2    1    2    0    0 -0.21981952462E+02 -0.70649236677E+02 -0.41029788270E+02  0.15105649877E+03  0.12514032691E+03 0.  0.
          5    1    3    3  502    0  0.51166340991E+02 -0.40151476942E+02 -0.26604051911E+02  0.70394485076E+02  0.41800000000E+01 0. -1.
         -5    1    3    3    0  502 -0.73148293453E+02 -0.30497759735E+02 -0.14425736359E+02  0.80662013696E+02  0.41800000000E+01 0. -1.
        -11    1    1    2    0    0 -0.23312122936E+02  0.42071644839E+02 -0.48514231656E+02  0.68316242933E+02  0.00000000000E+00 0.  1.
         11    1    1    2    0    0  0.45294075398E+02  0.28577591838E+02  0.13145604040E+02  0.55145615664E+02  0.00000000000E+00 0. -1.
</event>
<event>
 7    1  0.2732144E-009  0.1188047E+03  0.7561462E-02  0.1245082E+00
         -3   -1    0    0    0  501 -0.00000000000E+00  0.00000000000E+00  0.44983860381E+03  0.44983860381E+03  0.00000000000E+00 0.  1.
          3   -1    0    0  501    0  0.00000000000E+00 -0.00000000000E+00 -0.35647283375E+02  0.35647283375E+02  0.00000000000E+00 0. -1.
         25    2    1    2    0    0 -0.49065637920E+02 -0.37915614326E+02  0.26930224182E+03  0.30334078970E+03  0.12508759574E+03 0.  0.
          5    1    3    3  502    0 -0.90916172123E+02 -0.32451984969E+02  0.19941018551E+03  0.22158694945E+03  0.41800000000E+01 0. -1.
         -5    1    3    3    0  502  0.41850534203E+02 -0.54636293572E+01  0.69892056316E+02  0.81753840246E+02  0.41800000000E+01 0. -1.
        -11    1    1    2    0    0 -0.20791690134E+02  0.51906349842E+01  0.44103697963E+01  0.21878949516E+02  0.00000000000E+00 0.  1.
         11    1    1    2    0    0  0.69857328054E+02  0.32724979342E+02  0.14047870881E+03  0.16026614797E+03  0.00000000000E+00 0. -1.
</event>
<event>
 7    1  0.2732144E-009  0.1293995E+03  0.7561462E-02  0.1228349E+00
         -1   -1    0    0    0  501 -0.00000000000E+00  0.00000000000E+00  0.13306345871E+03  0.13306345871E+03  0.00000000000E+00 0.  1.
          1   -1    0    0  501    0  0.00000000000E+00 -0.00000000000E+00 -0.14684065350E+03  0.14684065350E+03  0.00000000000E+00 0. -1.
         25    2    1    2    0    0  0.38771765878E+01 -0.72848877698E+02  0.41288782248E+02  0.15058136387E+03  0.12509193469E+03 0.  0.
          5    1    3    3  502    0 -0.93112536171E+01 -0.10583856858E+03  0.17860664575E+02  0.10781919024E+03  0.41800000000E+01 0.  1.
         -5    1    3    3    0  502  0.13188430205E+02  0.32989690887E+02  0.23428117672E+02  0.42762173633E+02  0.41800000000E+01 0.  1.
        -11    1    1    2    0    0 -0.31041106814E+01  0.94740305045E+02 -0.48357904977E+02  0.10641356998E+03  0.00000000000E+00 0.  1.
         11    1    1    2    0    0 -0.77306590645E+00 -0.21891427347E+02 -0.67080720608E+01  0.22909178356E+02  0.00000000000E+00 0. -1.
</event>
<event>
 7    1  0.2732144E-009  0.1544787E+03  0.7561462E-02  0.1195075E+00
          1   -1    0    0  501    0  0.00000000000E+00  0.00000000000E+00  0.17080721204E+03  0.17080721204E+03  0.00000000000E+00 0. -1.
         -1   -1    0    0    0  501 -0.00000000000E+00 -0.00000000000E+00 -0.24945939559E+03  0.24945939559E+03  0.00000000000E+00 0.  1.
         25    2    1    2    0    0  0.11522206709E+03  0.94677601228E+02 -0.13716610104E+03  0.23812161154E+03  0.12508952670E+03 0.  0.
          5    1    3    3  502    0  0.69675355688E+02  0.26887336950E+02 -0.13728990595E+03  0.15634441069E+03  0.41800000000E+01 0. -1.
         -5    1    3    3    0  502  0.45546711404E+02  0.67790264277E+02  0.12380491697E+00  0.81777200846E+02  0.41800000000E+01 0. -1.
        -11    1    1    2    0    0 -0.24195614022E+02 -0.38320103141E+02 -0.19843008888E+02  0.49473255850E+02  0.00000000000E+00 0.  1.
         11    1    1    2    0    0 -0.91026453070E+02 -0.56357498087E+02  0.78356926376E+02  0.13267174025E+03  0.00000000000E+00 0. -1.
</event>
<event>
 7    1  0.2732144E-009  0.1948198E+03  0.7561462E-02  0.1154185E+00
         -2   -1    0    0    0  501 -0.00000000000E+00  0.00000000000E+00  0.96527461489E+02  0.96527461489E+02  0.00000000000E+00 0. -1.
          2   -1    0    0  501    0  0.00000000000E+00 -0.00000000000E+00 -0.46214572864E+03  0.46214572864E+03  0.00000000000E+00 0.  1.
         25    2    1    2    0    0 -0.17109555387E+03 -0.23018729753E+02 -0.26201660277E+03  0.33779227263E+03  0.12508944340E+03 0.  0.
          5    1    3    3  502    0 -0.10558673976E+03 -0.69303966504E+02 -0.11801977205E+03  0.17290962490E+03  0.41800000000E+01 0.  1.
         -5    1    3    3    0  502 -0.65508814106E+02  0.46285236750E+02 -0.14399683073E+03  0.16488264774E+03  0.41800000000E+01 0.  1.
        -11    1    1    2    0    0  0.23533073217E+02 -0.18189162516E+02  0.86224685382E+01  0.30967694970E+02  0.00000000000E+00 0. -1.
         11    1    1    2    0    0  0.14756248065E+03  0.41207892269E+02 -0.11222413292E+03  0.18991322253E+03  0.00000000000E+00 0.  1.
</event>
<event>
 7    1  0.2732144E-009  0.1308482E+03  0.7561462E-02  0.1226203E+00
          1   -1    0    0  501    0  0.00000000000E+00  0.00000000000E+00  0.24219281445E+03  0.24219281445E+03  0.00000000000E+00 0. -1.
         -1   -1    0    0    0  501 -0.00000000000E+00 -0.00000000000E+00 -0.10829136597E+03  0.10829136597E+03  0.00000000000E+00 0.  1.
         25    2    1    2    0    0  0.70184214545E+02  0.99945909820E+02  0.64019586169E+02  0.18617373868E+03  0.12508854743E+03 0.  0.
          5    1    3    3  502    0  0.28945845186E+02  0.78630718738E+02  0.97619999754E+02  0.12871592223E+03  0.41800000000E+01 0. -1.
         -5    1    3    3    0  502  0.41238369359E+02  0.21315191081E+02 -0.33600413585E+02  0.57457816451E+02  0.41800000000E+01 0. -1.
        -11    1    1    2    0    0 -0.32703390946E+02 -0.84585536210E+02  0.89294206041E+01  0.91126062505E+02  0.00000000000E+00 0.  1.
         11    1    1    2    0    0 -0.37480823600E+02 -0.15360373610E+02  0.60952441706E+02  0.73184379242E+02  0.00000000000E+00 0. -1.
</event>
<event>
 7    1  0.2732144E-009  0.1899359E+03  0.7561462E-02  0.1158519E+00
         -2   -1    0    0    0  501 -0.00000000000E+00  0.00000000000E+00  0.59950840638E+02  0.59950840638E+02  0.00000000000E+00 0.  1.
          2   -1    0    0  501    0  0.00000000000E+00 -0.00000000000E+00 -0.73021951590E+03  0.73021951590E+03  0.00000000000E+00 0. -1.
         25    2    1    2    0    0 -0.12585617841E+03 -0.12714282371E+03 -0.38270730198E+03  0.44058720560E+03  0.12508849460E+03 0.  0.
          5    1    3    3  502    0 -0.32324406300E+01  0.94883241685E+01  0.47205382947E+01  0.11841995176E+02  0.41800000000E+01 0.  1.
         -5    1    3    3    0  502 -0.12262373778E+03 -0.13663114788E+03 -0.38742784028E+03  0.42874521042E+03  0.41800000000E+01 0.  1.
        -11    1    1    2    0    0  0.48680253869E+02  0.18426068400E+02 -0.31361615278E+02  0.60768725725E+02  0.00000000000E+00 0.  1.
         11    1    1    2    0    0  0.77175924537E+02  0.10871675531E+03 -0.25619975800E+03  0.28881442522E+03  0.00000000000E+00 0. -1.
</event>
<event>
 7    1  0.2732144E-009  0.1185952E+03  0.7561462E-02  0.1245433E+00
         -1   -1    0    0    0  501 -0.00000000000E+00  0.00000000000E+00  0.15588516994E+02  0.15588516994E+02  0.00000000000E+00 0.  1.
          1   -1    0    0  501    0  0.00000000000E+00 -0.00000000000E+00 -0.11927706812E+04  0.11927706812E+04  0.00000000000E+00 0. -1.
         25    2    1    2    0    0  0.71913455704E+02  0.32448162093E+02 -0.76950645148E+03  0.78358896284E+03  0.12508819077E+03 0.  0.
          5    1    3    3  502    0  0.43375666179E+02  0.67916278140E+02 -0.26495075352E+03  0.27696650239E+03  0.41800000000E+01 0. -1.
         -5    1    3    3    0  502  0.28537789525E+02 -0.35468116047E+02 -0.50455569796E+03  0.50662246045E+03  0.41800000000E+01 0. -1.
        -11    1    1    2    0    0 -0.76847225761E+02  0.11170400636E+01 -0.34546002546E+03  0.35390588166E+03  0.00000000000E+00 0. -1.
         11    1    1    2    0    0  0.49337700575E+01 -0.33565202157E+02 -0.62215687263E+02  0.70864353694E+02  0.00000000000E+00 0.  1.
</event>
<event>
 7    1  0.2732144E-009  0.1157666E+03  0.7561462E-02  0.1250249E+00
         -2   -1    0    0    0  501 -0.00000000000E+00  0.00000000000E+00  0.76078920564E+02  0.76078920564E+02  0.00000000000E+00 0.  1.
          2   -1    0    0  501    0  0.00000000000E+00 -0.00000000000E+00 -0.53930564469E+03  0.53930564469E+03  0.00000000000E+00 0. -1.
         25    2    1    2    0    0  0.83829081353E+02 -0.30834150878E+01 -0.46610843721E+03  0.48983858178E+03  0.12509172089E+03 0.  0.
          5    1    3    3  502    0  0.77839857135E+02  0.49571026026E+02 -0.35257763716E+03  0.36447879582E+03  0.41800000000E+01 0. -1.
         -5    1    3    3    0  502  0.59892242183E+01 -0.52654441113E+02 -0.11353080005E+03  0.12535978596E+03  0.41800000000E+01 0. -1.
        -11    1    1    2    0    0 -0.72047286978E+02 -0.41571763116E+01 -0.38584702269E+02  0.81834423838E+02  0.00000000000E+00 0. -1.
         11    1    1    2    0    0 -0.11781794375E+02  0.72405913994E+01  0.41466415358E+02  0.43711559629E+02  0.00000000000E+00 0.  1.
</event>
<event>
 7    1  0.2732144E-009  0.1125376E+03  0.7561462E-02  0.1255941E+00
         -1   -1    0    0    0  501 -0.00000000000E+00  0.00000000000E+00  0.35925944351E+02  0.35925944351E+02  0.00000000000E+00 0.  1.
          1   -1    0    0  501    0  0.00000000000E+00 -0.00000000000E+00 -0.74818510083E+03  0.74818510083E+03  0.00000000000E+00 0. -1.
         25    2    1    2    0    0 -0.62372088335E+01 -0.54436937555E+02 -0.64115553104E+03  0.65553839010E+03  0.12509149840E+03 0.  0.
          5    1    3    3  502    0  0.42807301070E+02 -0.54842897072E+02 -0.20310377707E+03  0.21472965572E+03  0.41800000000E+01 0. -1.
         -5    1    3    3    0  502 -0.49044509903E+02  0.40595951687E+00 -0.43805175397E+03  0.44080873438E+03  0.41800000000E+01 0. -1.
        -11    1    1    2    0    0  0.46229718137E+02  0.11832145814E+02 -0.40608384355E+02  0.62659615332E+02  0.00000000000E+00 0. -1.
         11    1    1    2    0    0 -0.39992509304E+02  0.42604791741E+02 -0.30495241084E+02  0.65913039745E+02  0.00000000000E+00 0.  1.
</event>
<event>
 7    1  0.3092135E-009  0.1063079E+03  0.7561462E-02  0.1267564E+00
         -2   -1    0    0    0  501 -0.00000000000E+00  0.00000000000E+00  0.22968465358E+02  0.22968465358E+02  0.00000000000E+00 0.  1.
          2   -1    0    0  501    0  0.00000000000E+00 -0.00000000000E+00 -0.74313188908E+03  0.74313188908E+03  0.00000000000E+00 0. -1.
         25    2    1    2    0    0  0.40165471264E+02  0.49179635527E+02 -0.29507126830E+03  0.32672215659E+03  0.12509361533E+03 0.  0.
          5    1    3    3  502    0 -0.30726772257E+02  0.37412010182E+02 -0.20872244634E+03  0.21430428145E+03  0.41800000000E+01 0.  1.
         -5    1    3    3    0  502  0.70892243520E+02  0.11767625346E+02 -0.86348821960E+02  0.11241787514E+03  0.41800000000E+01 0.  1.
        -11    1    1    2    0    0 -0.57564440324E+02 -0.47364532277E+02 -0.40857276212E+03  0.41531766837E+03  0.00000000000E+00 0. -1.
         11    1    1    2    0    0  0.17398969060E+02 -0.18151032502E+01 -0.16519393295E+02  0.24060529483E+02  0.00000000000E+00 0.  1.
</event>
<event>
 7    1  0.2732144E-009  0.1050877E+03  0.7561462E-02  0.1269947E+00
          1   -1    0    0  501    0  0.00000000000E+00  0.00000000000E+00  0.10335896495E+03  0.10335896495E+03  0.00000000000E+00 0. -1.
         -1   -1    0    0    0  501 -0.00000000000E+00 -0.00000000000E+00 -0.11749764583E+03  0.11749764583E+03  0.00000000000E+00 0.  1.
         25    2    1    2    0    0 -0.54544454919E+01 -0.14638679452E+02 -0.28673168395E+01  0.12609742067E+03  0.12509314962E+03 0.  0.
          5    1    3    3  502    0 -0.59723376285E+02  0.11388876479E+02  0.15772511672E+02  0.62951034199E+02  0.41800000000E+01 0.  1.
         -5    1    3    3    0  502  0.54268930793E+02 -0.26027555931E+02 -0.18639828511E+02  0.63146386469E+02  0.41800000000E+01 0.  1.
        -11    1    1    2    0    0 -0.31792815432E+02 -0.20389495379E+02  0.10477109413E+02  0.39195464745E+02  0.00000000000E+00 0. -1.
         11    1    1    2    0    0  0.37247260923E+02  0.35028174832E+02 -0.21748473452E+02  0.55563725360E+02  0.00000000000E+00 0.  1.
</event>
<event>
 6    1  0.2732144E-009  0.1081858E+03  0.7561462E-02  0.1263967E+00
         -2   -1    0    0    0  501 -0.00000000000E+00  0.00000000000E+00  0.81552184942E+01  0.81552184942E+01  0.00000000000E+00 0.  1.
          2   -1    0    0  501    0  0.00000000000E+00 -0.00000000000E+00 -0.19597320041E+04  0.19597320041E+04  0.00000000000E+00 0. -1.
          5    1    1    2  502    0 -0.42726099987E+02 -0.14115206723E+02 -0.29265113463E+03  0.29611976915E+03  0.41800000000E+01 0.  1.
         -5    1    1    2    0  502  0.71870104598E+02 -0.11365385347E+02 -0.12095288703E+04  0.12117227589E+04  0.41800000000E+01 0.  1.
        -11    1    1    2    0    0  0.32194765890E+02  0.87299272957E+00 -0.15754075342E+03  0.16079911087E+03  0.00000000000E+00 0.  1.
         11    1    1    2    0    0 -0.61338770501E+02  0.24607599340E+02 -0.29185602718E+03  0.29924558362E+03  0.00000000000E+00 0. -1.
</event>
<event>
 7    1  0.2732144E-009  0.8713939E+02  0.7561462E-02  0.1309931E+00
          1   -1    0    0  501    0  0.00000000000E+00  0.00000000000E+00  0.10411060194E+03  0.10411060194E+03  0.00000000000E+00 0. -1.
         -1   -1    0    0    0  501 -0.00000000000E+00 -0.00000000000E+00 -0.13793936828E+03  0.13793936828E+03  0.00000000000E+00 0.  1.
         25    2    1    2    0    0  0.43372642138E+02  0.80436471062E+01 -0.64288717809E+02  0.14739937789E+03  0.12509057127E+03 0.  0.
          5    1    3    3  502    0  0.53468702304E+02  0.29328575623E+02  0.16358181557E+02  0.63278195123E+02  0.41800000000E+01 0.  1.
         -5    1    3    3    0  502 -0.10096060166E+02 -0.21284928517E+02 -0.80646899366E+02  0.84121182768E+02  0.41800000000E+01 0.  1.
        -11    1    1    2    0    0 -0.11511336965E+02  0.34330740666E+02  0.16717305360E+02  0.39882062784E+02  0.00000000000E+00 0. -1.
         11    1    1    2    0    0 -0.31861305173E+02 -0.42374387772E+02  0.13742646102E+02  0.54768529543E+02  0.00000000000E+00 0.  1.
</event>
<event>
 7    1  0.2732144E-009  0.1272007E+03  0.7561462E-02  0.1231670E+00
          2   -1    0    0  501    0  0.00000000000E+00  0.00000000000E+00  0.12094142782E+04  0.12094142782E+04  0.00000000000E+00 0. -1.
         -2   -1    0    0    0  501 -0.00000000000E+00 -0.00000000000E+00 -0.36414632112E+02  0.36414632112E+02  0.00000000000E+00 0.  1.
         25    2    1    2    0    0  0.62070117230E+02  0.33192306958E+02  0.11013201996E+04  0.11106332720E+04  0.12508258904E+03 0.  0.
          5    1    3    3  502    0 -0.12972215966E+02 -0.36927757076E+02  0.37844623702E+03  0.38048779789E+03  0.41800000000E+01 0. -1.
         -5    1    3    3    0  502  0.75042333197E+02  0.70120064034E+02  0.72287396260E+03  0.73014547410E+03  0.41800000000E+01 0. -1.
        -11    1    1    2    0    0 -0.36184361788E+02  0.28035550820E+02  0.42979986161E+02  0.62789962241E+02  0.00000000000E+00 0.  1.
         11    1    1    2    0    0 -0.25885755442E+02 -0.61227857778E+02  0.28699460272E+02  0.72405676040E+02  0.00000000000E+00 0. -1.
</event>
<event>
 7    1  0.2732144E-009  0.1144754E+03  0.7561462E-02  0.1252500E+00
          3   -1    0    0  501    0  0.00000000000E+00  0.00000000000E+00  0.40599350969E+02  0.40599350969E+02  0.00000000000E+00 0. -1.
         -3   -1    0    0    0  501 -0.00000000000E+00 -0.00000000000E+00 -0.53710769429E+03  0.53710769429E+03  0.00000000000E+00 0.  1.
         25    2    1    2    0    0  0.97075862679E+02  0.24942603218E+01 -0.24570609580E+03  0.29231461168E+03  0.12508557966E+03 0.  0.
          5    1    3    3  502    0  0.80891896453E+02  0.96351523811E+01 -0.25785644796E+03  0.27045102186E+03  0.41800000000E+01 0. -1.
         -5    1    3    3    0  502  0.16183966226E+02 -0.71408920592E+01  0.12150352156E+02  0.21863589818E+02  0.41800000000E+01 0. -1.
        -11    1    1    2    0    0 -0.69705236596E+02  0.38713187954E+02 -0.19582235556E+03  0.21143302927E+03  0.00000000000E+00 0.  1.
         11    1    1    2    0    0 -0.27370626083E+02 -0.41207448276E+02 -0.54979891962E+02  0.73959404309E+02  0.00000000000E+00 0. -1.
</event>
<event>
 7    1  0.2732144E-009  0.6417490E+02  0.7561462E-02  0.1381102E+00
         -1   -1    0    0    0  501 -0.00000000000E+00  0.00000000000E+00  0.20877837791E+02  0.20877837791E+02  0.00000000000E+00 0.  1.
          1   -1    0    0  501    0  0.00000000000E+00 -0.00000000000E+00 -0.73783692912E+03  0.73783692912E+03  0.00000000000E+00 0. -1.
         25    2    1    2    0    0  0.29768391247E+02  0.46540536519E+02 -0.47500375797E+03  0.49429654372E+03  0.12509326277E+03 0.  0.
          5    1    3    3  502    0  0.11176317832E+02  0.48418232406E+02 -0.56515689776E+02  0.75370623591E+02  0.41800000000E+01 0. -1.
         -5    1    3    3    0  502  0.18592073414E+02 -0.18776958870E+01 -0.41848806820E+03  0.41892592013E+03  0.41800000000E+01 0. -1.
        -11    1    1    2    0    0 -0.32085168379E+02 -0.34663790353E+02 -0.24687708051E+03  0.25135498657E+03  0.00000000000E+00 0. -1.
         11    1    1    2    0    0  0.23167771324E+01 -0.11876746167E+02  0.49217471586E+01  0.13063236616E+02  0.00000000000E+00 0.  1.
</event>
<event>
 7    1  0.2755816E-009  0.1566183E+03  0.7561462E-02  0.1192568E+00
          2   -1    0    0  501    0  0.00000000000E+00  0.00000000000E+00  0.13877571299E+04  0.13877571299E+04  0.00000000000E+00 0. -1.
         -2   -1    0    0    0  501 -0.00000000000E+00 -0.00000000000E+00 -0.19167639134E+02  0.19167639134E+02  0.00000000000E+00 0.  1.
         25    2    1    2    0    0 -0.43102508238E+02 -0.11266659022E+03  0.76948781213E+03  0.78886724369E+03  0.12509375833E+03 0.  0.
          5    1    3    3  502    0 -0.19484767513E+00  0.27037462306E+02  0.13635580858E+03  0.13907351030E+03  0.41800000000E+01 0. -1.
         -5    1    3    3    0  502 -0.42907660563E+02 -0.13970405252E+03  0.63313200355E+03  0.64979373338E+03  0.41800000000E+01 0. -1.
        -11    1    1    2    0    0  0.12088752063E+02  0.10756496989E+03  0.54362070438E+03  0.55429218910E+03  0.00000000000E+00 0.  1.
         11    1    1    2    0    0  0.31013756175E+02  0.51016203278E+01  0.55480974270E+02  0.63765336258E+02  0.00000000000E+00 0. -1.
</event>
<event>
 7    1  0.2732144E-009  0.1226133E+03  0.7561462E-02  0.1238847E+00
         -4   -1    0    0    0  501 -0.00000000000E+00  0.00000000000E+00  0.58621763562E+03  0.58621763562E+03  0.00000000000E+00 0.  1.
          4   -1    0    0  501    0  0.00000000000E+00 -0.00000000000E+00 -0.82819407357E+02  0.82819407357E+02  0.00000000000E+00 0. -1.
         25    2    1    2    0    0  0.17761195383E+01 -0.80924367703E+02 -0.15465016773E+01  0.14900192256E+03  0.12508906176E+03 0.  0.
          5    1    3    3  502    0 -0.16656009646E+02  0.16617031491E+02 -0.36543422911E+02  0.43662828023E+02  0.41800000000E+01 0.  1.
         -5    1    3    3    0  502  0.18432129184E+02 -0.97541399194E+02  0.34996921234E+02  0.10533909454E+03  0.41800000000E+01 0.  1.
        -11    1    1    2    0    0 -0.44239315463E+02  0.60246578791E+02  0.35675592178E+03  0.36450179014E+03  0.00000000000E+00 0.  1.
         11    1    1    2    0    0  0.42463195924E+02  0.20677788913E+02  0.14818880816E+03  0.15553333028E+03  0.00000000000E+00 0. -1.
</event>
<event>
 7    1  0.2732144E-009  0.1056061E+03  0.7561462E-02  0.1268930E+00
         -1   -1    0    0    0  501 -0.00000000000E+00  0.00000000000E+00  0.46892751024E+03  0.46892751024E+03  0.00000000000E+00 0.  1.
          1   -1    0    0  501    0  0.00000000000E+00 -0.00000000000E+00 -0.48300636066E+02  0.48300636066E+02  0.00000000000E+00 0. -1.
         25    2    1    2    0    0  0.37070067561E+02 -0.13980857484E+02  0.39271425444E+03  0.41405460855E+03  0.12508828457E+03 0.  0.
          5    1    3    3  502    0 -0.40938725959E+02 -0.42300649483E+01  0.22513364881E+03  0.22890282864E+03  0.41800000000E+01 0. -1.
         -5    1    3    3    0  502  0.78008793519E+02 -0.97507925359E+01  0.16758060563E+03  0.18515177992E+03  0.41800000000E+01 0. -1.
        -11    1    1    2    0    0 -0.43918770918E+02  0.42902036728E+02 -0.14243979006E+01  0.61412312313E+02  0.00000000000E+00 0. -1.
         11    1    1    2    0    0  0.68487033567E+01 -0.28921179244E+02  0.29337017632E+02  0.41761225438E+02  0.00000000000E+00 0.  1.
</event>
<event>
 7    1  0.3199677E-009  0.8520060E+02  0.7561462E-02  0.1314909E+00
         -2   -1    0    0    0  501 -0.00000000000E+00  0.00000000000E+00  0.34450577445E+02  0.34450577445E+02  0.00000000000E+00 0.  1.
          2   -1    0    0  501    0  0.00000000000E+00 -0.00000000000E+00 -0.40302212352E+03  0.40302212352E+03  0.00000000000E+00 0. -1.
         25    2    1    2    0    0 -0.40152061950E+02 -0.21189309628E+02 -0.20343236122E+03  0.24309065371E+03  0.12508863022E+03 0.  0.
          5    1    3    3  502    0 -0.38627238628E+02 -0.58366705891E+02 -0.19127892823E+03  0.20372490448E+03  0.41800000000E+01 0. -1.
         -5    1    3    3    0  502 -0.15248233216E+01  0.37177396263E+02 -0.12153432989E+02  0.39365749231E+02  0.41800000000E+01 0. -1.
        -11    1    1    2    0    0  0.16309576359E+02 -0.13210239127E+02  0.29189958584E+01  0.21190404329E+02  0.00000000000E+00 0.  1.
         11    1    1    2    0    0  0.23842485590E+02  0.34399548755E+02 -0.16805818071E+03  0.17319164292E+03  0.00000000000E+00 0. -1.
</event>
<event>
 7    1  0.2732144E-009  0.7892616E+02  0.7561462E-02  0.1332127E+00
         -1   -1    0    0    0  501 -0.00000000000E+00  0.00000000000E+00  0.68658302347E+03  0.68658302347E+03  0.00000000000E+00 0.  1.
          1   -1    0    0  501    0  0.00000000000E+00 -0.00000000000E+00 -0.18370557022E+02  0.18370557022E+02  0.00000000000E+00 0. -1.
         25    2    1    2    0    0 -0.26219267352E+02 -0.98759043423E+01  0.34258006417E+03  0.36577787399E+03  0.12508944506E+03 0.  0.
          5    1    3    3  502    0 -0.51237067442E+02 -0.14936467008E+02  0.53990012413E+02  0.76031105260E+02  0.41800000000E+01 0.  1.
         -5    1    3    3    0  502  0.25017800090E+02  0.50605626656E+01  0.28859005176E+03  0.28974676873E+03  0.41800000000E+01 0.  1.
        -11    1    1    2    0    0 -0.24203414826E+02  0.13831835164E+02  0.37991438032E+02  0.47121909097E+02  0.00000000000E+00 0. -1.
         11    1    1    2    0    0  0.50422682178E+02 -0.39559308217E+01  0.28764096425E+03  0.29205379741E+03  0.00000000000E+00 0.  1.
</event>
<event>
 7    1  0.2732144E-009  0.7581261E+02  0.7561462E-02  0.1341373E+00
          2   -1    0    0  501    0  0.00000000000E+00  0.00000000000E+00  0.16332675272E+04  0.16332675272E+04  0.00000000000E+00 0. -1.
         -2   -1    0    0    0  501 -0.00000000000E+00 -0.00000000000E+00 -0.95683981029E+01  0.95683981029E+01  0.00000000000E+00 0.  1.
         25    2    1    2    0    0 -0.42561251052E+02  0.15005821912E+02  0.12003296751E+04  0.12076741160E+04  0.12509519130E+03 0.  0.
          5    1    3    3  502    0 -0.77502715684E-01  0.91907776239E+01  0.10767937790E+04  0.10768411170E+04  0.41800000000E+01 0.  1.
         -5    1    3    3    0  502 -0.42483748337E+02  0.58150442877E+01  0.12353589606E+03  0.13083299900E+03  0.41800000000E+01 0.  1.
        -11    1    1    2    0    0  0.50347459540E+02 -0.44957177200E+02  0.24501463179E+03  0.25414205527E+03  0.00000000000E+00 0.  1.
         11    1    1    2    0    0 -0.77862084877E+01  0.29951355288E+02  0.17835482223E+03  0.18101975400E+03  0.00000000000E+00 0. -1.
</event>
<event>
 7    1  0.2732144E-009  0.8078875E+02  0.7561462E-02  0.1326828E+00
          3   -1    0    0  501    0  0.00000000000E+00  0.00000000000E+00  0.59724503694E+02  0.59724503694E+02  0.00000000000E+00 0. -1.
         -3   -1    0    0    0  501 -0.00000000000E+00 -0.00000000000E+00 -0.22017997482E+03  0.22017997482E+03  0.00000000000E+00 0.  1.
         25    2    1    2    0    0  0.23764364688E+02 -0.10149798240E+02 -0.13060370526E+03  0.18266063376E+03  0.12505924942E+03 0.  0.
          5    1    3    3  502    0  0.42238091648E+01  0.57153849889E+02 -0.56760238125E+02  0.80768806807E+02  0.41800000000E+01 0. -1.
         -5    1    3    3    0  502  0.19540555523E+02 -0.67303648129E+02 -0.73843467133E+02  0.10189182695E+03  0.41800000000E+01 0. -1.
        -11    1    1    2    0    0 -0.76242226454E+01 -0.70052832443E+01  0.30632538977E+02  0.32335046133E+02  0.00000000000E+00 0. -1.
         11    1    1    2    0    0 -0.16140142043E+02  0.17155081484E+02 -0.60484304849E+02  0.64908798625E+02  0.00000000000E+00 0.  1.
</event>
<event>
 7    1  0.2732144E-009  0.1178789E+03  0.7561462E-02  0.1246638E+00
         -1   -1    0    0    0  501 -0.00000000000E+00  0.00000000000E+00  0.31792679856E+03  0.31792679856E+03  0.00000000000E+00 0.  1.
          1   -1    0    0  501    0  0.00000000000E+00 -0.00000000000E+00 -0.47031727735E+02  0.47031727735E+02  0.00000000000E+00 0. -1.
         25    2    1    2    0    0 -0.35934908320E+02 -0.37702640605E+02  0.12224803261E+03  0.18250052530E+03  0.12509617705E+03 0.  0.
          5    1    3    3  502    0 -0.80048324035E+02 -0.31420681072E+02  0.10171584310E+03  0.13326131666E+03  0.41800000000E+01 0. -1.
         -5    1    3    3    0  502  0.44113415715E+02 -0.62819595327E+01  0.20532189504E+02  0.49239208639E+02  0.41800000000E+01 0. -1.
        -11    1    1    2    0    0 -0.19443670279E+02 -0.17902735880E+02  0.48401432043E+02  0.55147646275E+02  0.00000000000E+00 0.  1.
         11    1    1    2    0    0  0.55378578599E+02  0.55605376485E+02  0.10024560617E+03  0.12731035472E+03  0.00000000000E+00 0. -1.
</event>
<event>
 7    1  0.2732144E-009  0.1007877E+03  0.7561462E-02  0.1278648E+00
          1   -1    0    0  501    0  0.00000000000E+00  0.00000000000E+00  0.88134038560E+02  0.88134038560E+02  0.00000000000E+00 0. -1.
         -1   -1    0    0    0  501 -0.00000000000E+00 -0.00000000000E+00 -0.14349444595E+03  0.14349444595E+03  0.00000000000E+00 0.  1.
         25    2    1    2    0    0 -0.30636879421E+02 -0.86074491114E+01 -0.20341082069E+02  0.13066687744E+03  0.12508943472E+03 0.  0.
          5    1    3    3  502    0 -0.59332381349E+02 -0.35681357587E+02 -0.46174420129E+02  0.83324907621E+02  0.41800000000E+01 0.  1.
         -5    1    3    3    0  502  0.28695501927E+02  0.27073908476E+02  0.25833338059E+02  0.47341969818E+02  0.41800000000E+01 0.  1.
        -11    1    1    2    0    0  0.70373338274E+01 -0.38881029727E+02 -0.25657833415E+02  0.47112450113E+02  0.00000000000E+00 0.  1.
         11    1    1    2    0    0  0.23599545594E+02  0.47488478839E+02 -0.93614919096E+01  0.53849156961E+02  0.00000000000E+00 0. -1.
</event>
<event>
 7    1  0.2732144E-009  0.1737333E+03  0.7561462E-02  0.1174010E+00
          1   -1    0    0  501    0  0.00000000000E+00  0.00000000000E+00  0.53259575281E+03  0.53259575281E+03  0.00000000000E+00 0. -1.
         -1   -1    0    0    0  501 -0.00000000000E+00 -0.00000000000E+00 -0.69939558570E+02  0.69939558570E+02  0.00000000000E+00 0.  1.
         25    2    1    2    0    0 -0.14714184684E+03  0.24254363750E+02  0.20366560409E+03  0.28172053377E+03  0.12509110123E+03 0.  0.
          5    1    3    3  502    0 -0.12004475945E+02 -0.39949695063E+02  0.25659709768E+02  0.49152606072E+02  0.41800000000E+01 0.  1.
         -5    1    3    3    0  502 -0.13513737090E+03  0.64204058813E+02  0.17800589432E+03  0.23256792770E+03  0.41800000000E+01 0.  1.
        -11    1    1    2    0    0  0.60538874474E+02 -0.32790108551E+02  0.28628527043E+02  0.74563658052E+02  0.00000000000E+00 0.  1.
         11    1    1    2    0    0  0.86602972369E+02  0.85357448015E+01  0.23036206311E+03  0.24625111955E+03  0.00000000000E+00 0. -1.
</event>
<event>
 7    1  0.2732144E-009  0.1319272E+03  0.7561462E-02  0.1224624E+00
         -2   -1    0    0    0  501 -0.00000000000E+00  0.00000000000E+00  0.34630335132E+02  0.34630335132E+02  0.00000000000E+00 0.  1.
          2   -1    0    0  501    0  0.00000000000E+00 -0.00000000000E+00 -0.62377247829E+03  0.62377247829E+03  0.00000000000E+00 0. -1.
         25    2    1    2    0    0 -0.92034365043E+02  0.26828206089E+02 -0.27424573547E+03  0.31632558854E+03  0.12514422701E+03 0.  0.
          5    1    3    3  502    0 -0.85857975873E+02 -0.18475036489E+02 -0.24870028083E+03  0.26378442160E+03  0.41800000000E+01 0. -1.
         -5    1    3    3    0  502 -0.61763891699E+01  0.45303242578E+02 -0.25545454639E+02  0.52541166945E+02  0.41800000000E+01 0. -1.
        -11    1    1    2    0    0  0.86558660173E+02  0.14986949893E+02 -0.17269109679E+03  0.19375041994E+03  0.00000000000E+00 0.  1.
         11    1    1    2    0    0  0.54757048699E+01 -0.41815155982E+02 -0.14220531090E+03  0.14832680493E+03  0.00000000000E+00 0. -1.
</event>
<event>
 7    1  0.2732144E-009  0.2740977E+03  0.7561462E-02  0.1098957E+00
          3   -1    0    0  501    0  0.00000000000E+00  0.00000000000E+00  0.45996713603E+03  0.45996713603E+03  0.00000000000E+00 0. -1.
         -3   -1    0    0    0  501 -0.00000000000E+00 -0.00000000000E+00 -0.26411179918E+03  0.26411179918E+03  0.00000000000E+00 0.  1.
         25    2    1    2    0    0 -0.35449290437E+02 -0.24782011939E+03  0.32104399741E+03  0.42589685239E+03  0.12508963518E+03 0.  0.
          5    1    3    3  502    0  0.40513517476E+02 -0.14109680385E+03  0.14456693418E+03  0.20607455935E+03  0.41800000000E+01 0. -1.
         -5    1    3    3    0  502 -0.75962807913E+02 -0.10672331555E+03  0.17647706323E+03  0.21982229303E+03  0.41800000000E+01 0. -1.
        -11    1    1    2    0    0 -0.29866733698E+02  0.27940690625E+02 -0.13577955897E+02  0.43093675415E+02  0.00000000000E+00 0.  1.
         11    1    1    2    0    0  0.65316024135E+02  0.21987942877E+03 -0.11161070467E+03  0.25508840742E+03  0.00000000000E+00 0. -1.
</event>
<event>
 7    1  0.2732144E-009  0.8490877E+02  0.7561462E-02  0.1315671E+00
         -2   -1    0    0    0  501 -0.00000000000E+00  0.00000000000E+00  0.39113581735E+03  0.39113581735E+03  0.00000000000E+00 0.  1.
          2   -1    0    0  501    0  0.00000000000E+00 -0.00000000000E+00 -0.35472197653E+02  0.35472197653E+02  0.00000000000E+00 0. -1.
         25    2    1    2    0    0  0.39758999722E+02  0.82498707860E+01  0.23857427915E+03  0.27242501494E+03  0.12509541825E+03 0.  0.
          5    1    3    3  502    0  0.38330050504E+02 -0.18398303871E+02  0.24150503069E+03  0.24525464849E+03  0.41800000000E+01 0. -1.
         -5    1    3    3    0  502  0.14289492178E+01  0.26648174657E+02 -0.29307515412E+01  0.27170366450E+02  0.41800000000E+01 0. -1.
        -11    1    1    2    0    0 -0.40858044045E+00  0.38769035271E+02  0.50482523549E+02  0.63652888526E+02  0.00000000000E+00 0.  1.
         11    1    1    2    0    0 -0.39350419281E+02 -0.47018906057E+02  0.66606817001E+02  0.90530111540E+02  0.00000000000E+00 0. -1.
</event>
<event>
 7    1  0.2732144E-009  0.1369064E+03  0.7561462E-02  0.1217553E+00
          1   -1    0    0  501    0  0.00000000000E+00  0.00000000000E+00  0.19560762570E+03  0.19560762570E+03  0.00000000000E+00 0. -1.
         -1   -1    0    0    0  501 -0.00000000000E+00 -0.00000000000E+00 -0.15673770914E+03  0.15673770914E+03  0.00000000000E+00 0.  1.
         25    2    1    2    0    0  0.79664764752E+02 -0.44635615380E+02  0.12060060186E+03  0.19629816882E+03  0.12509857317E+03 0.  0.
          5    1    3    3  502    0  0.60585354358E+02  0.30154133691E+02  0.22576718857E+02  0.71463540184E+02  0.41800000000E+01 0. -1.
         -5    1    3    3    0  502  0.19079410395E+02 -0.74789749071E+02  0.98023883004E+02  0.12483462863E+03  0.41800000000E+01 0. -1.
        -11    1    1    2    0    0 -0.49435880107E+02 -0.23077227652E+02 -0.15740535812E+02  0.56782296059E+02  0.00000000000E+00 0.  1.
         11    1    1    2    0    0 -0.30228884645E+02  0.67712843033E+02 -0.65990149488E+02  0.99264869959E+02  0.00000000000E+00 0. -1.
</event>
<event>
 7    1  0.2732144E-009  0.1503052E+03  0.7561462E-02  0.1200099E+00
         -1   -1    0    0    0  501 -0.00000000000E+00  0.00000000000E+00  0.83302359983E+03  0.83302359983E+03  0.00000000000E+00 0.  1.
          1   -1    0    0  501    0  0.00000000000E+00 -0.00000000000E+00 -0.36791468364E+02  0.36791468364E+02  0.00000000000E+00 0. -1.
         25    2    1    2    0    0 -0.83993887536E+02 -0.10920390535E+03  0.42663671599E+03  0.46545376883E+03  0.12509139620E+03 0.  0.
          5    1    3    3  502    0 -0.15260798060E+02 -0.17628429007E+02  0.27182184356E+03  0.27285204874E+03  0.41800000000E+01 0.  1.
         -5    1    3    3    0  502 -0.68733089476E+02 -0.91575476346E+02  0.15481487243E+03  0.19260172009E+03  0.41800000000E+01 0.  1.
        -11    1    1    2    0    0  0.10186054128E+03  0.87918296213E+02  0.28187116508E+03  0.31234043988E+03  0.00000000000E+00 0. -1.
         11    1    1    2    0    0 -0.17866653742E+02  0.21285609140E+02  0.87724250389E+02  0.92020859476E+02  0.00000000000E+00 0.  1.
</event>
<event>
 7    1  0.2732144E-009  0.1276096E+03  0.7561462E-02  0.1231046E+00
         -1   -1    0    0    0  501 -0.00000000000E+00  0.00000000000E+00  0.19558830095E+02  0.19558830095E+02  0.00000000000E+00 0. -1.
          1   -1    0    0  501    0  0.00000000000E+00 -0.00000000000E+00 -0.12699985614E+04  0.12699985614E+04  0.00000000000E+00 0.  1.
         25    2    1    2    0    0  0.17419095007E+02  0.74979511987E+02 -0.10138585601E+04  0.10244414995E+04  0.12508338724E+03 0.  0.
          5    1    3    3  502    0 -0.49898832468E+02  0.17023011425E+02 -0.25765725514E+03  0.26302929480E+03  0.41800000000E+01 0.  1.
         -5    1    3    3    0  502  0.67317927475E+02  0.57956500562E+02 -0.75620130501E+03  0.76141220466E+03  0.41800000000E+01 0.  1.
        -11    1    1    2    0    0  0.31890113876E+02 -0.13595619575E+02 -0.11629118908E+03  0.12134851006E+03  0.00000000000E+00 0.  1.
         11    1    1    2    0    0 -0.49309208883E+02 -0.61383892412E+02 -0.12028998203E+03  0.14376738193E+03  0.00000000000E+00 0. -1.
</event>
<event>
 7    1  0.2732144E-009  0.1282822E+03  0.7561462E-02  0.1230027E+00
          2   -1    0    0  501    0  0.00000000000E+00  0.00000000000E+00  0.37462162310E+03  0.37462162310E+03  0.00000000000E+00 0. -1.
         -2   -1    0    0    0  501 -0.00000000000E+00 -0.00000000000E+00 -0.57258364914E+02  0.57258364914E+02  0.00000000000E+00 0.  1.
         25    2    1    2    0    0 -0.80823405792E+02 -0.22102316641E+02  0.24727908108E+03  0.28950982220E+03  0.12509219753E+03 0.  0.
          5    1    3    3  502    0 -0.80713340109E+02 -0.65758918505E+02  0.19648621451E+03  0.22240320035E+03  0.41800000000E+01 0.  1.
         -5    1    3    3    0  502 -0.11006568355E+00  0.43656601864E+02  0.50792866572E+02  0.67106621844E+02  0.41800000000E+01 0.  1.
        -11    1    1    2    0    0  0.52536760503E+02 -0.21314369915E+02  0.70602727657E+02  0.90549206080E+02  0.00000000000E+00 0. -1.
         11    1    1    2    0    0  0.28286645289E+02  0.43416686556E+02 -0.51855055581E+00  0.51820959735E+02  0.00000000000E+00 0.  1.
</event>
<event>
 7    1  0.2732144E-009  0.3188266E+03  0.7561462E-02  0.1076191E+00
         -1   -1    0    0    0  501 -0.00000000000E+00  0.00000000000E+00  0.74463107918E+03  0.74463107918E+03  0.00000000000E+00 0.  1.
          1   -1    0    0  501    0  0.00000000000E+00 -0.00000000000E+00 -0.14966162675E+03  0.14966162675E+03  0.00000000000E+00 0. -1.
         25    2    1    2    0    0  0.29933468751E+03 -0.70051767334E+02  0.39802835599E+03  0.51824999872E+03  0.12509190121E+03 0.  0.
          5    1    3    3  502    0  0.18353009035E+03  0.17809457094E+02  0.19380666019E+03  0.26754245412E+03  0.41800000000E+01 0. -1.
         -5    1    3    3    0  502  0.11580459716E+03 -0.87861224428E+02  0.20422169580E+03  0.25070754460E+03  0.41800000000E+01 0. -1.
        -11    1    1    2    0    0 -0.16668930405E+03  0.46682250901E+02  0.16156428697E+03  0.23678592749E+03  0.00000000000E+00 0. -1.
         11    1    1    2    0    0 -0.13264538345E+03  0.23369516433E+02  0.35376809469E+02  0.13925677972E+03  0.00000000000E+00 0.  1.
</event>
<event>
 7    1  0.2732144E-009  0.1036561E+03  0.7561462E-02  0.1272790E+00
          2   -1    0    0  501    0  0.00000000000E+00  0.00000000000E+00  0.56753785492E+03  0.56753785492E+03  0.00000000000E+00 0. -1.
         -2   -1    0    0    0  501 -0.00000000000E+00 -0.00000000000E+00 -0.27176375248E+02  0.27176375248E+02  0.00000000000E+00 0.  1.
         25    2    1    2    0    0 -0.96388807735E+01  0.59667414201E+01  0.15490370305E+03  0.19942328402E+03  0.12508388772E+03 0.  0.
          5    1    3    3  502    0  0.43821502098E+02  0.40975208494E+02  0.90004259720E+02  0.10824754466E+03  0.41800000000E+01 0.  1.
         -5    1    3    3    0  502 -0.53460382872E+02 -0.35008467074E+02  0.64899443332E+02  0.91175739364E+02  0.41800000000E+01 0.  1.
        -11    1    1    2    0    0 -0.76668293028E+01  0.36488981110E+02  0.11272379552E+03  0.11873028295E+03  0.00000000000E+00 0.  1.
         11    1    1    2    0    0  0.17305710076E+02 -0.42455722530E+02  0.27273398110E+03  0.27656066319E+03  0.00000000000E+00 0. -1.
</event>
<event>
 7    1  0.2732144E-009  0.1233191E+03  0.7561462E-02  0.1237720E+00
          1   -1    0    0  501    0  0.00000000000E+00  0.00000000000E+00  0.40487500011E+03  0.40487500011E+03  0.00000000000E+00 0. -1.
         -1   -1    0    0    0  501 -0.00000000000E+00 -0.00000000000E+00 -0.60678575525E+02  0.60678575525E+02  0.00000000000E+00 0.  1.
         25    2    1    2    0    0  0.82674697079E+02  0.16894200240E+02  0.30366461344E+03  0.33908401988E+03  0.12508099595E+03 0.  0.
          5    1    3    3  502    0  0.10012296317E+03 -0.22804121614E+02  0.17162335492E+03  0.20004170582E+03  0.41800000000E+01 0.  1.
         -5    1    3    3    0  502 -0.17448266088E+02  0.39698321855E+02  0.13204125852E+03  0.13904231406E+03  0.41800000000E+01 0.  1.
        -11    1    1    2    0    0 -0.80575711710E+02 -0.30782480749E+02  0.29025934383E+01  0.86304295880E+02  0.00000000000E+00 0.  1.
         11    1    1    2    0    0 -0.20989853692E+01  0.13888280508E+02  0.37629217705E+02  0.40165259867E+02  0.00000000000E+00 0. -1.
</event>
<event>
 7    1  0.2732144E-009  0.8391227E+02  0.7561462E-02  0.1318302E+00
          1   -1    0    0  501    0  0.00000000000E+00  0.00000000000E+00  0.62588592263E+03  0.62588592263E+03  0.00000000000E+00 0. -1.
         -1   -1    0    0    0  501 -0.00000000000E+00 -0.00000000000E+00 -0.22011306836E+02  0.22011306836E+02  0.00000000000E+00 0.  1.
         25    2    1    2    0    0  0.16404360224E+01 -0.39762828505E+02  0.40368942973E+03  0.42449495662E+03  0.12508812475E+03 0.  0.
          5    1    3    3  502    0  0.54233403882E+02 -0.82489799517E+01  0.29083684111E+03  0.29599467615E+03  0.41800000000E+01 0.  1.
         -5    1    3    3    0  502 -0.52592967860E+02 -0.31513848554E+02  0.11285258863E+03  0.12850028046E+03  0.41800000000E+01 0.  1.
        -11    1    1    2    0    0 -0.15612995612E+02  0.31407119268E+02  0.20374116322E+03  0.20673808155E+03  0.00000000000E+00 0. -1.
         11    1    1    2    0    0  0.13972559590E+02  0.83557092371E+01 -0.35559771534E+01  0.16664191305E+02  0.00000000000E+00 0.  1.
</event>
<event>
 7    1  0.2732144E-009  0.1870146E+03  0.7561462E-02  0.1161182E+00
         -1   -1    0    0    0  501 -0.00000000000E+00  0.00000000000E+00  0.21069954793E+03  0.21069954793E+03  0.00000000000E+00 0. -1.
          1   -1    0    0  501    0  0.00000000000E+00 -0.00000000000E+00 -0.60167533697E+03  0.60167533697E+03  0.00000000000E+00 0.  1.
         25    2    1    2    0    0 -0.14533900482E+03  0.79005504699E+02 -0.53561444841E+03  0.57436541725E+03  0.12508996403E+03 0.  0.
          5    1    3    3  502    0 -0.11649062866E+03 -0.62921124007E+01 -0.28192477301E+03  0.30513719420E+03  0.41800000000E+01 0. -1.
         -5    1    3    3    0  502 -0.28848376165E+02  0.85297617099E+02 -0.25368967539E+03  0.26922822306E+03  0.41800000000E+01 0. -1.
        -11    1    1    2    0    0  0.87190126564E+02 -0.60523145302E+02  0.14154113073E+03  0.17691540627E+03  0.00000000000E+00 0.  1.
         11    1    1    2    0    0  0.58148878257E+02 -0.18482359397E+02  0.30975286278E+01  0.61094061373E+02  0.00000000000E+00 0. -1.
</event>
<event>
 7    1  0.2732144E-009  0.9248275E+02  0.7561462E-02  0.1296948E+00
         -1   -1    0    0    0  501 -0.00000000000E+00  0.00000000000E+00  0.65208374373E+02  0.65208374373E+02  0.00000000000E+00 0.  1.
          1   -1    0    0  501    0  0.00000000000E+00 -0.00000000000E+00 -0.37433098839E+03  0.37433098839E+03  0.00000000000E+00 0. -1.
         25    2    1    2    0    0 -0.66783797482E+02  0.62197047617E+02 -0.73665658404E+02  0.17147306472E+03  0.12509130409E+03 0.  0.
          5    1    3    3  502    0 -0.15842990580E+02  0.26006818519E+02  0.34672496971E+02  0.46335832853E+02  0.41800000000E+01 0.  1.
         -5    1    3    3    0  502 -0.50940806902E+02  0.36190229098E+02 -0.10833815537E+03  0.12513723187E+03  0.41800000000E+01 0.  1.
        -11    1    1    2    0    0  0.16623035918E+02 -0.20345841598E+02 -0.28118018761E+01  0.26423187228E+02  0.00000000000E+00 0.  1.
         11    1    1    2    0    0  0.50160761564E+02 -0.41851206019E+02 -0.23264515374E+03  0.24164311081E+03  0.00000000000E+00 0. -1.
</event>
<event>
 7    1  0.2732144E-009  0.1073214E+03  0.7561462E-02  0.1265612E+00
         -1   -1    0    0    0  501 -0.00000000000E+00  0.00000000000E+00  0.21957362331E+03  0.21957362331E+03  0.00000000000E+00 0.  1.
          1   -1    0    0  501    0  0.00000000000E+00 -0.00000000000E+00 -0.70302517199E+02  0.70302517199E+02  0.00000000000E+00 0. -1.
         25    2    1    2    0    0  0.27206448545E+02 -0.49994943591E+02  0.10716056996E+03  0.17427010721E+03  0.12508795819E+03 0.  0.
          5    1    3    3  502    0 -0.36660825438E+02 -0.60078144776E+02  0.40500004316E+02  0.81308808570E+02  0.41800000000E+01 0. -1.
         -5    1    3    3    0  502  0.63867273983E+02  0.10083201185E+02  0.66660565644E+02  0.92961298636E+02  0.41800000000E+01 0. -1.
        -11    1    1    2    0    0  0.17141940404E+02  0.11737779654E+02  0.52192199257E+02  0.56175148022E+02  0.00000000000E+00 0.  1.
         11    1    1    2    0    0 -0.44348388949E+02  0.38257163938E+02 -0.10081663101E+02  0.59430885285E+02  0.00000000000E+00 0. -1.
</event>
<event>
 7    1  0.2732144E-009  0.9249262E+02  0.7561462E-02  0.1296925E+00
         -2   -1    0    0    0  501 -0.00000000000E+00  0.00000000000E+00  0.50204742294E+02  0.50204742294E+02  0.00000000000E+00 0.  1.
          2   -1    0    0  501    0  0.00000000000E+00 -0.00000000000E+00 -0.35009882188E+03  0.35009882188E+03  0.00000000000E+00 0. -1.
         25    2    1    2    0    0 -0.67987094318E+02 -0.22339569225E+02 -0.12606100440E+03  0.19146740393E+03  0.12508832316E+03 0.  0.
          5    1    3    3  502    0 -0.53162689041E+02 -0.38758497072E+01 -0.14895892363E+03  0.15826410537E+03  0.41800000000E+01 0.  1.
         -5    1    3    3    0  502 -0.14824405278E+02 -0.18463719518E+02  0.22897919234E+02  0.33203298564E+02  0.41800000000E+01 0.  1.
        -11    1    1    2    0    0 -0.17802851197E+02 -0.29225498242E+01 -0.67624378816E+02  0.69989566498E+02  0.00000000000E+00 0. -1.
         11    1    1    2    0    0  0.85789945516E+02  0.25262119049E+02 -0.10620869637E+03  0.13884659375E+03  0.00000000000E+00 0.  1.
</event>
<event>
 7    1  0.3104594E-009  0.2495921E+03  0.7561462E-02  0.1113563E+00
          2   -1    0    0  501    0  0.00000000000E+00  0.00000000000E+00  0.73359678025E+03  0.73359678025E+03  0.00000000000E+00 0. -1.
         -2   -1    0    0    0  501 -0.00000000000E+00 -0.00000000000E+00 -0.98594226980E+02  0.98594226980E+02  0.00000000000E+00 0.  1.
         25    2    1    2    0    0 -0.21870038925E+02 -0.24110070915E+03  0.26139969513E+03  0.37760464048E+03  0.12509042068E+03 0.  0.
          5    1    3    3  502    0  0.28064827702E+02 -0.35388265431E+02  0.10499164164E+03  0.11437080527E+03  0.41800000000E+01 0. -1.
         -5    1    3    3    0  502 -0.49934866627E+02 -0.20571244372E+03  0.15640805349E+03  0.26323383521E+03  0.41800000000E+01 0. -1.
        -11    1    1    2    0    0  0.66300261380E+01  0.82772395042E+02  0.58378924638E+02  0.10150529774E+03  0.00000000000E+00 0.  1.
         11    1    1    2    0    0  0.15240012787E+02  0.15832831411E+03  0.31522393351E+03  0.35308106901E+03  0.00000000000E+00 0. -1.
</event>
