<event>
 7    1  0.2688177E-009  0.1331575E+03  0.7561462E-02  0.1222844E+00
          1   -1    0    0  501    0  0.00000000000E+00  0.00000000000E+00  0.17499547963E+03  0.17499547963E+03  0.00000000000E+00 0. -1.
         -1   -1    0    0    0  501 -0.00000000000E+00 -0.00000000000E+00 -0.20677497388E+03  0.20677497388E+03  0.00000000000E+00 0.  1.
         25    2    1    2    0    0  0.25613910608E+02 -0.11201899559E+03 -0.12230973813E+03  0.20931170310E+03  0.12508952484E+03 0.  0.
          5    1    3    3  502    0  0.42406775778E+02 -0.12342939580E+03 -0.60110526802E+02  0.14374942856E+03  0.41800000000E+01 0. -1.
         -5    1    3    3    0  502 -0.16792865170E+02  0.11410400209E+02 -0.62199211326E+02  0.65562274542E+02  0.41800000000E+01 0. -1.
        -11    1    1    2    0    0 -0.88677671400E+01  0.29348810144E+02 -0.17575538215E+02  0.35339630649E+02  0.00000000000E+00 0.  1.
         11    1    1    2    0    0 -0.16746143468E+02  0.82670185447E+02  0.10810578209E+03  0.13711911976E+03  0.00000000000E+00 0. -1.
</event>
<event>
 7    1  0.2688177E-009  0.8156316E+02  0.7561462E-02  0.1324673E+00
          1   -1    0    0  501    0  0.00000000000E+00  0.00000000000E+00  0.79371269716E+03  0.79371269716E+03  0.00000000000E+00 0. -1.
         -1   -1    0    0    0  501 -0.00000000000E+00 -0.00000000000E+00 -0.17176824772E+02  0.17176824772E+02  0.00000000000E+00 0.  1.
         25    2    1    2    0    0 -0.51955190092E+02  0.88357340124E+01  0.57600498865E+03  0.59178309729E+03  0.12509226722E+03 0.  0.
          5    1    3    3  502    0 -0.21760734981E+02 -0.29955054963E+02  0.44701011398E+02  0.58193536795E+02  0.41800000000E+01 0.  1.
         -5    1    3    3    0  502 -0.30194455111E+02  0.38790788975E+02  0.53130397725E+03  0.53358956050E+03  0.41800000000E+01 0.  1.
        -11    1    1    2    0    0 -0.11845150316E+02 -0.41826235578E+01  0.52498943715E+01  0.13614819747E+02  0.00000000000E+00 0.  1.
         11    1    1    2    0    0  0.63800340408E+02 -0.46531104546E+01  0.19528098936E+03  0.20549160489E+03  0.00000000000E+00 0. -1.
</event>
<event>
 7    1  0.2688177E-009  0.1265555E+03  0.7561462E-02  0.1232658E+00
          1   -1    0    0  501    0  0.00000000000E+00  0.00000000000E+00  0.30677869171E+03  0.30677869171E+03  0.00000000000E+00 0. -1.
         -1   -1    0    0    0  501 -0.00000000000E+00 -0.00000000000E+00 -0.63171976687E+02  0.63171976687E+02  0.00000000000E+00 0.  1.
         25    2    1    2    0    0 -0.45906821338E+02  0.71506034854E+02  0.11436835051E+03  0.18960018342E+03  0.12509021021E+03 0.  0.
          5    1    3    3  502    0 -0.25580064186E+02  0.10606533782E+03  0.95641199208E+02  0.14515132434E+03  0.41800000000E+01 0.  1.
         -5    1    3    3    0  502 -0.20326757153E+02 -0.34559302969E+02  0.18727151304E+02  0.44448859086E+02  0.41800000000E+01 0.  1.
        -11    1    1    2    0    0  0.60377040687E+02 -0.55128110508E+02  0.45002776095E+02  0.93326017094E+02  0.00000000000E+00 0.  1.
         11    1    1    2    0    0 -0.14470219349E+02 -0.16377924346E+02  0.84235588417E+02  0.87024467880E+02  0.00000000000E+00 0. -1.
</event>
<event>
 7    1  0.2688177E-009  0.1030669E+03  0.7561462E-02  0.1273976E+00
          2   -1    0    0  501    0  0.00000000000E+00  0.00000000000E+00  0.62152859897E+02  0.62152859897E+02  0.00000000000E+00 0. -1.
         -2   -1    0    0    0  501 -0.00000000000E+00 -0.00000000000E+00 -0.22655416498E+03  0.22655416498E+03  0.00000000000E+00 0.  1.
         25    2    1    2    0    0 -0.28228774300E+02  0.58642011362E+02 -0.11098156311E+03  0.17944564914E+03  0.12509230373E+03 0.  0.
          5    1    3    3  502    0 -0.69042357927E+02  0.66427928409E+02 -0.58340258513E+02  0.11225228294E+03  0.41800000000E+01 0.  1.
         -5    1    3    3    0  502  0.40813583627E+02 -0.77859170472E+01 -0.52641304597E+02  0.67193366209E+02  0.41800000000E+01 0.  1.
        -11    1    1    2    0    0  0.30517267998E+02 -0.43367961254E+02  0.64590793994E+00  0.53033017135E+02  0.00000000000E+00 0. -1.
         11    1    1    2    0    0 -0.22884936975E+01 -0.15274050108E+02 -0.54065649915E+02  0.56228358600E+02  0.00000000000E+00 0.  1.
</event>
<event>
 7    1  0.2688177E-009  0.9746200E+02  0.7561462E-02  0.1285725E+00
          2   -1    0    0  501    0  0.00000000000E+00  0.00000000000E+00  0.45208053657E+02  0.45208053657E+02  0.00000000000E+00 0.  1.
         -2   -1    0    0    0  501 -0.00000000000E+00 -0.00000000000E+00 -0.46376306076E+03  0.46376306076E+03  0.00000000000E+00 0. -1.
         25    2    1    2    0    0  0.41433788776E+02  0.23517570170E+02 -0.37481669382E+03  0.39798688040E+03  0.12504466421E+03 0.  0.
          5    1    3    3  502    0  0.77153665454E+02  0.41191945122E+02 -0.30673196877E+03  0.31898501140E+03  0.41800000000E+01 0. -1.
         -5    1    3    3    0  502 -0.35719876678E+02 -0.17674374951E+02 -0.68084725055E+02  0.79001869001E+02  0.41800000000E+01 0. -1.
        -11    1    1    2    0    0 -0.10704666052E+02 -0.33350977659E+02  0.19428700995E+02  0.40054363164E+02  0.00000000000E+00 0.  1.
         11    1    1    2    0    0 -0.30729122724E+02  0.98334074888E+01 -0.63167014281E+02  0.70929870854E+02  0.00000000000E+00 0. -1.
</event>
<event>
 7    1  0.2688177E-009  0.1638937E+03  0.7561462E-02  0.1184370E+00
         -1   -1    0    0    0  501 -0.00000000000E+00  0.00000000000E+00  0.25300492939E+03  0.25300492939E+03  0.00000000000E+00 0.  1.
          1   -1    0    0  501    0  0.00000000000E+00 -0.00000000000E+00 -0.12105848188E+03  0.12105848188E+03  0.00000000000E+00 0. -1.
         25    2    1    2    0    0  0.12620662646E+03 -0.12534997146E+02  0.12460574368E+03  0.21739160053E+03  0.12508907988E+03 0.  0.
          5    1    3    3  502    0  0.14897134861E+03 -0.10735852863E+02  0.12400102012E+03  0.19416860362E+03  0.41800000000E+01 0.  1.
         -5    1    3    3    0  502 -0.22764722150E+02 -0.17991442823E+01  0.60472356578E+00  0.23222996906E+02  0.41800000000E+01 0.  1.
        -11    1    1    2    0    0 -0.80473720447E+02  0.51105447002E+02 -0.54800160811E+01  0.95487260785E+02  0.00000000000E+00 0. -1.
         11    1    1    2    0    0 -0.45732906014E+02 -0.38570449857E+02  0.12820719904E+02  0.61184549957E+02  0.00000000000E+00 0.  1.
</event>
<event>
 6    1  0.2688177E-009  0.1084666E+03  0.7561462E-02  0.1263436E+00
         -3   -1    0    0    0  501 -0.00000000000E+00  0.00000000000E+00  0.95333676568E+02  0.95333676568E+02  0.00000000000E+00 0.  1.
          3   -1    0    0  501    0  0.00000000000E+00 -0.00000000000E+00 -0.12656235916E+03  0.12656235916E+03  0.00000000000E+00 0. -1.
          5    1    1    2  502    0 -0.70417841218E+02  0.12280557008E+01 -0.18346739127E+02  0.72898941825E+02  0.41800000000E+01 0. -1.
         -5    1    1    2    0  502  0.53617474510E+02 -0.11514134608E+01  0.56052697369E+01  0.54083738541E+02  0.41800000000E+01 0. -1.
        -11    1    1    2    0    0 -0.18025365097E+02  0.37345643032E+02 -0.13211060708E+02  0.43521752784E+02  0.00000000000E+00 0.  1.
         11    1    1    2    0    0  0.34825731805E+02 -0.37422285273E+02 -0.52761524982E+01  0.51391602582E+02  0.00000000000E+00 0. -1.
</event>
<event>
 7    1  0.3983848E-009  0.1325673E+03  0.7561462E-02  0.1223695E+00
          1   -1    0    0  501    0  0.00000000000E+00  0.00000000000E+00  0.70276744525E+03  0.70276744525E+03  0.00000000000E+00 0. -1.
         -1   -1    0    0    0  501 -0.00000000000E+00 -0.00000000000E+00 -0.34900245918E+02  0.34900245918E+02  0.00000000000E+00 0.  1.
         25    2    1    2    0    0 -0.10152628238E+03  0.20905402054E+02  0.25420614567E+03  0.30168329726E+03  0.12508966985E+03 0.  0.
          5    1    3    3  502    0 -0.52891913064E+01 -0.44486386185E+02  0.56300111038E+02  0.72070722234E+02  0.41800000000E+01 0.  1.
         -5    1    3    3    0  502 -0.96237091070E+02  0.65391788240E+02  0.19790603463E+03  0.22961257503E+03  0.41800000000E+01 0.  1.
        -11    1    1    2    0    0  0.38669254892E+02 -0.62521158984E+01  0.37166590367E+02  0.53997737606E+02  0.00000000000E+00 0.  1.
         11    1    1    2    0    0  0.62857027484E+02 -0.14653286156E+02  0.37649446330E+03  0.38198665631E+03  0.00000000000E+00 0. -1.
</event>
<event>
 7    1  0.2688177E-009  0.1715005E+03  0.7561462E-02  0.1176292E+00
         -1   -1    0    0    0  501 -0.00000000000E+00  0.00000000000E+00  0.95599654756E+02  0.95599654756E+02  0.00000000000E+00 0.  1.
          1   -1    0    0  501    0  0.00000000000E+00 -0.00000000000E+00 -0.32436699933E+03  0.32436699933E+03  0.00000000000E+00 0. -1.
         25    2    1    2    0    0  0.43737471494E+02  0.13071747930E+03 -0.14201348091E+03  0.23412596179E+03  0.12508841441E+03 0.  0.
          5    1    3    3  502    0  0.23831017599E+02 -0.21212503971E+02 -0.17411428108E+02  0.36585761620E+02  0.41800000000E+01 0. -1.
         -5    1    3    3    0  502  0.19906453894E+02  0.15192998327E+03 -0.12460205280E+03  0.19754020017E+03  0.41800000000E+01 0. -1.
        -11    1    1    2    0    0  0.21965960421E+02 -0.38178413024E+02 -0.49799904419E+02  0.66484021527E+02  0.00000000000E+00 0. -1.
         11    1    1    2    0    0 -0.65703431915E+02 -0.92539066272E+02 -0.36953959242E+02  0.11935667076E+03  0.00000000000E+00 0.  1.
</event>
<event>
 7    1  0.2688177E-009  0.1137090E+03  0.7561462E-02  0.1253852E+00
         -2   -1    0    0    0  501 -0.00000000000E+00  0.00000000000E+00  0.18821320143E+02  0.18821320143E+02  0.00000000000E+00 0.  1.
          2   -1    0    0  501    0  0.00000000000E+00 -0.00000000000E+00 -0.91084591303E+03  0.91084591303E+03  0.00000000000E+00 0. -1.
         25    2    1    2    0    0  0.53978837241E+02 -0.88099229847E+01 -0.66535936380E+03  0.67922219769E+03  0.12509348995E+03 0.  0.
          5    1    3    3  502    0 -0.32922568288E+02  0.26663664378E+02 -0.20791330265E+03  0.21222690762E+03  0.41800000000E+01 0.  1.
         -5    1    3    3    0  502  0.86901405529E+02 -0.35473587362E+02 -0.45744606115E+03  0.46699529006E+03  0.41800000000E+01 0.  1.
        -11    1    1    2    0    0  0.31437094523E+01 -0.24543324300E+02 -0.13589908763E+03  0.13813334028E+03  0.00000000000E+00 0.  1.
         11    1    1    2    0    0 -0.57122546693E+02  0.33353247285E+02 -0.90766141455E+02  0.11231169520E+03  0.00000000000E+00 0. -1.
</event>
<event>
 7    1  0.2688177E-009  0.9074628E+02  0.7561462E-02  0.1301054E+00
          2   -1    0    0  501    0  0.00000000000E+00  0.00000000000E+00  0.65059280115E+03  0.65059280115E+03  0.00000000000E+00 0. -1.
         -2   -1    0    0    0  501 -0.00000000000E+00 -0.00000000000E+00 -0.29160637089E+02  0.29160637089E+02  0.00000000000E+00 0.  1.
         25    2    1    2    0    0  0.20212526112E+02  0.52331462816E+02  0.49713003220E+03  0.51568637026E+03  0.12508811034E+03 0.  0.
          5    1    3    3  502    0 -0.22900728289E+02  0.68230776820E+02  0.16099722808E+03  0.17640142321E+03  0.41800000000E+01 0.  1.
         -5    1    3    3    0  502  0.43113254401E+02 -0.15899314003E+02  0.33613280412E+03  0.33928494705E+03  0.41800000000E+01 0.  1.
        -11    1    1    2    0    0  0.47677753292E+01 -0.27944122811E+02  0.12596634286E+03  0.12911671160E+03  0.00000000000E+00 0. -1.
         11    1    1    2    0    0 -0.24980301441E+02 -0.24387340006E+02 -0.16642109951E+01  0.34950356377E+02  0.00000000000E+00 0.  1.
</event>
<event>
 7    1  0.2688177E-009  0.6177537E+02  0.7561462E-02  0.1390529E+00
         -2   -1    0    0    0  501 -0.00000000000E+00  0.00000000000E+00  0.44498113299E+02  0.44498113299E+02  0.00000000000E+00 0.  1.
          2   -1    0    0  501    0  0.00000000000E+00 -0.00000000000E+00 -0.28750099376E+03  0.28750099376E+03  0.00000000000E+00 0. -1.
         25    2    1    2    0    0 -0.37189134723E+02 -0.19152371423E+02 -0.11529758611E+03  0.17519143857E+03  0.12509461105E+03 0.  0.
          5    1    3    3  502    0 -0.12235520668E+02  0.40600474293E+01 -0.13495012436E+03  0.13562890701E+03  0.41800000000E+01 0.  1.
         -5    1    3    3    0  502 -0.24953614055E+02 -0.23212418852E+02  0.19652538255E+02  0.39562531558E+02  0.41800000000E+01 0.  1.
        -11    1    1    2    0    0  0.27460074775E+02 -0.20859614073E+02 -0.16510381870E+02  0.38233125891E+02  0.00000000000E+00 0.  1.
         11    1    1    2    0    0  0.97290599484E+01  0.40011985496E+02 -0.11119491248E+03  0.11857454260E+03  0.00000000000E+00 0. -1.
</event>
<event>
 7    1  0.2688177E-009  0.1416803E+03  0.7561462E-02  0.1211086E+00
          1   -1    0    0  501    0  0.00000000000E+00  0.00000000000E+00  0.15885184261E+04  0.15885184261E+04  0.00000000000E+00 0. -1.
         -1   -1    0    0    0  501 -0.00000000000E+00 -0.00000000000E+00 -0.18079338084E+02  0.18079338084E+02  0.00000000000E+00 0.  1.
         25    2    1    2    0    0  0.12270722845E+03 -0.35936986855E+02  0.91903605873E+03  0.93628165912E+03  0.12509011564E+03 0.  0.
          5    1    3    3  502    0  0.86386550630E+02 -0.14777124590E+02  0.23342666811E+03  0.24937217433E+03  0.41800000000E+01 0.  1.
         -5    1    3    3    0  502  0.36320677819E+02 -0.21159862265E+02  0.68560939061E+03  0.68690948480E+03  0.41800000000E+01 0.  1.
        -11    1    1    2    0    0 -0.11651684565E+03  0.58218564856E+02  0.59962066561E+03  0.61360453000E+03  0.00000000000E+00 0. -1.
         11    1    1    2    0    0 -0.61903828017E+01 -0.22281578001E+02  0.51782363674E+02  0.56711575054E+02  0.00000000000E+00 0.  1.
</event>
<event>
 7    1  0.2688177E-009  0.2053401E+03  0.7561462E-02  0.1145310E+00
          2   -1    0    0  501    0  0.00000000000E+00  0.00000000000E+00  0.10908596689E+04  0.10908596689E+04  0.00000000000E+00 0. -1.
         -2   -1    0    0    0  501 -0.00000000000E+00 -0.00000000000E+00 -0.59984832415E+02  0.59984832415E+02  0.00000000000E+00 0.  1.
         25    2    1    2    0    0  0.54196173209E+01  0.19771248792E+03  0.26539929426E+03  0.35384194572E+03  0.12509091506E+03 0.  0.
          5    1    3    3  502    0 -0.26393356859E+01 -0.62459269982E+01  0.72595011215E+02  0.73030717854E+02  0.41800000000E+01 0. -1.
         -5    1    3    3    0  502  0.80589530068E+01  0.20395841492E+03  0.19280428304E+03  0.28081122787E+03  0.41800000000E+01 0. -1.
        -11    1    1    2    0    0  0.63955615237E+01 -0.62440930455E+02  0.10192938766E+03  0.11970535941E+03  0.00000000000E+00 0.  1.
         11    1    1    2    0    0 -0.11815178845E+02 -0.13527155746E+03  0.66354615457E+03  0.67729719618E+03  0.00000000000E+00 0. -1.
</event>
<event>
 7    1  0.2688177E-009  0.1047144E+03  0.7561462E-02  0.1270683E+00
         -2   -1    0    0    0  501 -0.00000000000E+00  0.00000000000E+00  0.12803342223E+02  0.12803342223E+02  0.00000000000E+00 0.  1.
          2   -1    0    0  501    0  0.00000000000E+00 -0.00000000000E+00 -0.10116398060E+04  0.10116398060E+04  0.00000000000E+00 0. -1.
         25    2    1    2    0    0 -0.95709129739E+01  0.19997232436E+02 -0.71470037611E+03  0.72590327738E+03  0.12508976304E+03 0.  0.
          5    1    3    3  502    0 -0.22628484251E+02  0.70201200539E+02 -0.37084651823E+03  0.37813340151E+03  0.41800000000E+01 0.  1.
         -5    1    3    3    0  502  0.13057571277E+02 -0.50203968103E+02 -0.34385385788E+03  0.34776987586E+03  0.41800000000E+01 0.  1.
        -11    1    1    2    0    0  0.45319050440E+02 -0.10431563293E+02 -0.21653829390E+03  0.22147565683E+03  0.00000000000E+00 0.  1.
         11    1    1    2    0    0 -0.35748137466E+02 -0.95656691435E+01 -0.67597793759E+02  0.77064214001E+02  0.00000000000E+00 0. -1.
</event>
<event>
 7    1  0.2688177E-009  0.1176191E+03  0.7561462E-02  0.1247077E+00
         -1   -1    0    0    0  501 -0.00000000000E+00  0.00000000000E+00  0.42657952059E+02  0.42657952059E+02  0.00000000000E+00 0.  1.
          1   -1    0    0  501    0  0.00000000000E+00 -0.00000000000E+00 -0.41918403652E+03  0.41918403652E+03  0.00000000000E+00 0. -1.
         25    2    1    2    0    0 -0.28075570501E+01  0.75585854441E+02 -0.21556389391E+03  0.26045410496E+03  0.12508974645E+03 0.  0.
          5    1    3    3  502    0  0.40568337504E+01 -0.31266053300E+02 -0.89612149313E+02  0.95088557111E+02  0.41800000000E+01 0. -1.
         -5    1    3    3    0  502 -0.68643908005E+01  0.10685190774E+03 -0.12595174460E+03  0.16536554785E+03  0.41800000000E+01 0. -1.
        -11    1    1    2    0    0  0.75441506769E+01  0.88970111447E+01  0.67944067975E+01  0.13499443710E+02  0.00000000000E+00 0.  1.
         11    1    1    2    0    0 -0.47365936268E+01 -0.84482865586E+02 -0.16775659735E+03  0.18788843991E+03  0.00000000000E+00 0. -1.
</event>
<event>
 7    1  0.2688177E-009  0.1619939E+03  0.7561462E-02  0.1186464E+00
          2   -1    0    0  501    0  0.00000000000E+00  0.00000000000E+00  0.13585758006E+03  0.13585758006E+03  0.00000000000E+00 0. -1.
         -2   -1    0    0    0  501 -0.00000000000E+00 -0.00000000000E+00 -0.22470185027E+03  0.22470185027E+03  0.00000000000E+00 0.  1.
         25    2    1    2    0    0  0.11574366533E+03  0.57351594949E+02 -0.74300398376E+01  0.17996898754E+03  0.12509128458E+03 0.  0.
          5    1    3    3  502    0  0.63750446878E+02  0.90404935889E+02 -0.29208610783E+02  0.11448924515E+03  0.41800000000E+01 0.  1.
         -5    1    3    3    0  502  0.51993218450E+02 -0.33053340940E+02  0.21778570945E+02  0.65479742398E+02  0.41800000000E+01 0.  1.
        -11    1    1    2    0    0 -0.11698239746E+03 -0.25588957232E+02 -0.87391889561E+02  0.14824647857E+03  0.00000000000E+00 0.  1.
         11    1    1    2    0    0  0.12387321278E+01 -0.31762637717E+02  0.59776591843E+01  0.32343964218E+02  0.00000000000E+00 0. -1.
</event>
<event>
 7    1  0.3690240E-009  0.1150073E+03  0.7561462E-02  0.1251568E+00
         -2   -1    0    0    0  501 -0.00000000000E+00  0.00000000000E+00  0.82191796666E+02  0.82191796666E+02  0.00000000000E+00 0.  1.
          2   -1    0    0  501    0  0.00000000000E+00 -0.00000000000E+00 -0.27784405742E+03  0.27784405742E+03  0.00000000000E+00 0. -1.
         25    2    1    2    0    0  0.72319099609E+02 -0.43470153176E+02 -0.17965464976E+03  0.23461797545E+03  0.12510033908E+03 0.  0.
          5    1    3    3  502    0  0.42578180293E+02 -0.71575781843E+02 -0.46974753398E+02  0.95708379154E+02  0.41800000000E+01 0.  1.
         -5    1    3    3    0  502  0.29740919316E+02  0.28105628667E+02 -0.13267989636E+03  0.13890959629E+03  0.41800000000E+01 0.  1.
        -11    1    1    2    0    0 -0.68888349283E+02  0.74263917331E+01 -0.41834859634E+02  0.80937700991E+02  0.00000000000E+00 0. -1.
         11    1    1    2    0    0 -0.34307503259E+01  0.36043761443E+02  0.25837248634E+02  0.44480177650E+02  0.00000000000E+00 0.  1.
</event>
<event>
 7    1  0.2688177E-009  0.3332689E+03  0.7561462E-02  0.1069700E+00
         -3   -1    0    0    0  501 -0.00000000000E+00  0.00000000000E+00  0.78579397258E+02  0.78579397258E+02  0.00000000000E+00 0.  1.
          3   -1    0    0  501    0  0.00000000000E+00 -0.00000000000E+00 -0.14744043691E+04  0.14744043691E+04  0.00000000000E+00 0. -1.
         25    2    1    2    0    0  0.24953135523E+03  0.19778762046E+03 -0.82134118769E+03  0.88973832996E+03  0.12508840535E+03 0.  0.
          5    1    3    3  502    0  0.19912250168E+03  0.82050348010E+02 -0.53794659056E+03  0.57947047982E+03  0.41800000000E+01 0. -1.
         -5    1    3    3    0  502  0.50408853555E+02  0.11573727245E+03 -0.28339459712E+03  0.31026785014E+03  0.41800000000E+01 0. -1.
        -11    1    1    2    0    0 -0.17653868887E+03 -0.17445244246E+03 -0.48941611621E+03  0.54875103476E+03  0.00000000000E+00 0. -1.
         11    1    1    2    0    0 -0.72992666359E+02 -0.23335177999E+02 -0.85067667916E+02  0.11449440161E+03  0.00000000000E+00 0.  1.
</event>
<event>
 7    1  0.2688177E-009  0.1652315E+03  0.7561462E-02  0.1182914E+00
         -1   -1    0    0    0  501 -0.00000000000E+00  0.00000000000E+00  0.65226150498E+03  0.65226150498E+03  0.00000000000E+00 0.  1.
          1   -1    0    0  501    0  0.00000000000E+00 -0.00000000000E+00 -0.53299677831E+02  0.53299677831E+02  0.00000000000E+00 0. -1.
         25    2    1    2    0    0  0.13470559937E+03 -0.54678338378E+02  0.38801738305E+03  0.43282520840E+03  0.12507938396E+03 0.  0.
          5    1    3    3  502    0 -0.16856359440E+02 -0.24918319766E+02  0.29106603070E+02  0.42068114479E+02  0.41800000000E+01 0. -1.
         -5    1    3    3    0  502  0.15156195881E+03 -0.29760018612E+02  0.35891077998E+03  0.39075709392E+03  0.41800000000E+01 0. -1.
        -11    1    1    2    0    0 -0.96330017667E+02  0.42754570870E+02  0.20709097272E+03  0.23236629836E+03  0.00000000000E+00 0.  1.
         11    1    1    2    0    0 -0.38375581700E+02  0.11923767508E+02  0.38534713812E+01  0.40369676046E+02  0.00000000000E+00 0. -1.
</event>
<event>
 7    1  0.2688177E-009  0.9282028E+02  0.7561462E-02  0.1296162E+00
          2   -1    0    0  501    0  0.00000000000E+00  0.00000000000E+00  0.95761144934E+02  0.95761144934E+02  0.00000000000E+00 0.  1.
         -2   -1    0    0    0  501 -0.00000000000E+00 -0.00000000000E+00 -0.14683401262E+03  0.14683401262E+03  0.00000000000E+00 0. -1.
         25    2    1    2    0    0  0.39025891916E+02 -0.26687172205E+02 -0.40908138664E+02  0.13985152634E+03  0.12509895367E+03 0.  0.
          5    1    3    3  502    0  0.51229829592E+02 -0.40211360638E+02  0.26099731635E+02  0.70285968413E+02  0.41800000000E+01 0. -1.
         -5    1    3    3    0  502 -0.12203937676E+02  0.13524188432E+02 -0.67007870299E+02  0.69565557926E+02  0.41800000000E+01 0. -1.
        -11    1    1    2    0    0 -0.35264727017E+02 -0.29133908199E+02  0.71383351318E+00  0.45748170858E+02  0.00000000000E+00 0.  1.
         11    1    1    2    0    0 -0.37611648987E+01  0.55821080405E+02 -0.10878562540E+02  0.56995460362E+02  0.00000000000E+00 0. -1.
</event>
<event>
 7    1  0.2688177E-009  0.1055128E+03  0.7561462E-02  0.1269113E+00
         -2   -1    0    0    0  501 -0.00000000000E+00  0.00000000000E+00  0.51579095391E+02  0.51579095391E+02  0.00000000000E+00 0.  1.
          2   -1    0    0  501    0  0.00000000000E+00 -0.00000000000E+00 -0.41567241979E+03  0.41567241979E+03  0.00000000000E+00 0. -1.
         25    2    1    2    0    0 -0.74974375253E+02  0.30680391537E+02 -0.11188084080E+03  0.18635203636E+03  0.12508923034E+03 0.  0.
          5    1    3    3  502    0 -0.75322391718E+02  0.21409469089E+02 -0.45600779911E+01  0.78549950809E+02  0.41800000000E+01 0. -1.
         -5    1    3    3    0  502  0.34801646560E+00  0.92709224477E+01 -0.10732076281E+03  0.10780208555E+03  0.41800000000E+01 0. -1.
        -11    1    1    2    0    0 -0.11414415428E+02 -0.34116541635E+02 -0.93209275129E+02  0.99910941657E+02  0.00000000000E+00 0. -1.
         11    1    1    2    0    0  0.86388790680E+02  0.34361500980E+01 -0.15900320847E+03  0.18098853717E+03  0.00000000000E+00 0.  1.
</event>
<event>
 7    1  0.2688177E-009  0.1133930E+03  0.7561462E-02  0.1254412E+00
         -2   -1    0    0    0  501 -0.00000000000E+00  0.00000000000E+00  0.28310005985E+02  0.28310005985E+02  0.00000000000E+00 0.  1.
          2   -1    0    0  501    0  0.00000000000E+00 -0.00000000000E+00 -0.10442155329E+04  0.10442155329E+04  0.00000000000E+00 0. -1.
         25    2    1    2    0    0 -0.37672104568E+02  0.82528821672E+02 -0.84095878972E+03  0.85503728685E+03  0.12508749743E+03 0.  0.
          5    1    3    3  502    0 -0.40103265299E+02  0.46906192020E+02 -0.13879575729E+03  0.15195458986E+03  0.41800000000E+01 0.  1.
         -5    1    3    3    0  502  0.24311607310E+01  0.35622629652E+02 -0.70216303243E+03  0.70308269699E+03  0.41800000000E+01 0.  1.
        -11    1    1    2    0    0 -0.24416186716E+02  0.15480487876E+01 -0.38416380950E+02  0.45545196828E+02  0.00000000000E+00 0. -1.
         11    1    1    2    0    0  0.62088291283E+02 -0.84076870459E+02 -0.13653035625E+03  0.17194305522E+03  0.00000000000E+00 0.  1.
</event>
<event>
 7    1  0.2688177E-009  0.1055570E+03  0.7561462E-02  0.1269026E+00
         -2   -1    0    0    0  501 -0.00000000000E+00  0.00000000000E+00  0.33123172327E+02  0.33123172327E+02  0.00000000000E+00 0.  1.
          2   -1    0    0  501    0  0.00000000000E+00 -0.00000000000E+00 -0.39006592989E+03  0.39006592989E+03  0.00000000000E+00 0. -1.
         25    2    1    2    0    0  0.79070860402E+01  0.16720262395E+02 -0.26278616816E+03  0.29162483820E+03  0.12508551834E+03 0.  0.
          5    1    3    3  502    0 -0.29800500871E+02 -0.41565432080E+02 -0.70876326728E+02  0.87502463318E+02  0.41800000000E+01 0. -1.
         -5    1    3    3    0  502  0.37707586911E+02  0.58285694475E+02 -0.19190984143E+03  0.20412237488E+03  0.41800000000E+01 0. -1.
        -11    1    1    2    0    0 -0.47805477227E+02 -0.15785555403E+02 -0.64606902284E+02  0.81906039063E+02  0.00000000000E+00 0.  1.
         11    1    1    2    0    0  0.39898391187E+02 -0.93470699190E+00 -0.29549687122E+02  0.49658224953E+02  0.00000000000E+00 0. -1.
</event>
<event>
 7    1  0.2762190E-009  0.1302902E+03  0.7561462E-02  0.1227026E+00
         -1   -1    0    0    0  501 -0.00000000000E+00  0.00000000000E+00  0.39655935182E+03  0.39655935182E+03  0.00000000000E+00 0.  1.
          1   -1    0    0  501    0  0.00000000000E+00 -0.00000000000E+00 -0.55751249594E+02  0.55751249594E+02  0.00000000000E+00 0. -1.
         25    2    1    2    0    0 -0.43235980969E+02 -0.77290471761E+02  0.25853150994E+03  0.30054838791E+03  0.12509046634E+03 0.  0.
          5    1    3    3  502    0 -0.11983675777E+02 -0.10829603447E+03  0.18249020665E+03  0.21258360118E+03  0.41800000000E+01 0. -1.
         -5    1    3    3    0  502 -0.31252305192E+02  0.31005562710E+02  0.76041303285E+02  0.87964786728E+02  0.41800000000E+01 0. -1.
        -11    1    1    2    0    0  0.38426758034E+02  0.97953757654E+01 -0.64509420982E+01  0.40176856190E+02  0.00000000000E+00 0. -1.
         11    1    1    2    0    0  0.48092229349E+01  0.67495095996E+02  0.88727534383E+02  0.11158535731E+03  0.00000000000E+00 0.  1.
</event>
<event>
 7    1  0.2688177E-009  0.1164598E+03  0.7561462E-02  0.1249054E+00
         -1   -1    0    0    0  501 -0.00000000000E+00  0.00000000000E+00  0.65736298489E+03  0.65736298489E+03  0.00000000000E+00 0.  1.
          1   -1    0    0  501    0  0.00000000000E+00 -0.00000000000E+00 -0.36398383799E+02  0.36398383799E+02  0.00000000000E+00 0. -1.
         25    2    1    2    0    0 -0.40632998745E+02  0.18654875686E+02  0.10858636152E+03  0.17158645651E+03  0.12510743054E+03 0.  0.
          5    1    3    3  502    0 -0.17396712913E+02 -0.53705736299E+02  0.50145085675E+02  0.75623764446E+02  0.41800000000E+01 0.  1.
         -5    1    3    3    0  502 -0.23236285832E+02  0.72360611985E+02  0.58441275848E+02  0.95962692068E+02  0.41800000000E+01 0.  1.
        -11    1    1    2    0    0 -0.27902343562E+02 -0.14724595525E+02  0.18581429361E+03  0.18847362203E+03  0.00000000000E+00 0.  1.
         11    1    1    2    0    0  0.68535342307E+02 -0.39302801613E+01  0.32656394596E+03  0.33370129015E+03  0.00000000000E+00 0. -1.
</event>
<event>
 7    1  0.2688177E-009  0.9835873E+02  0.7561462E-02  0.1283786E+00
         -4   -1    0    0    0  501 -0.00000000000E+00  0.00000000000E+00  0.82250449506E+02  0.82250449506E+02  0.00000000000E+00 0.  1.
          4   -1    0    0  501    0  0.00000000000E+00 -0.00000000000E+00 -0.24082425582E+03  0.24082425582E+03  0.00000000000E+00 0. -1.
         25    2    1    2    0    0 -0.62670232310E+01 -0.41020344216E+02  0.31209665291E+01  0.13182893970E+03  0.12508870729E+03 0.  0.
          5    1    3    3  502    0  0.46479348199E+02  0.17994891065E+02  0.13714162957E+02  0.51862284745E+02  0.41800000000E+01 0.  1.
         -5    1    3    3    0  502 -0.52746371430E+02 -0.59015235281E+02 -0.10593196427E+02  0.79966654956E+02  0.41800000000E+01 0.  1.
        -11    1    1    2    0    0 -0.23261246337E+02  0.23690754965E+02 -0.15211033420E+03  0.15569165431E+03  0.00000000000E+00 0. -1.
         11    1    1    2    0    0  0.29528269568E+02  0.17329589251E+02 -0.95844386453E+01  0.35554111315E+02  0.00000000000E+00 0.  1.
</event>
<event>
 7    1  0.2688177E-009  0.1194820E+03  0.7561462E-02  0.1243954E+00
          2   -1    0    0  501    0  0.00000000000E+00  0.00000000000E+00  0.36336083564E+03  0.36336083564E+03  0.00000000000E+00 0.  1.
         -2   -1    0    0    0  501 -0.00000000000E+00 -0.00000000000E+00 -0.49028060891E+02  0.49028060891E+02  0.00000000000E+00 0. -1.
         25    2    1    2    0    0 -0.39341919705E+02 -0.47989169640E+02  0.10104804478E+03  0.17236013997E+03  0.12508622405E+03 0.  0.
          5    1    3    3  502    0 -0.37355905986E+02  0.34112357378E+02  0.14092682524E+02  0.52680098126E+02  0.41800000000E+01 0.  1.
         -5    1    3    3    0  502 -0.19860137194E+01 -0.82101527018E+02  0.86955362261E+02  0.11968004184E+03  0.41800000000E+01 0.  1.
        -11    1    1    2    0    0 -0.17070645780E+02  0.46505953580E+02  0.67703097088E+02  0.83892312050E+02  0.00000000000E+00 0. -1.
         11    1    1    2    0    0  0.56412565485E+02  0.14832160596E+01  0.14558163288E+03  0.15613644452E+03  0.00000000000E+00 0.  1.
</event>
<event>
 7    1  0.2688177E-009  0.1659086E+03  0.7561462E-02  0.1182183E+00
         -3   -1    0    0    0  501 -0.00000000000E+00  0.00000000000E+00  0.32592237943E+03  0.32592237943E+03  0.00000000000E+00 0. -1.
          3   -1    0    0  501    0  0.00000000000E+00 -0.00000000000E+00 -0.21150799778E+03  0.21150799778E+03  0.00000000000E+00 0.  1.
         25    2    1    2    0    0  0.57708942692E+02 -0.13151666563E+03  0.25299602115E+03  0.31667302855E+03  0.12509142611E+03 0.  0.
          5    1    3    3  502    0  0.71177635867E+02 -0.13656569012E+03  0.15863731935E+03  0.22113279959E+03  0.41800000000E+01 0.  1.
         -5    1    3    3    0  502 -0.13468693175E+02  0.50490244826E+01  0.94358701796E+02  0.95540228954E+02  0.41800000000E+01 0.  1.
        -11    1    1    2    0    0 -0.66849750735E+01  0.10512003119E+03 -0.12154745719E+03  0.16083747759E+03  0.00000000000E+00 0.  1.
         11    1    1    2    0    0 -0.51023967619E+02  0.26396634444E+02 -0.17034182303E+02  0.59919871063E+02  0.00000000000E+00 0. -1.
</event>
<event>
 7    1  0.2688177E-009  0.1158089E+03  0.7561462E-02  0.1250176E+00
          1   -1    0    0  501    0  0.00000000000E+00  0.00000000000E+00  0.89086343100E+03  0.89086343100E+03  0.00000000000E+00 0. -1.
         -1   -1    0    0    0  501 -0.00000000000E+00 -0.00000000000E+00 -0.23371292599E+02  0.23371292599E+02  0.00000000000E+00 0.  1.
         25    2    1    2    0    0 -0.13266467022E+01  0.81105508937E+02  0.63115401944E+03  0.64852393742E+03  0.12509211638E+03 0.  0.
          5    1    3    3  502    0  0.30090560470E+02  0.76855314003E+02  0.59304671703E+03  0.59877713893E+03  0.41800000000E+01 0. -1.
         -5    1    3    3    0  502 -0.31417207172E+02  0.42501949339E+01  0.38107302406E+02  0.49746798491E+02  0.41800000000E+01 0. -1.
        -11    1    1    2    0    0 -0.34522119009E+02 -0.77936967254E+01  0.41932292872E+02  0.54871081592E+02  0.00000000000E+00 0.  1.
         11    1    1    2    0    0  0.35848765711E+02 -0.73311812212E+02  0.19440582609E+03  0.21083970459E+03  0.00000000000E+00 0. -1.
</event>
<event>
 7    1  0.2688177E-009  0.6396011E+02  0.7561462E-02  0.1381926E+00
         -3   -1    0    0    0  501 -0.00000000000E+00  0.00000000000E+00  0.22342326491E+03  0.22342326491E+03  0.00000000000E+00 0.  1.
          3   -1    0    0  501    0  0.00000000000E+00 -0.00000000000E+00 -0.60218580615E+02  0.60218580615E+02  0.00000000000E+00 0. -1.
         25    2    1    2    0    0  0.33132653940E+02  0.91693431214E+01  0.68784172468E+02  0.14683370887E+03  0.12508807324E+03 0.  0.
          5    1    3    3  502    0  0.12569665138E+02 -0.13001109828E+01  0.10382243210E+03  0.10467213850E+03  0.41800000000E+01 0. -1.
         -5    1    3    3    0  502  0.20562988802E+02  0.10469454104E+02 -0.35038259636E+02  0.42161570370E+02  0.41800000000E+01 0. -1.
        -11    1    1    2    0    0 -0.62196243897E+01 -0.45513091038E+02  0.74203242642E+02  0.87271108632E+02  0.00000000000E+00 0.  1.
         11    1    1    2    0    0 -0.26913029550E+02  0.36343747917E+02  0.20217269189E+02  0.49537028026E+02  0.00000000000E+00 0. -1.
</event>
<event>
 7    1  0.3468932E-009  0.9845286E+02  0.7561462E-02  0.1283583E+00
         -1   -1    0    0    0  501 -0.00000000000E+00  0.00000000000E+00  0.28103021175E+02  0.28103021175E+02  0.00000000000E+00 0.  1.
          1   -1    0    0  501    0  0.00000000000E+00 -0.00000000000E+00 -0.55718586299E+03  0.55718586299E+03  0.00000000000E+00 0. -1.
         25    2    1    2    0    0  0.49092139061E+02 -0.34090806227E+02 -0.34213565462E+03  0.36915752023E+03  0.12509295502E+03 0.  0.
          5    1    3    3  502    0  0.50687380814E+02 -0.77519747691E+02 -0.19953450340E+03  0.22002275406E+03  0.41800000000E+01 0.  1.
         -5    1    3    3    0  502 -0.15952417530E+01  0.43428941464E+02 -0.14260115122E+03  0.14913476617E+03  0.41800000000E+01 0.  1.
        -11    1    1    2    0    0 -0.25241695752E+02  0.11710999722E+02 -0.15476568114E+01  0.27869086108E+02  0.00000000000E+00 0.  1.
         11    1    1    2    0    0 -0.23850443309E+02  0.22379806505E+02 -0.18539953038E+03  0.18826227782E+03  0.00000000000E+00 0. -1.
</event>
<event>
 7    1  0.2688177E-009  0.1112733E+03  0.7561462E-02  0.1258230E+00
          3   -1    0    0  501    0  0.00000000000E+00  0.00000000000E+00  0.75064723995E+02  0.75064723995E+02  0.00000000000E+00 0. -1.
         -3   -1    0    0    0  501 -0.00000000000E+00 -0.00000000000E+00 -0.24209950716E+03  0.24209950716E+03  0.00000000000E+00 0.  1.
         25    2    1    2    0    0 -0.98556030443E+01  0.40130036351E+02 -0.11239036239E+02  0.13222062074E+03  0.12509366044E+03 0.  0.
          5    1    3    3  502    0 -0.59201475748E+02  0.43008485997E+02  0.16861037048E+02  0.75208454105E+02  0.41800000000E+01 0.  1.
         -5    1    3    3    0  502  0.49345872704E+02 -0.28784496457E+01 -0.28100073287E+02  0.57012166631E+02  0.41800000000E+01 0.  1.
        -11    1    1    2    0    0  0.28573690495E+01 -0.69446941046E+02 -0.10999473652E+03  0.13011488862E+03  0.00000000000E+00 0.  1.
         11    1    1    2    0    0  0.69982339949E+01  0.29316904694E+02 -0.45801010402E+02  0.54828721796E+02  0.00000000000E+00 0. -1.
</event>
<event>
 7    1  0.2688177E-009  0.2508102E+03  0.7561462E-02  0.1112794E+00
         -3   -1    0    0    0  501 -0.00000000000E+00  0.00000000000E+00  0.24324850658E+03  0.24324850658E+03  0.00000000000E+00 0.  1.
          3   -1    0    0  501    0  0.00000000000E+00 -0.00000000000E+00 -0.48553094231E+03  0.48553094231E+03  0.00000000000E+00 0. -1.
         25    2    1    2    0    0  0.23371099822E+03  0.17650989103E+02 -0.36258682066E+03  0.44949964140E+03  0.12509331317E+03 0.  0.
          5    1    3    3  502    0  0.11206563266E+03 -0.35996619573E+02 -0.24550677321E+03  0.27229673288E+03  0.41800000000E+01 0.  1.
         -5    1    3    3    0  502  0.12164536556E+03  0.53647608676E+02 -0.11708004745E+03  0.17720290853E+03  0.41800000000E+01 0.  1.
        -11    1    1    2    0    0 -0.49782348797E+02 -0.42205158238E+02  0.19550699041E+02  0.68130664657E+02  0.00000000000E+00 0.  1.
         11    1    1    2    0    0 -0.18392864943E+03  0.24554169135E+02  0.10075368589E+03  0.21114914284E+03  0.00000000000E+00 0. -1.
</event>
<event>
 7    1  0.2688177E-009  0.2781968E+03  0.7561462E-02  0.1096678E+00
         -1   -1    0    0    0  501 -0.00000000000E+00  0.00000000000E+00  0.47921873132E+03  0.47921873132E+03  0.00000000000E+00 0.  1.
          1   -1    0    0  501    0  0.00000000000E+00 -0.00000000000E+00 -0.17771381797E+03  0.17771381797E+03  0.00000000000E+00 0. -1.
         25    2    1    2    0    0 -0.13409775617E+03  0.23356072033E+03  0.12393749453E+03  0.32177593681E+03  0.12508570129E+03 0.  0.
          5    1    3    3  502    0 -0.12849177665E+03  0.12851530364E+03  0.37610153375E+02  0.18562951267E+03  0.41800000000E+01 0.  1.
         -5    1    3    3    0  502 -0.56059795150E+01  0.10504541669E+03  0.86327341159E+02  0.13614642414E+03  0.41800000000E+01 0.  1.
        -11    1    1    2    0    0  0.91494761721E+02 -0.15650398598E+03  0.65768211232E+02  0.19284772921E+03  0.00000000000E+00 0. -1.
         11    1    1    2    0    0  0.42602994447E+02 -0.77056734346E+02  0.11179920758E+03  0.14230888328E+03  0.00000000000E+00 0.  1.
</event>
<event>
 7    1  0.2688177E-009  0.1157513E+03  0.7561462E-02  0.1250275E+00
          1   -1    0    0  501    0  0.00000000000E+00  0.00000000000E+00  0.78831645449E+03  0.78831645449E+03  0.00000000000E+00 0. -1.
         -1   -1    0    0    0  501 -0.00000000000E+00 -0.00000000000E+00 -0.19139087854E+02  0.19139087854E+02  0.00000000000E+00 0.  1.
         25    2    1    2    0    0 -0.55832137471E+02 -0.55026512004E+01  0.46373958177E+03  0.48357961339E+03  0.12508931222E+03 0.  0.
          5    1    3    3  502    0 -0.93040035919E+02  0.38781367101E+01  0.25972570309E+03  0.27594637427E+03  0.41800000000E+01 0. -1.
         -5    1    3    3    0  502  0.37207898448E+02 -0.93807879105E+01  0.20401387869E+03  0.20763323912E+03  0.41800000000E+01 0. -1.
        -11    1    1    2    0    0 -0.21680686525E+02 -0.22110153595E+01  0.26734512578E+02  0.34491664498E+02  0.00000000000E+00 0.  1.
         11    1    1    2    0    0  0.77512823996E+02  0.77136665599E+01  0.27870327228E+03  0.28938426446E+03  0.00000000000E+00 0. -1.
</event>
<event>
 7    1  0.2688177E-009  0.1003878E+03  0.7561462E-02  0.1279483E+00
         -2   -1    0    0    0  501 -0.00000000000E+00  0.00000000000E+00  0.41733525770E+03  0.41733525770E+03  0.00000000000E+00 0. -1.
          2   -1    0    0  501    0  0.00000000000E+00 -0.00000000000E+00 -0.28844280310E+02  0.28844280310E+02  0.00000000000E+00 0.  1.
         25    2    1    2    0    0  0.12850582661E+02 -0.25905003158E+02  0.24661613955E+03  0.27803527205E+03  0.12509150872E+03 0.  0.
          5    1    3    3  502    0 -0.29046806708E+02 -0.58513287632E+02  0.18684837773E+03  0.19798310653E+03  0.41800000000E+01 0.  1.
         -5    1    3    3    0  502  0.41897389368E+02  0.32608284473E+02  0.59767761820E+02  0.80052165524E+02  0.41800000000E+01 0.  1.
        -11    1    1    2    0    0 -0.45343038054E+02  0.13995862796E+02  0.45493164079E+02  0.65738141541E+02  0.00000000000E+00 0.  1.
         11    1    1    2    0    0  0.32492455393E+02  0.11909140362E+02  0.96381673759E+02  0.10240612442E+03  0.00000000000E+00 0. -1.
</event>
<event>
 7    1  0.2688177E-009  0.9530942E+02  0.7561462E-02  0.1290481E+00
         -1   -1    0    0    0  501 -0.00000000000E+00  0.00000000000E+00  0.88756968149E+02  0.88756968149E+02  0.00000000000E+00 0.  1.
          1   -1    0    0  501    0  0.00000000000E+00 -0.00000000000E+00 -0.16572245216E+03  0.16572245216E+03  0.00000000000E+00 0. -1.
         25    2    1    2    0    0 -0.39544624676E+02 -0.95406773781E+00 -0.39101437847E+01  0.13125475192E+03  0.12509129902E+03 0.  0.
          5    1    3    3  502    0 -0.43850962702E+02  0.34292376878E+02  0.44277241647E+02  0.71251810992E+02  0.41800000000E+01 0. -1.
         -5    1    3    3    0  502  0.43063380258E+01 -0.35246444616E+02 -0.48187385432E+02  0.60002940928E+02  0.41800000000E+01 0. -1.
        -11    1    1    2    0    0  0.46830431561E+02  0.38605098466E+02 -0.40999575920E+02  0.73242120213E+02  0.00000000000E+00 0.  1.
         11    1    1    2    0    0 -0.72858068851E+01 -0.37651030728E+02 -0.32055764306E+02  0.49982548175E+02  0.00000000000E+00 0. -1.
</event>
<event>
 7    1  0.2688177E-009  0.1394895E+03  0.7561462E-02  0.1214018E+00
         -1   -1    0    0    0  501 -0.00000000000E+00  0.00000000000E+00  0.99266513473E+02  0.99266513473E+02  0.00000000000E+00 0.  1.
          1   -1    0    0  501    0  0.00000000000E+00 -0.00000000000E+00 -0.30878428932E+03  0.30878428932E+03  0.00000000000E+00 0. -1.
         25    2    1    2    0    0 -0.10870993587E+03  0.17046370605E+02 -0.20668697717E+03  0.26547511527E+03  0.12509636842E+03 0.  0.
          5    1    3    3  502    0 -0.53242462889E+02 -0.46366019653E+02 -0.47119468592E+02  0.84984024107E+02  0.41800000000E+01 0. -1.
         -5    1    3    3    0  502 -0.55467472976E+02  0.63412390259E+02 -0.15956750858E+03  0.18049109117E+03  0.41800000000E+01 0. -1.
        -11    1    1    2    0    0  0.38813296505E+02 -0.34421821881E+02  0.33654023374E+02  0.61837909865E+02  0.00000000000E+00 0.  1.
         11    1    1    2    0    0  0.69896639361E+02  0.17375451276E+02 -0.36484822057E+02  0.80737777660E+02  0.00000000000E+00 0. -1.
</event>
<event>
 7    1  0.2688177E-009  0.1377576E+03  0.7561462E-02  0.1216379E+00
          3   -1    0    0  501    0  0.00000000000E+00  0.00000000000E+00  0.13307864004E+03  0.13307864004E+03  0.00000000000E+00 0. -1.
         -3   -1    0    0    0  501 -0.00000000000E+00 -0.00000000000E+00 -0.14590472549E+03  0.14590472549E+03  0.00000000000E+00 0.  1.
         25    2    1    2    0    0  0.10530631627E+01  0.82940644768E+02 -0.27305779207E+02  0.15255735815E+03  0.12509149632E+03 0.  0.
          5    1    3    3  502    0  0.59507668427E+02  0.17428463268E+02 -0.94401041527E+01  0.62860972788E+02  0.41800000000E+01 0. -1.
         -5    1    3    3    0  502 -0.58454605264E+02  0.65512181500E+02 -0.17865675054E+02  0.89696385360E+02  0.41800000000E+01 0. -1.
        -11    1    1    2    0    0 -0.42935602961E+02 -0.14667299415E+02  0.79623943856E+01  0.46065121275E+02  0.00000000000E+00 0. -1.
         11    1    1    2    0    0  0.41882539798E+02 -0.68273345353E+02  0.65172993701E+01  0.80360886112E+02  0.00000000000E+00 0.  1.
</event>
<event>
 7    1  0.2688177E-009  0.1246752E+03  0.7561462E-02  0.1235578E+00
         -2   -1    0    0    0  501 -0.00000000000E+00  0.00000000000E+00  0.61003744619E+02  0.61003744619E+02  0.00000000000E+00 0.  1.
          2   -1    0    0  501    0  0.00000000000E+00 -0.00000000000E+00 -0.26358498788E+03  0.26358498788E+03  0.00000000000E+00 0. -1.
         25    2    1    2    0    0 -0.46947208086E+02  0.46032444828E+02 -0.11806104519E+03  0.18414339151E+03  0.12508937573E+03 0.  0.
          5    1    3    3  502    0  0.22216923941E+02  0.62803161263E+02 -0.76881190044E+02  0.10181364622E+03  0.41800000000E+01 0.  1.
         -5    1    3    3    0  502 -0.69164132027E+02 -0.16770716435E+02 -0.41179855146E+02  0.82329745285E+02  0.41800000000E+01 0.  1.
        -11    1    1    2    0    0  0.44815519755E+02 -0.72242806681E+02 -0.56841772652E+02  0.10226651967E+03  0.00000000000E+00 0. -1.
         11    1    1    2    0    0  0.21316883317E+01  0.26210361853E+02 -0.27678425417E+02  0.38178821317E+02  0.00000000000E+00 0.  1.
</event>
<event>
 7    1  0.2688177E-009  0.1927023E+03  0.7561462E-02  0.1156046E+00
          3   -1    0    0  501    0  0.00000000000E+00  0.00000000000E+00  0.44388982546E+02  0.44388982546E+02  0.00000000000E+00 0. -1.
         -3   -1    0    0    0  501 -0.00000000000E+00 -0.00000000000E+00 -0.87759483222E+03  0.87759483222E+03  0.00000000000E+00 0.  1.
         25    2    1    2    0    0 -0.89034983736E+02  0.14762684814E+03 -0.43691042769E+03  0.48606505785E+03  0.12509038340E+03 0.  0.
          5    1    3    3  502    0  0.31861452639E+02  0.24680059068E+02 -0.83585728397E+02  0.92888663848E+02  0.41800000000E+01 0.  1.
         -5    1    3    3    0  502 -0.12089643638E+03  0.12294678907E+03 -0.35332469929E+03  0.39317639400E+03  0.41800000000E+01 0.  1.
        -11    1    1    2    0    0  0.68046170499E+02 -0.11137925841E+03 -0.34970487664E+03  0.37326816268E+03  0.00000000000E+00 0.  1.
         11    1    1    2    0    0  0.20988813238E+02 -0.36247589735E+02 -0.46590545347E+02  0.62650594238E+02  0.00000000000E+00 0. -1.
</event>
<event>
 7    1  0.2688177E-009  0.1483968E+03  0.7561462E-02  0.1202457E+00
         -2   -1    0    0    0  501 -0.00000000000E+00  0.00000000000E+00  0.45520182754E+02  0.45520182754E+02  0.00000000000E+00 0.  1.
          2   -1    0    0  501    0  0.00000000000E+00 -0.00000000000E+00 -0.58605952875E+03  0.58605952875E+03  0.00000000000E+00 0. -1.
         25    2    1    2    0    0  0.81238883119E+02  0.70075460497E+02 -0.39886935965E+03  0.43157280105E+03  0.12509192717E+03 0.  0.
          5    1    3    3  502    0  0.45055531516E+02  0.10143250573E+03 -0.22121634292E+03  0.24753322386E+03  0.41800000000E+01 0.  1.
         -5    1    3    3    0  502  0.36183351603E+02 -0.31357045235E+02 -0.17765301673E+03  0.18403957719E+03  0.41800000000E+01 0.  1.
        -11    1    1    2    0    0 -0.23197745707E+02 -0.75867135090E+02 -0.10305030587E+03  0.13005123272E+03  0.00000000000E+00 0. -1.
         11    1    1    2    0    0 -0.58041137412E+02  0.57916745933E+01 -0.38619680471E+02  0.69955677727E+02  0.00000000000E+00 0.  1.
</event>
<event>
 7    1  0.2688177E-009  0.7377615E+02  0.7561462E-02  0.1347703E+00
          1   -1    0    0  501    0  0.00000000000E+00  0.00000000000E+00  0.53449824035E+03  0.53449824035E+03  0.00000000000E+00 0. -1.
         -1   -1    0    0    0  501 -0.00000000000E+00 -0.00000000000E+00 -0.27245287623E+02  0.27245287623E+02  0.00000000000E+00 0.  1.
         25    2    1    2    0    0 -0.70844109747E+01  0.27627956113E+02  0.18689206769E+03  0.22669385590E+03  0.12509183226E+03 0.  0.
          5    1    3    3  502    0  0.10494690356E+02  0.29195281976E+02 -0.68991220960E+01  0.32055784205E+02  0.41800000000E+01 0.  1.
         -5    1    3    3    0  502 -0.17579101331E+02 -0.15673258624E+01  0.19379118978E+03  0.19463807169E+03  0.41800000000E+01 0.  1.
        -11    1    1    2    0    0 -0.42793739652E+02 -0.41845667199E+01  0.14246815156E+03  0.14881528470E+03  0.00000000000E+00 0. -1.
         11    1    1    2    0    0  0.49878150627E+02 -0.23443389393E+02  0.17789273348E+03  0.18623438738E+03  0.00000000000E+00 0.  1.
</event>
<event>
 7    1  0.2688177E-009  0.8181107E+02  0.7561462E-02  0.1323989E+00
          4   -1    0    0  501    0  0.00000000000E+00  0.00000000000E+00  0.29273885568E+02  0.29273885568E+02  0.00000000000E+00 0. -1.
         -4   -1    0    0    0  501 -0.00000000000E+00 -0.00000000000E+00 -0.61927398499E+03  0.61927398499E+03  0.00000000000E+00 0.  1.
         25    2    1    2    0    0 -0.38551964878E+00 -0.35381603154E+02 -0.15438909223E+03  0.20183081830E+03  0.12509069089E+03 0.  0.
          5    1    3    3  502    0 -0.23847219001E+02 -0.29329094105E+01 -0.15940508816E+03  0.16125987208E+03  0.41800000000E+01 0.  1.
         -5    1    3    3    0  502  0.23461699352E+02 -0.32448693744E+02  0.50159959239E+01  0.40570946221E+02  0.41800000000E+01 0.  1.
        -11    1    1    2    0    0 -0.36233690839E+02 -0.12825244122E+02 -0.16525687911E+03  0.16966792075E+03  0.00000000000E+00 0.  1.
         11    1    1    2    0    0  0.36619210487E+02  0.48206847276E+02 -0.27035412808E+03  0.27704913151E+03  0.00000000000E+00 0. -1.
</event>
<event>
 7    1  0.2688177E-009  0.9478554E+02  0.7561462E-02  0.1291660E+00
          2   -1    0    0  501    0  0.00000000000E+00  0.00000000000E+00  0.21131820370E+03  0.21131820370E+03  0.00000000000E+00 0. -1.
         -2   -1    0    0    0  501 -0.00000000000E+00 -0.00000000000E+00 -0.77125004848E+02  0.77125004848E+02  0.00000000000E+00 0.  1.
         25    2    1    2    0    0 -0.16804654289E+02 -0.48831488500E+01  0.15052466733E+03  0.19649820640E+03  0.12509047963E+03 0.  0.
          5    1    3    3  502    0  0.27736079337E+02  0.44365450386E+02  0.10005846943E+03  0.11299005704E+03  0.41800000000E+01 0. -1.
         -5    1    3    3    0  502 -0.44540733626E+02 -0.49248599236E+02  0.50466197904E+02  0.83508149360E+02  0.41800000000E+01 0. -1.
        -11    1    1    2    0    0  0.27494886208E+02  0.31531724318E+02  0.19393076680E+02  0.46111927190E+02  0.00000000000E+00 0. -1.
         11    1    1    2    0    0 -0.10690231919E+02 -0.26648575468E+02 -0.35724545164E+02  0.45833074958E+02  0.00000000000E+00 0.  1.
</event>
<event>
 7    1  0.2688177E-009  0.1072832E+03  0.7561462E-02  0.1265685E+00
         -2   -1    0    0    0  501 -0.00000000000E+00  0.00000000000E+00  0.33972431850E+02  0.33972431850E+02  0.00000000000E+00 0. -1.
          2   -1    0    0  501    0  0.00000000000E+00 -0.00000000000E+00 -0.52272821242E+03  0.52272821242E+03  0.00000000000E+00 0.  1.
         25    2    1    2    0    0 -0.53346488357E+02  0.52802712417E+02 -0.22665713619E+03  0.26954565482E+03  0.12508968137E+03 0.  0.
          5    1    3    3  502    0 -0.88654961465E+02  0.25963164445E+02 -0.10461130602E+03  0.13962372953E+03  0.41800000000E+01 0.  1.
         -5    1    3    3    0  502  0.35308473108E+02  0.26839547972E+02 -0.12204583017E+03  0.12992192529E+03  0.41800000000E+01 0.  1.
        -11    1    1    2    0    0  0.29525020925E+02 -0.42121783772E+02 -0.25495012436E+03  0.26008755726E+03  0.00000000000E+00 0.  1.
         11    1    1    2    0    0  0.23821467432E+02 -0.10680928645E+02 -0.71485200253E+01  0.27067432200E+02  0.00000000000E+00 0. -1.
</event>
<event>
 7    1  0.2688177E-009  0.1579604E+03  0.7561462E-02  0.1191019E+00
         -2   -1    0    0    0  501 -0.00000000000E+00  0.00000000000E+00  0.17573027545E+03  0.17573027545E+03  0.00000000000E+00 0.  1.
          2   -1    0    0  501    0  0.00000000000E+00 -0.00000000000E+00 -0.17168321303E+03  0.17168321303E+03  0.00000000000E+00 0. -1.
         25    2    1    2    0    0  0.62040633963E+02  0.10414462586E+03 -0.57247827235E+02  0.18336117874E+03  0.12509542273E+03 0.  0.
          5    1    3    3  502    0  0.93842688526E+02  0.10190957971E+03 -0.31410310636E+02  0.14211295733E+03  0.41800000000E+01 0. -1.
         -5    1    3    3    0  502 -0.31802054563E+02  0.22350461467E+01 -0.25837516598E+02  0.41248221413E+02  0.41800000000E+01 0. -1.
        -11    1    1    2    0    0 -0.42726789394E+02 -0.11523250209E+03  0.68431867018E+02  0.14066637300E+03  0.00000000000E+00 0.  1.
         11    1    1    2    0    0 -0.19313844569E+02  0.11087876230E+02 -0.71369773666E+01  0.23385936741E+02  0.00000000000E+00 0. -1.
</event>
<event>
 7    1  0.2688177E-009  0.1183090E+03  0.7561462E-02  0.1245913E+00
         -3   -1    0    0    0  501 -0.00000000000E+00  0.00000000000E+00  0.23411946886E+02  0.23411946886E+02  0.00000000000E+00 0.  1.
          3   -1    0    0  501    0  0.00000000000E+00 -0.00000000000E+00 -0.66364360245E+03  0.66364360245E+03  0.00000000000E+00 0. -1.
         25    2    1    2    0    0 -0.24922781688E+02  0.47932515339E+02 -0.47072627029E+03  0.49004870275E+03  0.12508332602E+03 0.  0.
          5    1    3    3  502    0 -0.21459431755E+02 -0.41356722995E+02 -0.15791083890E+03  0.16469423545E+03  0.41800000000E+01 0.  1.
         -5    1    3    3    0  502 -0.34633499324E+01  0.89289238334E+02 -0.31281543139E+03  0.32535446730E+03  0.41800000000E+01 0.  1.
        -11    1    1    2    0    0  0.56047416052E+02 -0.23326143024E+02 -0.10093964088E+03  0.11778893367E+03  0.00000000000E+00 0. -1.
         11    1    1    2    0    0 -0.31124634365E+02 -0.24606372315E+02 -0.68565744393E+02  0.79217912918E+02  0.00000000000E+00 0.  1.
</event>
<event>
 7    1  0.2688177E-009  0.1037132E+03  0.7561462E-02  0.1272676E+00
          2   -1    0    0  501    0  0.00000000000E+00  0.00000000000E+00  0.51167471887E+03  0.51167471887E+03  0.00000000000E+00 0. -1.
         -2   -1    0    0    0  501 -0.00000000000E+00 -0.00000000000E+00 -0.34352427776E+02  0.34352427776E+02  0.00000000000E+00 0.  1.
         25    2    1    2    0    0 -0.41760656686E+02  0.26803591893E+02  0.38098375302E+03  0.40405333593E+03  0.12509233878E+03 0.  0.
          5    1    3    3  502    0 -0.80115428895E+02  0.15057050848E+00  0.17080501831E+03  0.18870699855E+03  0.41800000000E+01 0.  1.
         -5    1    3    3    0  502  0.38354772209E+02  0.26653021385E+02  0.21017873471E+03  0.21534633738E+03  0.41800000000E+01 0.  1.
        -11    1    1    2    0    0  0.36510144730E+02 -0.46958182688E+02  0.10397825913E+03  0.11978956533E+03  0.00000000000E+00 0. -1.
         11    1    1    2    0    0  0.52505119567E+01  0.20154590794E+02 -0.76397210561E+01  0.22184245394E+02  0.00000000000E+00 0.  1.
</event>
<event>
 7    1  0.2688177E-009  0.1112871E+03  0.7561462E-02  0.1258205E+00
          2   -1    0    0  501    0  0.00000000000E+00  0.00000000000E+00  0.25739495481E+03  0.25739495481E+03  0.00000000000E+00 0. -1.
         -2   -1    0    0    0  501 -0.00000000000E+00 -0.00000000000E+00 -0.68329463534E+02  0.68329463534E+02  0.00000000000E+00 0.  1.
         25    2    1    2    0    0  0.34843077173E+02 -0.10295634859E+02  0.18594180253E+03  0.22702977275E+03  0.12509246046E+03 0.  0.
          5    1    3    3  502    0  0.40018472769E+01 -0.65791404165E+02  0.10547145206E+03  0.12444365489E+03  0.41800000000E+01 0. -1.
         -5    1    3    3    0  502  0.30841229896E+02  0.55495769307E+02  0.80470350470E+02  0.10258611786E+03  0.41800000000E+01 0. -1.
        -11    1    1    2    0    0 -0.49418566344E+02  0.37501776517E+02  0.17769330889E+02  0.64531597390E+02  0.00000000000E+00 0. -1.
         11    1    1    2    0    0  0.14575489171E+02 -0.27206141658E+02 -0.14645642144E+02  0.34163048200E+02  0.00000000000E+00 0.  1.
</event>
<event>
 7    1  0.2688177E-009  0.2021318E+03  0.7561462E-02  0.1147953E+00
         -2   -1    0    0    0  501 -0.00000000000E+00  0.00000000000E+00  0.74040594613E+02  0.74040594613E+02  0.00000000000E+00 0. -1.
          2   -1    0    0  501    0  0.00000000000E+00 -0.00000000000E+00 -0.81249694706E+03  0.81249694706E+03  0.00000000000E+00 0.  1.
         25    2    1    2    0    0  0.98444680197E+02 -0.16109858620E+03 -0.17885048048E+03  0.28858171204E+03  0.12509116924E+03 0.  0.
          5    1    3    3  502    0  0.78967119868E+02 -0.33984380263E+02 -0.11851459044E+03  0.14647158315E+03  0.41800000000E+01 0. -1.
         -5    1    3    3    0  502  0.19477560329E+02 -0.12711420594E+03 -0.60335890042E+02  0.14211012890E+03  0.41800000000E+01 0. -1.
        -11    1    1    2    0    0 -0.33282223782E+02  0.70139777333E+02 -0.36775451661E+03  0.37585991974E+03  0.00000000000E+00 0.  1.
         11    1    1    2    0    0 -0.65162456414E+02  0.90958808868E+02 -0.19185135535E+03  0.22209590989E+03  0.00000000000E+00 0. -1.
</event>
<event>
 7    1  0.2688177E-009  0.9253797E+02  0.7561462E-02  0.1296819E+00
          1   -1    0    0  501    0  0.00000000000E+00  0.00000000000E+00  0.24809943851E+03  0.24809943851E+03  0.00000000000E+00 0. -1.
         -1   -1    0    0    0  501 -0.00000000000E+00 -0.00000000000E+00 -0.54024880613E+02  0.54024880613E+02  0.00000000000E+00 0.  1.
         25    2    1    2    0    0 -0.12561436821E+02  0.21686573375E+02  0.15664482098E+03  0.20202222893E+03  0.12508910378E+03 0.  0.
          5    1    3    3  502    0 -0.32285032554E+02 -0.45221981569E+02  0.87354538992E+02  0.10361292789E+03  0.41800000000E+01 0.  1.
         -5    1    3    3    0  502  0.19723595733E+02  0.66908554943E+02  0.69290281990E+02  0.98409301042E+02  0.41800000000E+01 0.  1.
        -11    1    1    2    0    0 -0.94379908843E+01 -0.33290543419E+02  0.58192279059E+02  0.67702860318E+02  0.00000000000E+00 0. -1.
         11    1    1    2    0    0  0.21999427705E+02  0.11603970045E+02 -0.20762542141E+02  0.32399229872E+02  0.00000000000E+00 0.  1.
</event>
<event>
 7    1  0.2688177E-009  0.8386679E+02  0.7561462E-02  0.1318423E+00
         -2   -1    0    0    0  501 -0.00000000000E+00  0.00000000000E+00  0.89961851006E+02  0.89961851006E+02  0.00000000000E+00 0.  1.
          2   -1    0    0  501    0  0.00000000000E+00 -0.00000000000E+00 -0.14207668909E+03  0.14207668909E+03  0.00000000000E+00 0. -1.
         25    2    1    2    0    0 -0.27956398641E+02  0.13414933536E+01 -0.49872565655E+02  0.13754809933E+03  0.12509535162E+03 0.  0.
          5    1    3    3  502    0  0.33578297315E+02 -0.10159311665E+02  0.22407770799E+02  0.41836518214E+02  0.41800000000E+01 0. -1.
         -5    1    3    3    0  502 -0.61534695956E+02  0.11500805018E+02 -0.72280336454E+02  0.95711581119E+02  0.41800000000E+01 0. -1.
        -11    1    1    2    0    0 -0.96180762800E+01 -0.23952305092E+02  0.30357838906E+02  0.39847442748E+02  0.00000000000E+00 0.  1.
         11    1    1    2    0    0  0.37574474921E+02  0.22610811739E+02 -0.32600111337E+02  0.54642998017E+02  0.00000000000E+00 0. -1.
</event>
<event>
 6    1  0.2688177E-009  0.1567869E+03  0.7561462E-02  0.1192373E+00
          1   -1    0    0  501    0  0.00000000000E+00  0.00000000000E+00  0.48901258642E+03  0.48901258642E+03  0.00000000000E+00 0. -1.
         -1   -1    0    0    0  501 -0.00000000000E+00 -0.00000000000E+00 -0.51986579749E+02  0.51986579749E+02  0.00000000000E+00 0.  1.
          5    1    1    2  502    0  0.31768164807E+02  0.42465891221E+02  0.94368456772E+02  0.10833026468E+03  0.41800000000E+01 0. -1.
         -5    1    1    2    0  502 -0.10440370805E+03  0.52252873641E+02  0.12933314125E+03  0.17428433918E+03  0.41800000000E+01 0. -1.
        -11    1    1    2    0    0 -0.14674338642E+02  0.76740401652E-01  0.10369789574E+02  0.17968712794E+02  0.00000000000E+00 0.  1.
         11    1    1    2    0    0  0.87309881883E+02 -0.94795505264E+02  0.20295461908E+03  0.24041584951E+03  0.00000000000E+00 0. -1.
</event>
<event>
 7    1  0.2688177E-009  0.9856582E+02  0.7561462E-02  0.1283341E+00
          2   -1    0    0  501    0  0.00000000000E+00  0.00000000000E+00  0.66145453504E+02  0.66145453504E+02  0.00000000000E+00 0. -1.
         -2   -1    0    0    0  501 -0.00000000000E+00 -0.00000000000E+00 -0.31057787807E+03  0.31057787807E+03  0.00000000000E+00 0.  1.
         25    2    1    2    0    0  0.45431351360E+02 -0.55809555407E+02 -0.19231072481E+03  0.24043625747E+03  0.12508982719E+03 0.  0.
          5    1    3    3  502    0  0.26535440328E+02 -0.28129904568E+02  0.59244595783E+01  0.39344538957E+02  0.41800000000E+01 0. -1.
         -5    1    3    3    0  502  0.18895911031E+02 -0.27679650839E+02 -0.19823518439E+03  0.20109171851E+03  0.41800000000E+01 0. -1.
        -11    1    1    2    0    0  0.23319687120E+02 -0.13410504079E+02 -0.30290630938E+01  0.27070734203E+02  0.00000000000E+00 0. -1.
         11    1    1    2    0    0 -0.68751038480E+02  0.69220059486E+02 -0.49092636659E+02  0.10921633990E+03  0.00000000000E+00 0.  1.
</event>
<event>
 7    1  0.2688177E-009  0.1128794E+03  0.7561462E-02  0.1255329E+00
          2   -1    0    0  501    0  0.00000000000E+00  0.00000000000E+00  0.92515966581E+03  0.92515966581E+03  0.00000000000E+00 0. -1.
         -2   -1    0    0    0  501 -0.00000000000E+00 -0.00000000000E+00 -0.19435200269E+02  0.19435200269E+02  0.00000000000E+00 0.  1.
         25    2    1    2    0    0  0.65963206571E+02  0.19262917353E+02  0.64011835335E+03  0.65583611952E+03  0.12508918724E+03 0.  0.
          5    1    3    3  502    0 -0.91447517906E+00  0.42284163949E+02  0.46484306122E+03  0.46678188777E+03  0.41800000000E+01 0.  1.
         -5    1    3    3    0  502  0.66877681750E+02 -0.23021246596E+02  0.17527529213E+03  0.18905423175E+03  0.41800000000E+01 0.  1.
        -11    1    1    2    0    0 -0.64706040758E+02  0.24082673300E+02  0.14512118591E+03  0.16070782640E+03  0.00000000000E+00 0.  1.
         11    1    1    2    0    0 -0.12571658135E+01 -0.43345590653E+02  0.12048492628E+03  0.12805092016E+03  0.00000000000E+00 0. -1.
</event>
<event>
 7    1  0.2688177E-009  0.1283774E+03  0.7561462E-02  0.1229883E+00
          1   -1    0    0  501    0  0.00000000000E+00  0.00000000000E+00  0.81987734708E+02  0.81987734708E+02  0.00000000000E+00 0. -1.
         -1   -1    0    0    0  501 -0.00000000000E+00 -0.00000000000E+00 -0.33801502811E+03  0.33801502811E+03  0.00000000000E+00 0.  1.
         25    2    1    2    0    0 -0.78613702229E+02  0.65434220259E+02 -0.22888287200E+03  0.28017058208E+03  0.12508570904E+03 0.  0.
          5    1    3    3  502    0  0.78083668960E+01  0.56147184720E+02 -0.32753150899E+02  0.65602730426E+02  0.41800000000E+01 0. -1.
         -5    1    3    3    0  502 -0.86422069125E+02  0.92870355392E+01 -0.19612972110E+03  0.21456785165E+03  0.41800000000E+01 0. -1.
        -11    1    1    2    0    0 -0.56112135236E+01 -0.11730959665E+02 -0.37229326971E+02  0.39435059511E+02  0.00000000000E+00 0.  1.
         11    1    1    2    0    0  0.84224915753E+02 -0.53703260595E+02  0.10084905569E+02  0.10039712124E+03  0.00000000000E+00 0. -1.
</event>
<event>
 7    1  0.2688177E-009  0.1021110E+03  0.7561462E-02  0.1275918E+00
         -1   -1    0    0    0  501 -0.00000000000E+00  0.00000000000E+00  0.18251512460E+03  0.18251512460E+03  0.00000000000E+00 0. -1.
          1   -1    0    0  501    0  0.00000000000E+00 -0.00000000000E+00 -0.73018994547E+02  0.73018994547E+02  0.00000000000E+00 0.  1.
         25    2    1    2    0    0  0.27981487378E+02  0.15661044020E+02  0.78827020540E+02  0.15129270584E+03  0.12509017442E+03 0.  0.
          5    1    3    3  502    0 -0.34135142218E+02  0.35478135188E+02  0.65754692602E+00  0.49414681813E+02  0.41800000000E+01 0. -1.
         -5    1    3    3    0  502  0.62116629596E+02 -0.19817091168E+02  0.78169473614E+02  0.10187802403E+03  0.41800000000E+01 0. -1.
        -11    1    1    2    0    0  0.14942588280E+02  0.25789511016E+02 -0.10660923155E+02  0.31654938090E+02  0.00000000000E+00 0.  1.
         11    1    1    2    0    0 -0.42924075658E+02 -0.41450555037E+02  0.41330032666E+02  0.72586475215E+02  0.00000000000E+00 0. -1.
</event>
<event>
 7    1  0.2688177E-009  0.1191284E+03  0.7561462E-02  0.1244542E+00
         -1   -1    0    0    0  501 -0.00000000000E+00  0.00000000000E+00  0.58772907455E+02  0.58772907455E+02  0.00000000000E+00 0.  1.
          1   -1    0    0  501    0  0.00000000000E+00 -0.00000000000E+00 -0.29030552497E+03  0.29030552497E+03  0.00000000000E+00 0. -1.
         25    2    1    2    0    0  0.27801466100E+02 -0.52927079687E+02 -0.13885910700E+03  0.19622450805E+03  0.12509200087E+03 0.  0.
          5    1    3    3  502    0  0.75491082912E+02 -0.44521311989E+02 -0.71637087842E+02  0.11327133607E+03  0.41800000000E+01 0. -1.
         -5    1    3    3    0  502 -0.47689616812E+02 -0.84057676976E+01 -0.67222019154E+02  0.82953171979E+02  0.41800000000E+01 0. -1.
        -11    1    1    2    0    0 -0.50333479905E+02  0.59979613863E+02 -0.26611006987E+02  0.82699207804E+02  0.00000000000E+00 0.  1.
         11    1    1    2    0    0  0.22532013805E+02 -0.70525341763E+01 -0.66062503533E+02  0.70154716573E+02  0.00000000000E+00 0. -1.
</event>
<event>
 7    1  0.2688177E-009  0.1875846E+03  0.7561462E-02  0.1160658E+00
          1   -1    0    0  501    0  0.00000000000E+00  0.00000000000E+00  0.17279649736E+04  0.17279649736E+04  0.00000000000E+00 0. -1.
         -1   -1    0    0    0  501 -0.00000000000E+00 -0.00000000000E+00 -0.45502585108E+02  0.45502585108E+02  0.00000000000E+00 0.  1.
         25    2    1    2    0    0 -0.27938972576E+02  0.16429445150E+03  0.14789220488E+04  0.14935302581E+04  0.12509577355E+03 0.  0.
          5    1    3    3  502    0  0.49312644859E+02  0.51239582308E+02  0.53330282721E+03  0.53803959858E+03  0.41800000000E+01 0. -1.
         -5    1    3    3    0  502 -0.77251617436E+02  0.11305486919E+03  0.94561922156E+03  0.95549065952E+03  0.41800000000E+01 0. -1.
        -11    1    1    2    0    0  0.75288032001E+01 -0.73285162775E+02  0.16174211391E+03  0.17772987755E+03  0.00000000000E+00 0. -1.
         11    1    1    2    0    0  0.20410169376E+02 -0.91009288722E+02  0.41798225820E+02  0.10220742306E+03  0.00000000000E+00 0.  1.
</event>
<event>
 7    1  0.2688177E-009  0.1058623E+03  0.7561462E-02  0.1268430E+00
          2   -1    0    0  501    0  0.00000000000E+00  0.00000000000E+00  0.89850834917E+02  0.89850834917E+02  0.00000000000E+00 0. -1.
         -2   -1    0    0    0  501 -0.00000000000E+00 -0.00000000000E+00 -0.13627032375E+03  0.13627032375E+03  0.00000000000E+00 0.  1.
         25    2    1    2    0    0 -0.34812046818E+01 -0.11048474508E+02 -0.63445314560E+01  0.12577722368E+03  0.12508185057E+03 0.  0.
          5    1    3    3  502    0  0.45889620949E+00  0.54879504264E+02 -0.19332796578E+02  0.58336952248E+02  0.41800000000E+01 0. -1.
         -5    1    3    3    0  502 -0.39401008912E+01 -0.65927978773E+02  0.12988265122E+02  0.67440271433E+02  0.41800000000E+01 0. -1.
        -11    1    1    2    0    0  0.51490106051E+01 -0.39548403507E+02 -0.88111008754E+01  0.40843898306E+02  0.00000000000E+00 0.  1.
         11    1    1    2    0    0 -0.16678059233E+01  0.50596878016E+02 -0.31263856499E+02  0.59500036678E+02  0.00000000000E+00 0. -1.
</event>
<event>
 7    1  0.2688177E-009  0.9412026E+02  0.7561462E-02  0.1293170E+00
          1   -1    0    0  501    0  0.00000000000E+00  0.00000000000E+00  0.99399654154E+03  0.99399654154E+03  0.00000000000E+00 0. -1.
         -1   -1    0    0    0  501 -0.00000000000E+00 -0.00000000000E+00 -0.27067673563E+02  0.27067673563E+02  0.00000000000E+00 0.  1.
         25    2    1    2    0    0  0.16607191514E+02  0.24843169203E+02  0.88794547179E+03  0.89721013350E+03  0.12508349576E+03 0.  0.
          5    1    3    3  502    0 -0.50646452082E+02  0.16859251052E+02  0.25018834694E+03  0.25585343226E+03  0.41800000000E+01 0. -1.
         -5    1    3    3    0  502  0.67253643596E+02  0.79839181511E+01  0.63775712485E+03  0.64135670124E+03  0.41800000000E+01 0. -1.
        -11    1    1    2    0    0 -0.38606698820E+02 -0.22587040600E+02  0.31248039339E+01  0.44837662701E+02  0.00000000000E+00 0.  1.
         11    1    1    2    0    0  0.21999507306E+02 -0.22561286029E+01  0.75858592252E+02  0.79016418904E+02  0.00000000000E+00 0. -1.
</event>
<event>
 7    1  0.2688177E-009  0.1103167E+03  0.7561462E-02  0.1259984E+00
          1   -1    0    0  501    0  0.00000000000E+00  0.00000000000E+00  0.41376318813E+03  0.41376318813E+03  0.00000000000E+00 0. -1.
         -1   -1    0    0    0  501 -0.00000000000E+00 -0.00000000000E+00 -0.65688203552E+02  0.65688203552E+02  0.00000000000E+00 0.  1.
         25    2    1    2    0    0 -0.10096499305E+02 -0.82975775665E+02  0.31674405525E+03  0.35065749208E+03  0.12508781546E+03 0.  0.
          5    1    3    3  502    0  0.22393956226E+02 -0.41670462995E+02  0.28540137179E+03  0.28932565075E+03  0.41800000000E+01 0.  1.
         -5    1    3    3    0  502 -0.32490455532E+02 -0.41305312670E+02  0.31342683458E+02  0.61331841337E+02  0.41800000000E+01 0.  1.
        -11    1    1    2    0    0  0.40821310183E+02  0.79673563819E+02  0.76247829347E+01  0.89846499384E+02  0.00000000000E+00 0.  1.
         11    1    1    2    0    0 -0.30724810877E+02  0.33022118461E+01  0.23706146397E+02  0.38947400215E+02  0.00000000000E+00 0. -1.
</event>
<event>
 7    1  0.2688177E-009  0.1463930E+03  0.7561462E-02  0.1204977E+00
          1   -1    0    0  501    0  0.00000000000E+00  0.00000000000E+00  0.48957502757E+03  0.48957502757E+03  0.00000000000E+00 0.  1.
         -1   -1    0    0    0  501 -0.00000000000E+00 -0.00000000000E+00 -0.58068672530E+02  0.58068672530E+02  0.00000000000E+00 0. -1.
         25    2    1    2    0    0  0.11349655517E+03  0.36351619871E+02  0.29132168050E+03  0.33870042118E+03  0.12508695166E+03 0.  0.
          5    1    3    3  502    0  0.76055366490E+02  0.82758608128E+02  0.20246866423E+03  0.23161269047E+03  0.41800000000E+01 0.  1.
         -5    1    3    3    0  502  0.37441188679E+02 -0.46406988257E+02  0.88853016266E+02  0.10708773071E+03  0.41800000000E+01 0.  1.
        -11    1    1    2    0    0 -0.71463139744E+02 -0.13619301716E+02  0.14366041089E+03  0.16103036788E+03  0.00000000000E+00 0.  1.
         11    1    1    2    0    0 -0.42033415426E+02 -0.22732318155E+02 -0.34757363528E+01  0.47912911039E+02  0.00000000000E+00 0. -1.
</event>
<event>
 7    1  0.2688177E-009  0.8414172E+02  0.7561462E-02  0.1317692E+00
         -3   -1    0    0    0  501 -0.00000000000E+00  0.00000000000E+00  0.16377546220E+03  0.16377546220E+03  0.00000000000E+00 0.  1.
          3   -1    0    0  501    0  0.00000000000E+00 -0.00000000000E+00 -0.80072394072E+02  0.80072394072E+02  0.00000000000E+00 0. -1.
         25    2    1    2    0    0  0.12441210817E+02  0.90255213585E+01  0.13110754333E+02  0.12670166847E+03  0.12508068257E+03 0.  0.
          5    1    3    3  502    0 -0.38401877828E+02 -0.32849717419E+02 -0.17906202165E+02  0.53776506313E+02  0.41800000000E+01 0.  1.
         -5    1    3    3    0  502  0.50843088645E+02  0.41875238778E+02  0.31016956498E+02  0.72925162160E+02  0.41800000000E+01 0.  1.
        -11    1    1    2    0    0 -0.39243662997E+01  0.20486534728E+02  0.81823847711E+02  0.84440753255E+02  0.00000000000E+00 0.  1.
         11    1    1    2    0    0 -0.85168445176E+01 -0.29512056086E+02 -0.11231533913E+02  0.32705434549E+02  0.00000000000E+00 0. -1.
</event>
<event>
 7    1  0.2688177E-009  0.9408895E+02  0.7561462E-02  0.1293241E+00
          3   -1    0    0  501    0  0.00000000000E+00  0.00000000000E+00  0.16460919150E+03  0.16460919150E+03  0.00000000000E+00 0. -1.
         -3   -1    0    0    0  501 -0.00000000000E+00 -0.00000000000E+00 -0.82118101289E+02  0.82118101289E+02  0.00000000000E+00 0.  1.
         25    2    1    2    0    0 -0.27701119953E+02  0.52505444737E+01  0.56376418407E+02  0.14007492925E+03  0.12509102681E+03 0.  0.
          5    1    3    3  502    0 -0.10374447325E+02 -0.39625057339E+02  0.77197731615E+02  0.87491350960E+02  0.41800000000E+01 0.  1.
         -5    1    3    3    0  502 -0.17326672628E+02  0.44875601812E+02 -0.20821313208E+02  0.52583578293E+02  0.41800000000E+01 0.  1.
        -11    1    1    2    0    0 -0.34147323471E+02 -0.12680485991E+02  0.25306969377E+02  0.44353997839E+02  0.00000000000E+00 0. -1.
         11    1    1    2    0    0  0.61848443424E+02  0.74299415176E+01  0.80770242410E+00  0.62298365694E+02  0.00000000000E+00 0.  1.
</event>
<event>
 7    1  0.2688177E-009  0.1212140E+03  0.7561462E-02  0.1241108E+00
          2   -1    0    0  501    0  0.00000000000E+00  0.00000000000E+00  0.24026097815E+03  0.24026097815E+03  0.00000000000E+00 0. -1.
         -2   -1    0    0    0  501 -0.00000000000E+00 -0.00000000000E+00 -0.74480976189E+02  0.74480976189E+02  0.00000000000E+00 0.  1.
         25    2    1    2    0    0 -0.59229310857E+02  0.45843080964E+02  0.11813881422E+03  0.18765360140E+03  0.12508954935E+03 0.  0.
          5    1    3    3  502    0 -0.45996422029E+02 -0.25054782622E+02  0.41604418243E+01  0.52708582298E+02  0.41800000000E+01 0. -1.
         -5    1    3    3    0  502 -0.13232888828E+02  0.70897863585E+02  0.11397837239E+03  0.13494501910E+03  0.41800000000E+01 0. -1.
        -11    1    1    2    0    0 -0.11174806394E+02 -0.45895621138E+02  0.22589279757E+02  0.52359907348E+02  0.00000000000E+00 0. -1.
         11    1    1    2    0    0  0.70404117251E+02  0.52540174339E-01  0.25051907986E+02  0.74728445589E+02  0.00000000000E+00 0.  1.
</event>
<event>
 7    1  0.2688177E-009  0.1694324E+03  0.7561462E-02  0.1178441E+00
         -2   -1    0    0    0  501 -0.00000000000E+00  0.00000000000E+00  0.24093713674E+02  0.24093713674E+02  0.00000000000E+00 0. -1.
          2   -1    0    0  501    0  0.00000000000E+00 -0.00000000000E+00 -0.12703802911E+04  0.12703802911E+04  0.00000000000E+00 0.  1.
         25    2    1    2    0    0  0.10200238604E+02  0.14066299699E+03 -0.55738284066E+03  0.58839952621E+03  0.12509295663E+03 0.  0.
          5    1    3    3  502    0  0.19682911832E+02  0.16137882050E+03 -0.44835758492E+03  0.47694081088E+03  0.41800000000E+01 0. -1.
         -5    1    3    3    0  502 -0.94826732280E+01 -0.20715823514E+02 -0.10902525574E+03  0.11145871534E+03  0.41800000000E+01 0. -1.
        -11    1    1    2    0    0 -0.34371191652E+02 -0.63400635206E+02 -0.27299541998E+03  0.28236061816E+03  0.00000000000E+00 0. -1.
         11    1    1    2    0    0  0.24170953048E+02 -0.77262361784E+02 -0.41590831683E+03  0.42371386044E+03  0.00000000000E+00 0.  1.
</event>
<event>
 7    1  0.2688177E-009  0.9982376E+02  0.7561462E-02  0.1280667E+00
         -1   -1    0    0    0  501 -0.00000000000E+00  0.00000000000E+00  0.62678940156E+02  0.62678940156E+02  0.00000000000E+00 0.  1.
          1   -1    0    0  501    0  0.00000000000E+00 -0.00000000000E+00 -0.21588591278E+03  0.21588591278E+03  0.00000000000E+00 0. -1.
         25    2    1    2    0    0  0.28245689875E+02  0.21661054363E+02 -0.53469594574E+02  0.14061429164E+03  0.12508541560E+03 0.  0.
          5    1    3    3  502    0  0.21704928451E+02 -0.49363713298E+02 -0.50850651135E+01  0.54325043919E+02  0.41800000000E+01 0.  1.
         -5    1    3    3    0  502  0.65407614239E+01  0.71024767660E+02 -0.48384529461E+02  0.86289247721E+02  0.41800000000E+01 0.  1.
        -11    1    1    2    0    0 -0.49531110366E+02 -0.13736731602E+02 -0.10289529707E+03  0.11501943683E+03  0.00000000000E+00 0. -1.
         11    1    1    2    0    0  0.21285420491E+02 -0.79243227602E+01  0.31579190224E+01  0.22931124466E+02  0.00000000000E+00 0.  1.
</event>
<event>
 7    1  0.2688177E-009  0.1155224E+03  0.7561462E-02  0.1250672E+00
         -2   -1    0    0    0  501 -0.00000000000E+00  0.00000000000E+00  0.23884262771E+02  0.23884262771E+02  0.00000000000E+00 0. -1.
          2   -1    0    0  501    0  0.00000000000E+00 -0.00000000000E+00 -0.80712569607E+03  0.80712569607E+03  0.00000000000E+00 0.  1.
         25    2    1    2    0    0 -0.56416554634E+02 -0.61065586443E+02 -0.48329548161E+03  0.50609479193E+03  0.12508230246E+03 0.  0.
          5    1    3    3  502    0 -0.85310503226E+02 -0.75347936551E+02 -0.41679156374E+03  0.43207392135E+03  0.41800000000E+01 0. -1.
         -5    1    3    3    0  502  0.28893948592E+02  0.14282350107E+02 -0.66503917864E+02  0.74020870578E+02  0.41800000000E+01 0. -1.
        -11    1    1    2    0    0  0.25300677380E+02  0.39048419994E+02 -0.27601229610E+03  0.27990657545E+03  0.00000000000E+00 0.  1.
         11    1    1    2    0    0  0.31115877254E+02  0.22017166450E+02 -0.23933655592E+02  0.45008591466E+02  0.00000000000E+00 0. -1.
</event>
<event>
 7    1  0.2688177E-009  0.1366068E+03  0.7561462E-02  0.1217969E+00
          2   -1    0    0  501    0  0.00000000000E+00  0.00000000000E+00  0.48949008835E+03  0.48949008835E+03  0.00000000000E+00 0. -1.
         -2   -1    0    0    0  501 -0.00000000000E+00 -0.00000000000E+00 -0.38963861318E+02  0.38963861318E+02  0.00000000000E+00 0.  1.
         25    2    1    2    0    0 -0.40474612342E+00  0.82360274664E+02  0.23105791965E+03  0.27535178757E+03  0.12508983182E+03 0.  0.
          5    1    3    3  502    0 -0.48110233026E+02 -0.65036275887E+01  0.79892351971E+02  0.93579655893E+02  0.41800000000E+01 0. -1.
         -5    1    3    3    0  502  0.47705486903E+02  0.88863902253E+02  0.15116556767E+03  0.18177213168E+03  0.41800000000E+01 0. -1.
        -11    1    1    2    0    0 -0.61499448196E+01  0.20023649193E+02  0.20865605661E+02  0.29565889939E+02  0.00000000000E+00 0. -1.
         11    1    1    2    0    0  0.65546909431E+01 -0.10238392386E+03  0.19860270173E+03  0.22353627216E+03  0.00000000000E+00 0.  1.
</event>
<event>
 7    1  0.2688177E-009  0.8194329E+02  0.7561462E-02  0.1323625E+00
         -3   -1    0    0    0  501 -0.00000000000E+00  0.00000000000E+00  0.42373365473E+02  0.42373365473E+02  0.00000000000E+00 0.  1.
          3   -1    0    0  501    0  0.00000000000E+00 -0.00000000000E+00 -0.28207115678E+03  0.28207115678E+03  0.00000000000E+00 0. -1.
         25    2    1    2    0    0 -0.81847458386E+01 -0.19984713674E+01 -0.13204692748E+03  0.18208490595E+03  0.12509011937E+03 0.  0.
          5    1    3    3  502    0 -0.31930401567E+02  0.24026762081E+02  0.50293562827E+01  0.40492007421E+02  0.41800000000E+01 0.  1.
         -5    1    3    3    0  502  0.23745655729E+02 -0.26025233449E+02 -0.13707628377E+03  0.14159289853E+03  0.41800000000E+01 0.  1.
        -11    1    1    2    0    0  0.13981254396E+02 -0.41786685878E+02 -0.30936224105E+02  0.53839135887E+02  0.00000000000E+00 0.  1.
         11    1    1    2    0    0 -0.57965085577E+01  0.43785157246E+02 -0.76714639722E+02  0.88520480422E+02  0.00000000000E+00 0. -1.
</event>
<event>
 7    1  0.2688177E-009  0.1728698E+03  0.7561462E-02  0.1174888E+00
         -2   -1    0    0    0  501 -0.00000000000E+00  0.00000000000E+00  0.48486694399E+02  0.48486694399E+02  0.00000000000E+00 0.  1.
          2   -1    0    0  501    0  0.00000000000E+00 -0.00000000000E+00 -0.78040358306E+03  0.78040358306E+03  0.00000000000E+00 0. -1.
         25    2    1    2    0    0  0.57754895001E+02 -0.14963304019E+03 -0.35571942006E+03  0.40976932579E+03  0.12509564316E+03 0.  0.
          5    1    3    3  502    0  0.31923455607E+02 -0.64432553544E+02 -0.41445833438E+02  0.83101687609E+02  0.41800000000E+01 0. -1.
         -5    1    3    3    0  502  0.25831439395E+02 -0.85200486643E+02 -0.31427358662E+03  0.32666763818E+03  0.41800000000E+01 0. -1.
        -11    1    1    2    0    0  0.14034149232E+02 -0.43452915482E+01 -0.25211995318E+02  0.29180192104E+02  0.00000000000E+00 0.  1.
         11    1    1    2    0    0 -0.71789044233E+02  0.15397833174E+03 -0.35098547328E+03  0.38994075956E+03  0.00000000000E+00 0. -1.
</event>
<event>
 7    1  0.2688177E-009  0.1431490E+03  0.7561462E-02  0.1209153E+00
          1   -1    0    0  501    0  0.00000000000E+00  0.00000000000E+00  0.47828359931E+03  0.47828359931E+03  0.00000000000E+00 0.  1.
         -1   -1    0    0    0  501 -0.00000000000E+00 -0.00000000000E+00 -0.50131843604E+02  0.50131843604E+02  0.00000000000E+00 0. -1.
         25    2    1    2    0    0  0.34077917024E+02 -0.10096943921E+03  0.26288085670E+03  0.31001630878E+03  0.12509050647E+03 0.  0.
          5    1    3    3  502    0  0.77371820297E+02 -0.41558778567E+02  0.11444076357E+03  0.14431802181E+03  0.41800000000E+01 0. -1.
         -5    1    3    3    0  502 -0.43293903273E+02 -0.59410660647E+02  0.14844009313E+03  0.16569828697E+03  0.41800000000E+01 0. -1.
        -11    1    1    2    0    0  0.67397592254E+01  0.77227440475E+02  0.14986760047E+03  0.16872996055E+03  0.00000000000E+00 0.  1.
         11    1    1    2    0    0 -0.40817676249E+02  0.23741998739E+02  0.15403298542E+02  0.49669173584E+02  0.00000000000E+00 0. -1.
</event>
<event>
 7    1  0.2688177E-009  0.2439067E+03  0.7561462E-02  0.1117217E+00
         -1   -1    0    0    0  501 -0.00000000000E+00  0.00000000000E+00  0.18839823641E+03  0.18839823641E+03  0.00000000000E+00 0.  1.
          1   -1    0    0  501    0  0.00000000000E+00 -0.00000000000E+00 -0.54993341118E+03  0.54993341118E+03  0.00000000000E+00 0. -1.
         25    2    1    2    0    0 -0.22413480142E+03  0.45173546801E+02  0.43598881323E+02  0.26424446400E+03  0.12508883149E+03 0.  0.
          5    1    3    3  502    0 -0.16115624657E+03  0.69982971673E+02  0.73030814485E+02  0.19031532885E+03  0.41800000000E+01 0.  1.
         -5    1    3    3    0  502 -0.62978554856E+02 -0.24809424872E+02 -0.29431933162E+02  0.73929135149E+02  0.41800000000E+01 0.  1.
        -11    1    1    2    0    0  0.80507554349E+02 -0.59213008873E+02 -0.19580025939E+03  0.21983036256E+03  0.00000000000E+00 0. -1.
         11    1    1    2    0    0  0.14362724707E+03  0.14039462072E+02 -0.20933379671E+03  0.25425682103E+03  0.00000000000E+00 0.  1.
</event>
<event>
 7    1  0.2688177E-009  0.1564476E+03  0.7561462E-02  0.1192767E+00
          1   -1    0    0  501    0  0.00000000000E+00  0.00000000000E+00  0.53624732252E+03  0.53624732252E+03  0.00000000000E+00 0. -1.
         -1   -1    0    0    0  501 -0.00000000000E+00 -0.00000000000E+00 -0.94479119619E+02  0.94479119619E+02  0.00000000000E+00 0.  1.
         25    2    1    2    0    0  0.11844179570E+03 -0.91617497122E+02  0.48942126405E+02  0.20115845615E+03  0.12508864055E+03 0.  0.
          5    1    3    3  502    0  0.57185963364E+02 -0.53330703942E+02  0.88925305307E+02  0.11848873665E+03  0.41800000000E+01 0. -1.
         -5    1    3    3    0  502  0.61255832337E+02 -0.38286793180E+02 -0.39983178901E+02  0.82669719501E+02  0.41800000000E+01 0. -1.
        -11    1    1    2    0    0 -0.78472969075E+02  0.93685797172E+02  0.35105322793E+03  0.37171683350E+03  0.00000000000E+00 0. -1.
         11    1    1    2    0    0 -0.39968826627E+02 -0.20683000496E+01  0.41772848570E+02  0.57851152492E+02  0.00000000000E+00 0.  1.
</event>
<event>
 7    1  0.2688177E-009  0.1402231E+03  0.7561462E-02  0.1213029E+00
         -3   -1    0    0    0  501 -0.00000000000E+00  0.00000000000E+00  0.42779659322E+03  0.42779659322E+03  0.00000000000E+00 0.  1.
          3   -1    0    0  501    0  0.00000000000E+00 -0.00000000000E+00 -0.51083840493E+02  0.51083840493E+02  0.00000000000E+00 0. -1.
         25    2    1    2    0    0 -0.14660091400E+01  0.96262404057E+02  0.24023424430E+03  0.28745255574E+03  0.12509148672E+03 0.  0.
          5    1    3    3  502    0 -0.60101511713E+02  0.47521632564E+02  0.15539734961E+03  0.17330985528E+03  0.41800000000E+01 0.  1.
         -5    1    3    3    0  502  0.58635502573E+02  0.48740771493E+02  0.84836894693E+02  0.11414270046E+03  0.41800000000E+01 0.  1.
        -11    1    1    2    0    0  0.44691458198E+01  0.15202144445E+02  0.43325435619E+02  0.46132112803E+02  0.00000000000E+00 0. -1.
         11    1    1    2    0    0 -0.30031366798E+01 -0.11146454850E+03  0.93153072811E+02  0.14529576517E+03  0.00000000000E+00 0.  1.
</event>
<event>
 7    1  0.2688177E-009  0.1308771E+03  0.7561462E-02  0.1226160E+00
         -2   -1    0    0    0  501 -0.00000000000E+00  0.00000000000E+00  0.38868739929E+02  0.38868739929E+02  0.00000000000E+00 0.  1.
          2   -1    0    0  501    0  0.00000000000E+00 -0.00000000000E+00 -0.57701648552E+03  0.57701648552E+03  0.00000000000E+00 0. -1.
         25    2    1    2    0    0 -0.91965357505E+02  0.20438661527E+02 -0.19909296239E+03  0.25329766430E+03  0.12508530369E+03 0.  0.
          5    1    3    3  502    0 -0.49691179626E+02 -0.37342510562E+02 -0.29028030324E+02  0.68729726991E+02  0.41800000000E+01 0.  1.
         -5    1    3    3    0  502 -0.42274177879E+02  0.57781172089E+02 -0.17006493206E+03  0.18456793730E+03  0.41800000000E+01 0.  1.
        -11    1    1    2    0    0  0.72452441683E+02  0.26309725663E+02 -0.22343332240E+03  0.23635568013E+03  0.00000000000E+00 0. -1.
         11    1    1    2    0    0  0.19512915822E+02 -0.46748387190E+02 -0.11562146080E+03  0.12623188102E+03  0.00000000000E+00 0.  1.
</event>
<event>
 7    1  0.2688177E-009  0.9825018E+02  0.7561462E-02  0.1284019E+00
         -1   -1    0    0    0  501 -0.00000000000E+00  0.00000000000E+00  0.11410528565E+03  0.11410528565E+03  0.00000000000E+00 0.  1.
          1   -1    0    0  501    0  0.00000000000E+00 -0.00000000000E+00 -0.12691982072E+03  0.12691982072E+03  0.00000000000E+00 0. -1.
         25    2    1    2    0    0 -0.25545055393E+02 -0.21266964402E+02  0.29857235500E+02  0.13282979569E+03  0.12508983365E+03 0.  0.
          5    1    3    3  502    0  0.61103591857E+01  0.50214584027E+02  0.16760292615E+02  0.53452976969E+02  0.41800000000E+01 0.  1.
         -5    1    3    3    0  502 -0.31655414578E+02 -0.71481548429E+02  0.13096942885E+02  0.79376818725E+02  0.41800000000E+01 0.  1.
        -11    1    1    2    0    0  0.37888685443E+02  0.33132669543E+02  0.11289532050E+02  0.51582747208E+02  0.00000000000E+00 0.  1.
         11    1    1    2    0    0 -0.12343630050E+02 -0.11865705140E+02 -0.53961302628E+02  0.56612563469E+02  0.00000000000E+00 0. -1.
</event>
<event>
 7    1  0.2688177E-009  0.2004197E+03  0.7561462E-02  0.1149385E+00
          2   -1    0    0  501    0  0.00000000000E+00  0.00000000000E+00  0.19454902872E+04  0.19454902872E+04  0.00000000000E+00 0. -1.
         -2   -1    0    0    0  501 -0.00000000000E+00 -0.00000000000E+00 -0.27158913709E+02  0.27158913709E+02  0.00000000000E+00 0.  1.
         25    2    1    2    0    0 -0.13845223304E+03 -0.13513491847E+03  0.12400879316E+04  0.12613074458E+04  0.12509167727E+03 0.  0.
          5    1    3    3  502    0 -0.86356813163E+01 -0.52432150775E+02  0.62386639122E+03  0.62613932309E+03  0.41800000000E+01 0. -1.
         -5    1    3    3    0  502 -0.12981655172E+03 -0.82702767698E+02  0.61622154037E+03  0.63516812270E+03  0.41800000000E+01 0. -1.
        -11    1    1    2    0    0  0.61492515508E+02  0.64083002438E+02  0.16365431496E+03  0.18620068601E+03  0.00000000000E+00 0.  1.
         11    1    1    2    0    0  0.76959717530E+02  0.71051916035E+02  0.51458912690E+03  0.52514106906E+03  0.00000000000E+00 0. -1.
</event>
<event>
 7    1  0.2688177E-009  0.2313186E+03  0.7561462E-02  0.1125715E+00
         -1   -1    0    0    0  501 -0.00000000000E+00  0.00000000000E+00  0.26075030687E+03  0.26075030687E+03  0.00000000000E+00 0.  1.
          1   -1    0    0  501    0  0.00000000000E+00 -0.00000000000E+00 -0.22101934385E+03  0.22101934385E+03  0.00000000000E+00 0. -1.
         25    2    1    2    0    0  0.40032244884E+02  0.20950524315E+03  0.10634906341E+02  0.24749811608E+03  0.12508872327E+03 0.  0.
          5    1    3    3  502    0  0.84109463465E+02  0.15717278624E+03  0.13018767719E+01  0.17831672345E+03  0.41800000000E+01 0. -1.
         -5    1    3    3    0  502 -0.44077218581E+02  0.52332456911E+02  0.93330295689E+01  0.69181392622E+02  0.41800000000E+01 0. -1.
        -11    1    1    2    0    0 -0.29526570286E+02 -0.71294250447E+02 -0.31044321810E+02  0.83177150806E+02  0.00000000000E+00 0.  1.
         11    1    1    2    0    0 -0.10505674598E+02 -0.13821099271E+03  0.60140378487E+02  0.15109438384E+03  0.00000000000E+00 0. -1.
</event>
<event>
 7    1  0.2688177E-009  0.2576091E+03  0.7561462E-02  0.1108588E+00
         -2   -1    0    0    0  501 -0.00000000000E+00  0.00000000000E+00  0.28008044714E+03  0.28008044714E+03  0.00000000000E+00 0.  1.
          2   -1    0    0  501    0  0.00000000000E+00 -0.00000000000E+00 -0.40013318771E+03  0.40013318771E+03  0.00000000000E+00 0. -1.
         25    2    1    2    0    0 -0.23825688809E+03  0.25604149090E+02 -0.27095803215E+03  0.38273779921E+03  0.12509216834E+03 0.  0.
          5    1    3    3  502    0 -0.15849292054E+03 -0.37765226399E+02 -0.20244150382E+03  0.25989661994E+03  0.41800000000E+01 0.  1.
         -5    1    3    3    0  502 -0.79763967554E+02  0.63369375489E+02 -0.68516528335E+02  0.12284117927E+03  0.41800000000E+01 0.  1.
        -11    1    1    2    0    0  0.19635047311E+03  0.80708629782E+01  0.14322281477E+03  0.24316953302E+03  0.00000000000E+00 0. -1.
         11    1    1    2    0    0  0.41906414979E+02 -0.33675012068E+02  0.76824768065E+01  0.54306302618E+02  0.00000000000E+00 0.  1.
</event>
<event>
 7    1  0.2688177E-009  0.9609366E+02  0.7561462E-02  0.1288732E+00
         -3   -1    0    0    0  501 -0.00000000000E+00  0.00000000000E+00  0.16466951240E+04  0.16466951240E+04  0.00000000000E+00 0.  1.
          3   -1    0    0  501    0  0.00000000000E+00 -0.00000000000E+00 -0.13337641978E+02  0.13337641978E+02  0.00000000000E+00 0. -1.
         25    2    1    2    0    0  0.11608909851E+02  0.70557841480E+02  0.12809098090E+04  0.12889867827E+04  0.12507522236E+03 0.  0.
          5    1    3    3  502    0 -0.50638016913E+01  0.44910888839E+02  0.12186231037E+04  0.12194680690E+04  0.41800000000E+01 0. -1.
         -5    1    3    3    0  502  0.16672711542E+02  0.25646952642E+02  0.62286705300E+02  0.69518713647E+02  0.41800000000E+01 0. -1.
        -11    1    1    2    0    0 -0.18509080230E+00 -0.91802874632E+02  0.27358922139E+03  0.28858077571E+03  0.00000000000E+00 0.  1.
         11    1    1    2    0    0 -0.11423819049E+02  0.21245033152E+02  0.78858451659E+02  0.82465207653E+02  0.00000000000E+00 0. -1.
</event>
<event>
 7    1  0.2688177E-009  0.1341339E+03  0.7561462E-02  0.1221448E+00
         -1   -1    0    0    0  501 -0.00000000000E+00  0.00000000000E+00  0.18150397997E+03  0.18150397997E+03  0.00000000000E+00 0.  1.
          1   -1    0    0  501    0  0.00000000000E+00 -0.00000000000E+00 -0.16727256893E+03  0.16727256893E+03  0.00000000000E+00 0. -1.
         25    2    1    2    0    0  0.84276959920E+02 -0.74984579232E+02 -0.68901933469E+02  0.18199067244E+03  0.12509130794E+03 0.  0.
          5    1    3    3  502    0 -0.10253628571E+02  0.17440939630E+01 -0.58678577108E+02  0.59739656628E+02  0.41800000000E+01 0. -1.
         -5    1    3    3    0  502  0.94530588491E+02 -0.76728673195E+02 -0.10223356360E+02  0.12225101581E+03  0.41800000000E+01 0. -1.
        -11    1    1    2    0    0  0.76348418626E+01 -0.82470005951E+01 -0.72233365293E+01  0.13359656421E+02  0.00000000000E+00 0. -1.
         11    1    1    2    0    0 -0.91911801783E+02  0.83231579827E+02  0.90356681041E+02  0.15342622004E+03  0.00000000000E+00 0.  1.
</event>
<event>
 7    1  0.2688177E-009  0.1076889E+03  0.7561462E-02  0.1264911E+00
          2   -1    0    0  501    0  0.00000000000E+00  0.00000000000E+00  0.43309547756E+03  0.43309547756E+03  0.00000000000E+00 0. -1.
         -2   -1    0    0    0  501 -0.00000000000E+00 -0.00000000000E+00 -0.34262416288E+02  0.34262416288E+02  0.00000000000E+00 0.  1.
         25    2    1    2    0    0  0.21918730255E+01 -0.46388819267E+02  0.16156307628E+03  0.20954059516E+03  0.12509159262E+03 0.  0.
          5    1    3    3  502    0  0.61559702842E+02 -0.13158782236E+02  0.96614079243E+02  0.11538848847E+03  0.41800000000E+01 0.  1.
         -5    1    3    3    0  502 -0.59367829816E+02 -0.33230037031E+02  0.64948997039E+02  0.94152106692E+02  0.41800000000E+01 0.  1.
        -11    1    1    2    0    0  0.29013233462E+02  0.44163450246E+02  0.70315764270E+02  0.87957289400E+02  0.00000000000E+00 0.  1.
         11    1    1    2    0    0 -0.31205106487E+02  0.22253690201E+01  0.16695422072E+03  0.16986000929E+03  0.00000000000E+00 0. -1.
</event>
<event>
 7    1  0.2688177E-009  0.1103037E+03  0.7561462E-02  0.1260009E+00
         -1   -1    0    0    0  501 -0.00000000000E+00  0.00000000000E+00  0.41484180479E+02  0.41484180479E+02  0.00000000000E+00 0.  1.
          1   -1    0    0  501    0  0.00000000000E+00 -0.00000000000E+00 -0.39947648399E+03  0.39947648399E+03  0.00000000000E+00 0. -1.
         25    2    1    2    0    0 -0.84953472678E+01  0.65029913878E+02 -0.14156360965E+03  0.19997453725E+03  0.12509396207E+03 0.  0.
          5    1    3    3  502    0 -0.12774363473E+02  0.98605513701E+02 -0.73077516705E+02  0.12346670621E+03  0.41800000000E+01 0.  1.
         -5    1    3    3    0  502  0.42790162049E+01 -0.33575599823E+02 -0.68486092948E+02  0.76507831039E+02  0.41800000000E+01 0.  1.
        -11    1    1    2    0    0  0.31979080114E+02 -0.25063395954E+02 -0.34678224047E+02  0.53417362391E+02  0.00000000000E+00 0.  1.
         11    1    1    2    0    0 -0.23483732846E+02 -0.39966517924E+02 -0.18175046981E+03  0.18756876483E+03  0.00000000000E+00 0. -1.
</event>
<event>
 7    1  0.2688177E-009  0.1086690E+03  0.7561462E-02  0.1263055E+00
          1   -1    0    0  501    0  0.00000000000E+00  0.00000000000E+00  0.14696958082E+04  0.14696958082E+04  0.00000000000E+00 0. -1.
         -1   -1    0    0    0  501 -0.00000000000E+00 -0.00000000000E+00 -0.17223922173E+02  0.17223922173E+02  0.00000000000E+00 0.  1.
         25    2    1    2    0    0 -0.61365333285E+02  0.27169574840E+02  0.12230054031E+04  0.12312165859E+04  0.12509266724E+03 0.  0.
          5    1    3    3  502    0 -0.54513605603E+02  0.69318897807E+02  0.56932839302E+03  0.57613291373E+03  0.41800000000E+01 0. -1.
         -5    1    3    3    0  502 -0.68517276820E+01 -0.42149322967E+02  0.65367701006E+03  0.65508367212E+03  0.41800000000E+01 0. -1.
        -11    1    1    2    0    0  0.59199945778E+02 -0.41087039570E+02  0.23057643568E+03  0.24157456632E+03  0.00000000000E+00 0. -1.
         11    1    1    2    0    0  0.21653875070E+01  0.13917464730E+02 -0.11099527111E+01  0.14128578222E+02  0.00000000000E+00 0.  1.
</event>
<event>
 7    1  0.2688177E-009  0.1021124E+03  0.7561462E-02  0.1275916E+00
         -1   -1    0    0    0  501 -0.00000000000E+00  0.00000000000E+00  0.59363338711E+02  0.59363338711E+02  0.00000000000E+00 0.  1.
          1   -1    0    0  501    0  0.00000000000E+00 -0.00000000000E+00 -0.23581067607E+03  0.23581067607E+03  0.00000000000E+00 0. -1.
         25    2    1    2    0    0  0.25850042600E+02 -0.30783611994E+02 -0.68358968556E+02  0.14810864540E+03  0.12508943516E+03 0.  0.
          5    1    3    3  502    0 -0.36327831177E+02 -0.22704645457E+01  0.15523103111E+02  0.39790771009E+02  0.41800000000E+01 0.  1.
         -5    1    3    3    0  502  0.62177873777E+02 -0.28513147448E+02 -0.83882071667E+02  0.10831787439E+03  0.41800000000E+01 0.  1.
        -11    1    1    2    0    0  0.28526868909E+02 -0.10901590850E+02 -0.41468662261E+02  0.51500260995E+02  0.00000000000E+00 0.  1.
         11    1    1    2    0    0 -0.54376911509E+02  0.41685202844E+02 -0.66619706540E+02  0.95565108386E+02  0.00000000000E+00 0. -1.
</event>
<event>
 7    1  0.2688177E-009  0.1144601E+03  0.7561462E-02  0.1252526E+00
          2   -1    0    0  501    0  0.00000000000E+00  0.00000000000E+00  0.79334819962E+02  0.79334819962E+02  0.00000000000E+00 0. -1.
         -2   -1    0    0    0  501 -0.00000000000E+00 -0.00000000000E+00 -0.54027406583E+03  0.54027406583E+03  0.00000000000E+00 0.  1.
         25    2    1    2    0    0  0.57111169026E+02 -0.86613351109E+02 -0.45347431736E+03  0.48171554220E+03  0.12508936357E+03 0.  0.
          5    1    3    3  502    0  0.66679683155E+02 -0.49296164419E+02 -0.11957135031E+03  0.14557153632E+03  0.41800000000E+01 0.  1.
         -5    1    3    3    0  502 -0.95685141295E+01 -0.37317186690E+02 -0.33390296705E+03  0.33614400589E+03  0.41800000000E+01 0.  1.
        -11    1    1    2    0    0 -0.44154351389E+02  0.82455432811E+02  0.29844849658E+02  0.98179530441E+02  0.00000000000E+00 0. -1.
         11    1    1    2    0    0 -0.12956817637E+02  0.41579182986E+01 -0.37309778168E+02  0.39713813149E+02  0.00000000000E+00 0.  1.
</event>
<event>
 7    1  0.2688177E-009  0.1306248E+03  0.7561462E-02  0.1226532E+00
          2   -1    0    0  501    0  0.00000000000E+00  0.00000000000E+00  0.30962830774E+02  0.30962830774E+02  0.00000000000E+00 0.  1.
         -2   -1    0    0    0  501 -0.00000000000E+00 -0.00000000000E+00 -0.75269678873E+03  0.75269678873E+03  0.00000000000E+00 0. -1.
         25    2    1    2    0    0  0.73020478669E+02 -0.50104983667E+02 -0.53876776482E+03  0.56014401707E+03  0.12509242888E+03 0.  0.
          5    1    3    3  502    0 -0.16320294780E+02  0.16447787064E+02 -0.24173948421E+03  0.24288337190E+03  0.41800000000E+01 0.  1.
         -5    1    3    3    0  502  0.89340773448E+02 -0.66552770731E+02 -0.29702828061E+03  0.31726064517E+03  0.41800000000E+01 0.  1.
        -11    1    1    2    0    0  0.12289344340E+02 -0.14647796291E+02 -0.14969623177E+02  0.24283235751E+02  0.00000000000E+00 0. -1.
         11    1    1    2    0    0 -0.85309823009E+02  0.64752779958E+02 -0.16799656996E+03  0.19923236668E+03  0.00000000000E+00 0.  1.
</event>
<event>
 7    1  0.2688177E-009  0.1786825E+03  0.7561462E-02  0.1169084E+00
          2   -1    0    0  501    0  0.00000000000E+00  0.00000000000E+00  0.81757769506E+03  0.81757769506E+03  0.00000000000E+00 0. -1.
         -2   -1    0    0    0  501 -0.00000000000E+00 -0.00000000000E+00 -0.42642933146E+02  0.42642933146E+02  0.00000000000E+00 0.  1.
         25    2    1    2    0    0 -0.68719402114E+02  0.12546681856E+03  0.51956526460E+03  0.55323349442E+03  0.12511976816E+03 0.  0.
          5    1    3    3  502    0 -0.20869889005E+02  0.13669182668E+03  0.41853127405E+03  0.44080166460E+03  0.41800000000E+01 0. -1.
         -5    1    3    3    0  502 -0.47849513110E+02 -0.11225008122E+02  0.10103399054E+03  0.11243182982E+03  0.41800000000E+01 0. -1.
        -11    1    1    2    0    0 -0.22768112210E+02 -0.24201668083E+02  0.61471155785E+02  0.69877111168E+02  0.00000000000E+00 0.  1.
         11    1    1    2    0    0  0.91487514325E+02 -0.10126515048E+03  0.19389834153E+03  0.23711002262E+03  0.00000000000E+00 0. -1.
</event>
<event>
 7    1  0.2688177E-009  0.1550624E+03  0.7561462E-02  0.1194387E+00
         -3   -1    0    0    0  501 -0.00000000000E+00  0.00000000000E+00  0.68748453011E+03  0.68748453011E+03  0.00000000000E+00 0.  1.
          3   -1    0    0  501    0  0.00000000000E+00 -0.00000000000E+00 -0.41681604608E+02  0.41681604608E+02  0.00000000000E+00 0. -1.
         25    2    1    2    0    0  0.43679627438E+01 -0.12769724685E+03  0.29707754293E+03  0.34673956234E+03  0.12509033387E+03 0.  0.
          5    1    3    3  502    0  0.37791330860E+02 -0.13745815609E+03  0.22183355355E+03  0.26372433950E+03  0.41800000000E+01 0. -1.
         -5    1    3    3    0  502 -0.33423368116E+02  0.97609092405E+01  0.75243989386E+02  0.83015222846E+02  0.41800000000E+01 0. -1.
        -11    1    1    2    0    0  0.12876915515E+02  0.90785234989E+02  0.12501843706E+03  0.15503994147E+03  0.00000000000E+00 0. -1.
         11    1    1    2    0    0 -0.17244878259E+02  0.36912011864E+02  0.22370694551E+03  0.22738663090E+03  0.00000000000E+00 0.  1.
</event>
<event>
 7    1  0.2688177E-009  0.9368773E+02  0.7561462E-02  0.1294159E+00
         -2   -1    0    0    0  501 -0.00000000000E+00  0.00000000000E+00  0.15219369000E+02  0.15219369000E+02  0.00000000000E+00 0. -1.
          2   -1    0    0  501    0  0.00000000000E+00 -0.00000000000E+00 -0.89500303542E+03  0.89500303542E+03  0.00000000000E+00 0.  1.
         25    2    1    2    0    0  0.37648507976E+02  0.50955785166E+01 -0.57396250189E+03  0.58866267883E+03  0.12508965106E+03 0.  0.
          5    1    3    3  502    0  0.44097996104E+02 -0.34081783981E+02 -0.11392406510E+03  0.12689509946E+03  0.41800000000E+01 0. -1.
         -5    1    3    3    0  502 -0.64494881287E+01  0.39177362498E+02 -0.46003843679E+03  0.46176757937E+03  0.41800000000E+01 0. -1.
        -11    1    1    2    0    0 -0.30315216164E+02  0.37567098762E+02 -0.97589264345E+02  0.10887590990E+03  0.00000000000E+00 0. -1.
         11    1    1    2    0    0 -0.73332918117E+01 -0.42662677279E+02 -0.20823190018E+03  0.21268381569E+03  0.00000000000E+00 0.  1.
</event>
<event>
 7    1  0.2688177E-009  0.1070586E+03  0.7561462E-02  0.1266116E+00
         -1   -1    0    0    0  501 -0.00000000000E+00  0.00000000000E+00  0.46482342694E+03  0.46482342694E+03  0.00000000000E+00 0.  1.
          1   -1    0    0  501    0  0.00000000000E+00 -0.00000000000E+00 -0.29355926833E+02  0.29355926833E+02  0.00000000000E+00 0. -1.
         25    2    1    2    0    0  0.11928107845E+02 -0.38347121561E+02  0.27680978891E+03  0.30640510343E+03  0.12509055392E+03 0.  0.
          5    1    3    3  502    0  0.49885335688E+02  0.12953283755E+02  0.54702508521E+02  0.75273973691E+02  0.41800000000E+01 0. -1.
         -5    1    3    3    0  502 -0.37957227844E+02 -0.51300405316E+02  0.22210728039E+03  0.23113112974E+03  0.41800000000E+01 0. -1.
        -11    1    1    2    0    0  0.18414736747E+02  0.58963034246E+02  0.80800701398E+02  0.10170789194E+03  0.00000000000E+00 0. -1.
         11    1    1    2    0    0 -0.30342844591E+02 -0.20615912685E+02  0.77857009792E+02  0.86066358396E+02  0.00000000000E+00 0.  1.
</event>
<event>
 7    1  0.2688177E-009  0.1546697E+03  0.7561462E-02  0.1194850E+00
          3   -1    0    0  501    0  0.00000000000E+00  0.00000000000E+00  0.84009141801E+02  0.84009141801E+02  0.00000000000E+00 0. -1.
         -3   -1    0    0    0  501 -0.00000000000E+00 -0.00000000000E+00 -0.30623144326E+03  0.30623144326E+03  0.00000000000E+00 0.  1.
         25    2    1    2    0    0  0.33064363942E+02 -0.10911117459E+03 -0.15338035712E+03  0.22841044588E+03  0.12508915722E+03 0.  0.
          5    1    3    3  502    0  0.27589126537E+02 -0.13415731729E+03 -0.14834979559E+03  0.20195167723E+03  0.41800000000E+01 0. -1.
         -5    1    3    3    0  502  0.54752374045E+01  0.25046142704E+02 -0.50305615266E+01  0.26458768646E+02  0.41800000000E+01 0. -1.
        -11    1    1    2    0    0  0.29692856343E+02  0.15128025133E+02 -0.18487583580E+02  0.38109232594E+02  0.00000000000E+00 0.  1.
         11    1    1    2    0    0 -0.62757220285E+02  0.93983149453E+02 -0.50354360761E+02  0.12372090659E+03  0.00000000000E+00 0. -1.
</event>
<event>
 7    1  0.2688177E-009  0.1175325E+03  0.7561462E-02  0.1247224E+00
         -1   -1    0    0    0  501 -0.00000000000E+00  0.00000000000E+00  0.10776597192E+03  0.10776597192E+03  0.00000000000E+00 0.  1.
          1   -1    0    0  501    0  0.00000000000E+00 -0.00000000000E+00 -0.21944143822E+03  0.21944143822E+03  0.00000000000E+00 0. -1.
         25    2    1    2    0    0  0.13212085628E+02  0.10385533385E+03 -0.27828604407E+02  0.16547919371E+03  0.12509373587E+03 0.  0.
          5    1    3    3  502    0  0.33359446510E+02  0.19156177055E+02  0.39534524264E+02  0.55319642078E+02  0.41800000000E+01 0.  1.
         -5    1    3    3    0  502 -0.20147360882E+02  0.84699156791E+02 -0.67363128671E+02  0.11015955163E+03  0.41800000000E+01 0.  1.
        -11    1    1    2    0    0  0.46998366450E+01 -0.75646513750E+02 -0.48413533099E+01  0.75946838044E+02  0.00000000000E+00 0.  1.
         11    1    1    2    0    0 -0.17911922273E+02 -0.28208820095E+02 -0.79005508581E+02  0.85781378380E+02  0.00000000000E+00 0. -1.
</event>
<event>
 7    1  0.2688177E-009  0.9342687E+02  0.7561462E-02  0.1294759E+00
         -2   -1    0    0    0  501 -0.00000000000E+00  0.00000000000E+00  0.15313472180E+03  0.15313472180E+03  0.00000000000E+00 0.  1.
          2   -1    0    0  501    0  0.00000000000E+00 -0.00000000000E+00 -0.85181902776E+02  0.85181902776E+02  0.00000000000E+00 0. -1.
         25    2    1    2    0    0  0.54466644752E+02 -0.10547376058E+02  0.37022314968E+02  0.14175434629E+03  0.12508309380E+03 0.  0.
          5    1    3    3  502    0  0.54053264472E+02  0.27095455151E+02  0.69246893064E+02  0.92024581982E+02  0.41800000000E+01 0. -1.
         -5    1    3    3    0  502  0.41338027945E+00 -0.37642831209E+02 -0.32224578096E+02  0.49729764308E+02  0.41800000000E+01 0. -1.
        -11    1    1    2    0    0 -0.64433659972E+02 -0.10309050079E+02  0.33419088586E+02  0.73313085686E+02  0.00000000000E+00 0. -1.
         11    1    1    2    0    0  0.99670152206E+01  0.20856426138E+02 -0.24885845282E+01  0.23249192601E+02  0.00000000000E+00 0.  1.
</event>
<event>
 7    1  0.2688177E-009  0.1006203E+03  0.7561462E-02  0.1278997E+00
         -2   -1    0    0    0  501 -0.00000000000E+00  0.00000000000E+00  0.15018118666E+02  0.15018118666E+02  0.00000000000E+00 0.  1.
          2   -1    0    0  501    0  0.00000000000E+00 -0.00000000000E+00 -0.96627062535E+03  0.96627062535E+03  0.00000000000E+00 0. -1.
         25    2    1    2    0    0 -0.11960423360E+02  0.13709783124E+02 -0.74167255346E+03  0.75236690775E+03  0.12508707942E+03 0.  0.
          5    1    3    3  502    0  0.53918926669E+02 -0.24349806710E+01 -0.23485344339E+03  0.24101201642E+03  0.41800000000E+01 0.  1.
         -5    1    3    3    0  502 -0.65879350029E+02  0.16144763795E+02 -0.50681911007E+03  0.51135489133E+03  0.41800000000E+01 0.  1.
        -11    1    1    2    0    0  0.43896555379E+02  0.11768470199E+01 -0.55014011156E+02  0.70390581518E+02  0.00000000000E+00 0.  1.
         11    1    1    2    0    0 -0.31936132019E+02 -0.14886630143E+02 -0.15456594206E+03  0.15853125475E+03  0.00000000000E+00 0. -1.
</event>
<event>
 7    1  0.2688177E-009  0.1322365E+03  0.7561462E-02  0.1224174E+00
          3   -1    0    0  501    0  0.00000000000E+00  0.00000000000E+00  0.78914205587E+02  0.78914205587E+02  0.00000000000E+00 0. -1.
         -3   -1    0    0    0  501 -0.00000000000E+00 -0.00000000000E+00 -0.30058949611E+03  0.30058949611E+03  0.00000000000E+00 0.  1.
         25    2    1    2    0    0  0.88239424050E+02  0.71831491227E+01 -0.41999785682E+02  0.15890150246E+03  0.12509161403E+03 0.  0.
          5    1    3    3  502    0  0.42513611918E+02  0.55855261390E+02 -0.56774452697E+02  0.90377144800E+02  0.41800000000E+01 0.  1.
         -5    1    3    3    0  502  0.45725812132E+02 -0.48672112267E+02  0.14774667015E+02  0.68524357662E+02  0.41800000000E+01 0.  1.
        -11    1    1    2    0    0 -0.92068440026E+02 -0.35494004017E+02 -0.14873426202E+03  0.17848894270E+03  0.00000000000E+00 0.  1.
         11    1    1    2    0    0  0.38290159757E+01  0.28310854894E+02 -0.30941242828E+02  0.42113256535E+02  0.00000000000E+00 0. -1.
</event>
<event>
 7    1  0.2688177E-009  0.1448119E+03  0.7561462E-02  0.1206997E+00
         -3   -1    0    0    0  501 -0.00000000000E+00  0.00000000000E+00  0.22048392460E+02  0.22048392460E+02  0.00000000000E+00 0.  1.
          3   -1    0    0  501    0  0.00000000000E+00 -0.00000000000E+00 -0.16286286544E+04  0.16286286544E+04  0.00000000000E+00 0. -1.
         25    2    1    2    0    0  0.39409471631E+02  0.10148711545E+03 -0.13230520174E+04  0.13334031134E+04  0.12507789921E+03 0.  0.
          5    1    3    3  502    0  0.58353405710E+01  0.11202648876E+03 -0.66584911688E+03  0.67524551404E+03  0.41800000000E+01 0. -1.
         -5    1    3    3    0  502  0.33574131060E+02 -0.10539373312E+02 -0.65720290055E+03  0.65815759933E+03  0.41800000000E+01 0. -1.
        -11    1    1    2    0    0  0.26573669815E+02 -0.55406803292E+02 -0.13547491458E+03  0.14875996188E+03  0.00000000000E+00 0. -1.
         11    1    1    2    0    0 -0.65983141445E+02 -0.46080312160E+02 -0.14805332995E+03  0.16851397163E+03  0.00000000000E+00 0.  1.
</event>
<event>
 7    1  0.2688177E-009  0.9204759E+02  0.7561462E-02  0.1297968E+00
          3   -1    0    0  501    0  0.00000000000E+00  0.00000000000E+00  0.11621852270E+03  0.11621852270E+03  0.00000000000E+00 0. -1.
         -3   -1    0    0    0  501 -0.00000000000E+00 -0.00000000000E+00 -0.14408581429E+03  0.14408581429E+03  0.00000000000E+00 0.  1.
         25    2    1    2    0    0  0.55114339033E+02 -0.26056506018E+02 -0.57148019880E+02  0.15042347963E+03  0.12507915564E+03 0.  0.
          5    1    3    3  502    0  0.10118668336E+02  0.25647491491E+02  0.29015658011E+02  0.40243783103E+02  0.41800000000E+01 0.  1.
         -5    1    3    3    0  502  0.44995670697E+02 -0.51703997509E+02 -0.86163677891E+02  0.11017969653E+03  0.41800000000E+01 0.  1.
        -11    1    1    2    0    0 -0.53596594317E+00 -0.17625462492E+02  0.35560926032E+02  0.39692866460E+02  0.00000000000E+00 0.  1.
         11    1    1    2    0    0 -0.54578373090E+02  0.43681968511E+02 -0.62801977356E+01  0.70187990894E+02  0.00000000000E+00 0. -1.
</event>
<event>
 7    1  0.3233255E-009  0.8241207E+02  0.7561462E-02  0.1322342E+00
         -2   -1    0    0    0  501 -0.00000000000E+00  0.00000000000E+00  0.44361455901E+02  0.44361455901E+02  0.00000000000E+00 0.  1.
          2   -1    0    0  501    0  0.00000000000E+00 -0.00000000000E+00 -0.29703437117E+03  0.29703437117E+03  0.00000000000E+00 0. -1.
         25    2    1    2    0    0 -0.26280762275E+02 -0.23271255860E+02 -0.11967998794E+03  0.17664054482E+03  0.12508538183E+03 0.  0.
          5    1    3    3  502    0 -0.48553499562E+00  0.21125696962E+02 -0.12313817100E+03  0.12500804924E+03  0.41800000000E+01 0.  1.
         -5    1    3    3    0  502 -0.25795227279E+02 -0.44396952822E+02  0.34581830646E+01  0.51632495585E+02  0.41800000000E+01 0.  1.
        -11    1    1    2    0    0  0.44135760747E+02  0.45410276667E+02 -0.63553467385E+02  0.89716786726E+02  0.00000000000E+00 0.  1.
         11    1    1    2    0    0 -0.17854998473E+02 -0.22139020807E+02 -0.69439459949E+02  0.75038495526E+02  0.00000000000E+00 0. -1.
</event>
<event>
 7    1  0.2688177E-009  0.2263160E+03  0.7561462E-02  0.1129260E+00
         -1   -1    0    0    0  501 -0.00000000000E+00  0.00000000000E+00  0.76333757336E+03  0.76333757336E+03  0.00000000000E+00 0.  1.
          1   -1    0    0  501    0  0.00000000000E+00 -0.00000000000E+00 -0.95787658105E+02  0.95787658105E+02  0.00000000000E+00 0. -1.
         25    2    1    2    0    0  0.72868286956E+02 -0.20032051671E+03  0.14253062678E+03  0.28528855684E+03  0.12504592930E+03 0.  0.
          5    1    3    3  502    0  0.14515321796E+02  0.10764428440E+02  0.38632701166E+02  0.42854702027E+02  0.41800000000E+01 0.  1.
         -5    1    3    3    0  502  0.58352965159E+02 -0.21108494515E+03  0.10389792562E+03  0.24243385481E+03  0.41800000000E+01 0.  1.
        -11    1    1    2    0    0 -0.25592475877E+02  0.11175688171E+03  0.38387980024E+03  0.40063484180E+03  0.00000000000E+00 0.  1.
         11    1    1    2    0    0 -0.47275811079E+02  0.88563634994E+02  0.14113948823E+03  0.17320183283E+03  0.00000000000E+00 0. -1.
</event>
<event>
 7    1  0.2688177E-009  0.1934158E+03  0.7561462E-02  0.1155416E+00
          3   -1    0    0  501    0  0.00000000000E+00  0.00000000000E+00  0.14213339359E+03  0.14213339359E+03  0.00000000000E+00 0. -1.
         -3   -1    0    0    0  501 -0.00000000000E+00 -0.00000000000E+00 -0.28774024821E+03  0.28774024821E+03  0.00000000000E+00 0.  1.
         25    2    1    2    0    0 -0.10849903772E+03  0.12467402556E+03 -0.11680307721E+03  0.23792111924E+03  0.12509135182E+03 0.  0.
          5    1    3    3  502    0 -0.10249433007E+03  0.22771480656E+02 -0.61404214170E+02  0.12170282637E+03  0.41800000000E+01 0. -1.
         -5    1    3    3    0  502 -0.60047076425E+01  0.10190254490E+03 -0.55398863039E+02  0.11621829287E+03  0.41800000000E+01 0. -1.
        -11    1    1    2    0    0  0.44794268893E+02 -0.10296703418E+03 -0.47773245722E+02  0.12202876571E+03  0.00000000000E+00 0.  1.
         11    1    1    2    0    0  0.63704768824E+02 -0.21706991378E+02  0.18969468307E+02  0.69923756860E+02  0.00000000000E+00 0. -1.
</event>
<event>
 7    1  0.2688177E-009  0.1417637E+03  0.7561462E-02  0.1210975E+00
          1   -1    0    0  501    0  0.00000000000E+00  0.00000000000E+00  0.55066662516E+03  0.55066662516E+03  0.00000000000E+00 0. -1.
         -1   -1    0    0    0  501 -0.00000000000E+00 -0.00000000000E+00 -0.52469071122E+02  0.52469071122E+02  0.00000000000E+00 0.  1.
         25    2    1    2    0    0 -0.12499623273E+03  0.16449356021E+01  0.19483132701E+03  0.26312632986E+03  0.12509778363E+03 0.  0.
          5    1    3    3  502    0 -0.26965436447E+01 -0.14621494361E+02 -0.13798068772E+02  0.20710348785E+02  0.41800000000E+01 0. -1.
         -5    1    3    3    0  502 -0.12229968909E+03  0.16266429963E+02  0.20862939579E+03  0.24241598107E+03  0.41800000000E+01 0. -1.
        -11    1    1    2    0    0  0.15514907529E+02  0.27292745100E+02  0.12379581352E+03  0.12771456352E+03  0.00000000000E+00 0.  1.
         11    1    1    2    0    0  0.10948132520E+03 -0.28937680702E+02  0.17957041350E+03  0.21229480290E+03  0.00000000000E+00 0. -1.
</event>
<event>
 7    1  0.2688177E-009  0.1003655E+03  0.7561462E-02  0.1279529E+00
         -1   -1    0    0    0  501 -0.00000000000E+00  0.00000000000E+00  0.38189466531E+02  0.38189466531E+02  0.00000000000E+00 0.  1.
          1   -1    0    0  501    0  0.00000000000E+00 -0.00000000000E+00 -0.40580299991E+03  0.40580299991E+03  0.00000000000E+00 0. -1.
         25    2    1    2    0    0 -0.13194755944E+02  0.59129188664E+02 -0.22222944539E+03  0.26211394474E+03  0.12508969220E+03 0.  0.
          5    1    3    3  502    0  0.16483315224E+02 -0.30920952659E+02 -0.10790884691E+03  0.11353235942E+03  0.41800000000E+01 0.  1.
         -5    1    3    3    0  502 -0.29678071167E+02  0.90050141323E+02 -0.11432059849E+03  0.14858158533E+03  0.41800000000E+01 0.  1.
        -11    1    1    2    0    0 -0.11062919748E+02 -0.71432424440E+01  0.98100066572E+01  0.16421033359E+02  0.00000000000E+00 0.  1.
         11    1    1    2    0    0  0.24257675692E+02 -0.51985946220E+02 -0.15519409465E+03  0.16545748834E+03  0.00000000000E+00 0. -1.
</event>
<event>
 7    1  0.2688177E-009  0.1043014E+03  0.7561462E-02  0.1271502E+00
         -1   -1    0    0    0  501 -0.00000000000E+00  0.00000000000E+00  0.77991819171E+02  0.77991819171E+02  0.00000000000E+00 0.  1.
          1   -1    0    0  501    0  0.00000000000E+00 -0.00000000000E+00 -0.32801773952E+03  0.32801773952E+03  0.00000000000E+00 0. -1.
         25    2    1    2    0    0 -0.54964563262E+02 -0.21417464477E+02 -0.26346457616E+03  0.29755803261E+03  0.12508952346E+03 0.  0.
          5    1    3    3  502    0 -0.85505539062E+01  0.34154327511E+02 -0.14605395141E+02  0.38346056212E+02  0.41800000000E+01 0. -1.
         -5    1    3    3    0  502 -0.46414009356E+02 -0.55571791988E+02 -0.24885918102E+03  0.25921197640E+03  0.41800000000E+01 0. -1.
        -11    1    1    2    0    0 -0.14891026071E+02  0.26694552678E+02  0.22302471036E+02  0.37838366963E+02  0.00000000000E+00 0. -1.
         11    1    1    2    0    0  0.69855589333E+02 -0.52770882006E+01 -0.88638152283E+01  0.70613159123E+02  0.00000000000E+00 0.  1.
</event>
<event>
 7    1  0.2688177E-009  0.1257068E+03  0.7561462E-02  0.1233969E+00
         -2   -1    0    0    0  501 -0.00000000000E+00  0.00000000000E+00  0.21280849902E+02  0.21280849902E+02  0.00000000000E+00 0.  1.
          2   -1    0    0  501    0  0.00000000000E+00 -0.00000000000E+00 -0.81605504108E+03  0.81605504108E+03  0.00000000000E+00 0. -1.
         25    2    1    2    0    0  0.47164302200E+02  0.85696718916E+02 -0.52805767927E+03  0.55141883745E+03  0.12509765235E+03 0.  0.
          5    1    3    3  502    0  0.47233890819E+02  0.11338965185E+03 -0.34516136866E+03  0.36639063362E+03  0.41800000000E+01 0.  1.
         -5    1    3    3    0  502 -0.69588619113E-01 -0.27692932939E+02 -0.18289631061E+03  0.18502820383E+03  0.41800000000E+01 0.  1.
        -11    1    1    2    0    0 -0.27867919618E+02 -0.70914861608E+02 -0.17181385074E+03  0.18795089211E+03  0.00000000000E+00 0.  1.
         11    1    1    2    0    0 -0.19296382582E+02 -0.14781857308E+02 -0.94902661168E+02  0.97966161418E+02  0.00000000000E+00 0. -1.
</event>
<event>
 7    1  0.2688177E-009  0.1384920E+03  0.7561462E-02  0.1215373E+00
         -2   -1    0    0    0  501 -0.00000000000E+00  0.00000000000E+00  0.80472303851E+02  0.80472303851E+02  0.00000000000E+00 0.  1.
          2   -1    0    0  501    0  0.00000000000E+00 -0.00000000000E+00 -0.28192472067E+03  0.28192472067E+03  0.00000000000E+00 0. -1.
         25    2    1    2    0    0 -0.30299180679E+02 -0.98458478597E+02 -0.12371454287E+03  0.20387410409E+03  0.12508896771E+03 0.  0.
          5    1    3    3  502    0 -0.67435626439E+02 -0.22604916463E+02 -0.29046996671E+02  0.76939888076E+02  0.41800000000E+01 0. -1.
         -5    1    3    3    0  502  0.37136445760E+02 -0.75853562134E+02 -0.94667546198E+02  0.12693421601E+03  0.41800000000E+01 0. -1.
        -11    1    1    2    0    0 -0.20067123861E+02  0.32361063353E+02  0.82293767211E+01  0.38957034315E+02  0.00000000000E+00 0.  1.
         11    1    1    2    0    0  0.50366304539E+02  0.66097415244E+02 -0.85967250673E+02  0.11956588612E+03  0.00000000000E+00 0. -1.
</event>
<event>
 7    1  0.2688177E-009  0.8255641E+02  0.7561462E-02  0.1321949E+00
         -2   -1    0    0    0  501 -0.00000000000E+00  0.00000000000E+00  0.58564553729E+02  0.58564553729E+02  0.00000000000E+00 0.  1.
          2   -1    0    0  501    0  0.00000000000E+00 -0.00000000000E+00 -0.24188132828E+03  0.24188132828E+03  0.00000000000E+00 0. -1.
         25    2    1    2    0    0 -0.47129752297E+01 -0.24535635537E+02 -0.50280677991E+02  0.13711532507E+03  0.12509299038E+03 0.  0.
          5    1    3    3  502    0  0.31631819634E+02 -0.21490623089E+02  0.30036114157E+02  0.48806346388E+02  0.41800000000E+01 0.  1.
         -5    1    3    3    0  502 -0.36344794864E+02 -0.30450124485E+01 -0.80316792148E+02  0.88308978679E+02  0.41800000000E+01 0.  1.
        -11    1    1    2    0    0 -0.36680126586E+02  0.31015547171E+02 -0.96271555412E+02  0.10759000062E+03  0.00000000000E+00 0.  1.
         11    1    1    2    0    0  0.41393101816E+02 -0.64799116332E+01 -0.36764541146E+02  0.55740556316E+02  0.00000000000E+00 0. -1.
</event>
<event>
 7    1  0.2688177E-009  0.1569827E+03  0.7561462E-02  0.1192146E+00
         -1   -1    0    0    0  501 -0.00000000000E+00  0.00000000000E+00  0.59980024598E+03  0.59980024598E+03  0.00000000000E+00 0.  1.
          1   -1    0    0  501    0  0.00000000000E+00 -0.00000000000E+00 -0.56276384504E+02  0.56276384504E+02  0.00000000000E+00 0. -1.
         25    2    1    2    0    0  0.11961966184E+03  0.55599658501E+02  0.17016032338E+03  0.24900283288E+03  0.12509072549E+03 0.  0.
          5    1    3    3  502    0  0.14579975553E+03  0.41145372286E+02  0.14387577861E+03  0.20896942945E+03  0.41800000000E+01 0. -1.
         -5    1    3    3    0  502 -0.26180093696E+02  0.14454286215E+02  0.26284544775E+02  0.40033403427E+02  0.41800000000E+01 0. -1.
        -11    1    1    2    0    0 -0.53180385122E+02 -0.19798287033E+02  0.52004204326E+02  0.76971181612E+02  0.00000000000E+00 0. -1.
         11    1    1    2    0    0 -0.66439276715E+02 -0.35801371467E+02  0.32135933377E+03  0.33010261600E+03  0.00000000000E+00 0.  1.
</event>
<event>
 7    1  0.2688177E-009  0.1314679E+03  0.7561462E-02  0.1225294E+00
         -2   -1    0    0    0  501 -0.00000000000E+00  0.00000000000E+00  0.14566673269E+03  0.14566673269E+03  0.00000000000E+00 0.  1.
          2   -1    0    0  501    0  0.00000000000E+00 -0.00000000000E+00 -0.18732327704E+03  0.18732327704E+03  0.00000000000E+00 0. -1.
         25    2    1    2    0    0 -0.98039458107E+02 -0.21945657678E+02 -0.95050584373E+02  0.18648244839E+03  0.12509093784E+03 0.  0.
          5    1    3    3  502    0 -0.91573283957E+02  0.20364173744E+02 -0.10649351969E+03  0.14198136512E+03  0.41800000000E+01 0. -1.
         -5    1    3    3    0  502 -0.64661741494E+01 -0.42309831422E+02  0.11442935314E+02  0.44501083264E+02  0.41800000000E+01 0. -1.
        -11    1    1    2    0    0  0.82189588299E+02 -0.17045237225E+02  0.75572592052E+01  0.84277996556E+02  0.00000000000E+00 0. -1.
         11    1    1    2    0    0  0.15849869808E+02  0.38990894903E+02  0.45836780815E+02  0.62229564788E+02  0.00000000000E+00 0.  1.
</event>
<event>
 7    1  0.2688177E-009  0.1099739E+03  0.7561462E-02  0.1260618E+00
         -1   -1    0    0    0  501 -0.00000000000E+00  0.00000000000E+00  0.30720135981E+02  0.30720135981E+02  0.00000000000E+00 0. -1.
          1   -1    0    0  501    0  0.00000000000E+00 -0.00000000000E+00 -0.44119412139E+03  0.44119412139E+03  0.00000000000E+00 0.  1.
         25    2    1    2    0    0  0.78933647839E+01 -0.30700004551E+02 -0.18547505957E+03  0.22594774019E+03  0.12508632255E+03 0.  0.
          5    1    3    3  502    0  0.62762535358E+02 -0.33066681004E+02 -0.80343177173E+02  0.10726154835E+03  0.41800000000E+01 0. -1.
         -5    1    3    3    0  502 -0.54869170574E+02  0.23666764530E+01 -0.10513188239E+03  0.11868619184E+03  0.41800000000E+01 0. -1.
        -11    1    1    2    0    0  0.49340170736E+01  0.60844969517E+02 -0.10381646449E+03  0.12043385379E+03  0.00000000000E+00 0.  1.
         11    1    1    2    0    0 -0.12827381858E+02 -0.30144964966E+02 -0.12118246135E+03  0.12553266339E+03  0.00000000000E+00 0. -1.
</event>
<event>
 7    1  0.2688177E-009  0.1055253E+03  0.7561462E-02  0.1269088E+00
          1   -1    0    0  501    0  0.00000000000E+00  0.00000000000E+00  0.57183110637E+03  0.57183110637E+03  0.00000000000E+00 0. -1.
         -1   -1    0    0    0  501 -0.00000000000E+00 -0.00000000000E+00 -0.44792946095E+02  0.44792946095E+02  0.00000000000E+00 0.  1.
         25    2    1    2    0    0 -0.48228764888E+02 -0.54624170969E+02  0.46349712735E+03  0.48557906471E+03  0.12509047609E+03 0.  0.
          5    1    3    3  502    0 -0.18167090749E+02 -0.66283619325E+02  0.44026912369E+03  0.44562084225E+03  0.41800000000E+01 0.  1.
         -5    1    3    3    0  502 -0.30061674139E+02  0.11659448356E+02  0.23228003661E+02  0.39958222459E+02  0.41800000000E+01 0.  1.
        -11    1    1    2    0    0  0.71250689124E+02  0.34772161363E+02  0.27548450892E+02  0.83932598274E+02  0.00000000000E+00 0.  1.
         11    1    1    2    0    0 -0.23021924236E+02  0.19852009606E+02  0.35992582032E+02  0.47112389477E+02  0.00000000000E+00 0. -1.
</event>
<event>
 7    1  0.2688177E-009  0.1068549E+03  0.7561462E-02  0.1266507E+00
          1   -1    0    0  501    0  0.00000000000E+00  0.00000000000E+00  0.48640427824E+03  0.48640427824E+03  0.00000000000E+00 0. -1.
         -1   -1    0    0    0  501 -0.00000000000E+00 -0.00000000000E+00 -0.25429744158E+02  0.25429744158E+02  0.00000000000E+00 0.  1.
         25    2    1    2    0    0 -0.18576248321E+02  0.21944432974E+02  0.31616767168E+03  0.34122751468E+03  0.12509030746E+03 0.  0.
          5    1    3    3  502    0 -0.37000742947E+02  0.68378974538E+02  0.17965709699E+03  0.19580317678E+03  0.41800000000E+01 0. -1.
         -5    1    3    3    0  502  0.18424494626E+02 -0.46434541564E+02  0.13651057469E+03  0.14542433790E+03  0.41800000000E+01 0. -1.
        -11    1    1    2    0    0  0.47559751129E+02 -0.29242573545E+02  0.66736032949E+02  0.87010092109E+02  0.00000000000E+00 0.  1.
         11    1    1    2    0    0 -0.28983502809E+02  0.72981405705E+01  0.78070829456E+02  0.83596415609E+02  0.00000000000E+00 0. -1.
</event>
<event>
 7    1  0.2688177E-009  0.2191414E+03  0.7561462E-02  0.1134525E+00
         -1   -1    0    0    0  501 -0.00000000000E+00  0.00000000000E+00  0.12631427506E+03  0.12631427506E+03  0.00000000000E+00 0.  1.
          1   -1    0    0  501    0  0.00000000000E+00 -0.00000000000E+00 -0.42068169290E+03  0.42068169290E+03  0.00000000000E+00 0. -1.
         25    2    1    2    0    0  0.14647409331E+03  0.13325871658E+03 -0.20647205795E+03  0.31223391877E+03  0.12508702475E+03 0.  0.
          5    1    3    3  502    0  0.11913103574E+03  0.34671647418E+02 -0.15199310580E+03  0.19624908515E+03  0.41800000000E+01 0.  1.
         -5    1    3    3    0  502  0.27343057579E+02  0.98587069165E+02 -0.54478952150E+02  0.11598483363E+03  0.41800000000E+01 0.  1.
        -11    1    1    2    0    0 -0.52815379702E+02 -0.98645248061E+02 -0.19115210609E+02  0.11351537594E+03  0.00000000000E+00 0. -1.
         11    1    1    2    0    0 -0.93658713612E+02 -0.34613468522E+02 -0.68780149287E+02  0.12124667325E+03  0.00000000000E+00 0.  1.
</event>
<event>
 7    1  0.2688177E-009  0.1040464E+03  0.7561462E-02  0.1272010E+00
         -2   -1    0    0    0  501 -0.00000000000E+00  0.00000000000E+00  0.11588524432E+03  0.11588524432E+03  0.00000000000E+00 0.  1.
          2   -1    0    0  501    0  0.00000000000E+00 -0.00000000000E+00 -0.19401015313E+03  0.19401015313E+03  0.00000000000E+00 0. -1.
         25    2    1    2    0    0  0.59342611989E+02 -0.47679685535E+02  0.29829767343E+02  0.14943895366E+03  0.12508911959E+03 0.  0.
          5    1    3    3  502    0 -0.28899068350E+02 -0.14177232248E+02  0.43180625862E+02  0.54020263934E+02  0.41800000000E+01 0. -1.
         -5    1    3    3    0  502  0.88241680339E+02 -0.33502453287E+02 -0.13350858519E+02  0.95418689723E+02  0.41800000000E+01 0. -1.
        -11    1    1    2    0    0 -0.53772112730E+02  0.27850769764E+02 -0.11262607059E+02  0.61595063128E+02  0.00000000000E+00 0.  1.
         11    1    1    2    0    0 -0.55704992592E+01  0.19828915770E+02 -0.96692069092E+02  0.98861380670E+02  0.00000000000E+00 0. -1.
</event>
<event>
 7    1  0.2688177E-009  0.1703284E+03  0.7561462E-02  0.1177506E+00
          4   -1    0    0  501    0  0.00000000000E+00  0.00000000000E+00  0.10655352549E+04  0.10655352549E+04  0.00000000000E+00 0. -1.
         -4   -1    0    0    0  501 -0.00000000000E+00 -0.00000000000E+00 -0.33007457402E+02  0.33007457402E+02  0.00000000000E+00 0.  1.
         25    2    1    2    0    0 -0.96793545868E+02  0.11561887238E+03  0.46537509248E+03  0.50493342455E+03  0.12508825826E+03 0.  0.
          5    1    3    3  502    0 -0.93728351766E+01  0.62916567821E+02  0.32571632558E+03  0.33189598023E+03  0.41800000000E+01 0.  1.
         -5    1    3    3    0  502 -0.87420710692E+02  0.52702304556E+02  0.13965876690E+03  0.17303744432E+03  0.41800000000E+01 0.  1.
        -11    1    1    2    0    0  0.82518205022E+02 -0.29780073179E+02  0.26238594117E+03  0.27666313278E+03  0.00000000000E+00 0.  1.
         11    1    1    2    0    0  0.14275340846E+02 -0.85838799198E+02  0.30476676390E+03  0.31694615502E+03  0.00000000000E+00 0. -1.
</event>
<event>
 7    1  0.2688177E-009  0.2056482E+03  0.7561462E-02  0.1145059E+00
         -2   -1    0    0    0  501 -0.00000000000E+00  0.00000000000E+00  0.14424979006E+03  0.14424979006E+03  0.00000000000E+00 0.  1.
          2   -1    0    0  501    0  0.00000000000E+00 -0.00000000000E+00 -0.30533805056E+03  0.30533805056E+03  0.00000000000E+00 0. -1.
         25    2    1    2    0    0  0.27760781569E+02  0.17526915739E+03 -0.95173975033E+02  0.23706203008E+03  0.12510148703E+03 0.  0.
          5    1    3    3  502    0  0.98266548222E+01 -0.19080586644E+02 -0.83644200375E+01  0.23410849072E+02  0.41800000000E+01 0.  1.
         -5    1    3    3    0  502  0.17934126747E+02  0.19434974403E+03 -0.86809554995E+02  0.21365118101E+03  0.41800000000E+01 0.  1.
        -11    1    1    2    0    0 -0.51451095324E+02 -0.73489413975E+02 -0.14114579961E+01  0.89721242692E+02  0.00000000000E+00 0.  1.
         11    1    1    2    0    0  0.23690313755E+02 -0.10177974341E+03 -0.64502827471E+02  0.12280456786E+03  0.00000000000E+00 0. -1.
</event>
<event>
 7    1  0.2688177E-009  0.1083263E+03  0.7561462E-02  0.1263701E+00
         -3   -1    0    0    0  501 -0.00000000000E+00  0.00000000000E+00  0.18215180539E+03  0.18215180539E+03  0.00000000000E+00 0.  1.
          3   -1    0    0  501    0  0.00000000000E+00 -0.00000000000E+00 -0.96353651229E+02  0.96353651229E+02  0.00000000000E+00 0. -1.
         25    2    1    2    0    0  0.33609868720E+02  0.41869837492E+02  0.10338153260E+03  0.17092989755E+03  0.12508629833E+03 0.  0.
          5    1    3    3  502    0  0.35318455756E+02 -0.25018703152E+02  0.93563140835E+02  0.10317394316E+03  0.41800000000E+01 0.  1.
         -5    1    3    3    0  502 -0.17085870362E+01  0.66888540643E+02  0.98183917625E+01  0.67755954394E+02  0.41800000000E+01 0.  1.
        -11    1    1    2    0    0 -0.58603210813E+02 -0.14690134236E+01 -0.95617595228E+01  0.59396309339E+02  0.00000000000E+00 0. -1.
         11    1    1    2    0    0  0.24993342092E+02 -0.40400824068E+02 -0.80216189111E+01  0.48179249727E+02  0.00000000000E+00 0.  1.
</event>
<event>
 7    1  0.2688177E-009  0.1116823E+03  0.7561462E-02  0.1257486E+00
         -1   -1    0    0    0  501 -0.00000000000E+00  0.00000000000E+00  0.36587588348E+02  0.36587588348E+02  0.00000000000E+00 0. -1.
          1   -1    0    0  501    0  0.00000000000E+00 -0.00000000000E+00 -0.40897952775E+03  0.40897952775E+03  0.00000000000E+00 0.  1.
         25    2    1    2    0    0  0.57060920924E+02  0.19536575764E+01 -0.19689846955E+03  0.24016006261E+03  0.12509229746E+03 0.  0.
          5    1    3    3  502    0  0.70220300795E+02  0.49746768515E+02 -0.14183117779E+03  0.16594935075E+03  0.41800000000E+01 0. -1.
         -5    1    3    3    0  502 -0.13159379871E+02 -0.47793110939E+02 -0.55067291763E+02  0.74210711854E+02  0.41800000000E+01 0. -1.
        -11    1    1    2    0    0 -0.52212942586E+02  0.26529816680E+02 -0.16429182671E+03  0.17441853935E+03  0.00000000000E+00 0.  1.
         11    1    1    2    0    0 -0.48479783378E+01 -0.28483474256E+02 -0.11201643141E+02  0.30988514142E+02  0.00000000000E+00 0. -1.
</event>
<event>
 7    1  0.2688177E-009  0.2665631E+03  0.7561462E-02  0.1103263E+00
         -1   -1    0    0    0  501 -0.00000000000E+00  0.00000000000E+00  0.52763895680E+02  0.52763895680E+02  0.00000000000E+00 0.  1.
          1   -1    0    0  501    0  0.00000000000E+00 -0.00000000000E+00 -0.16992570914E+04  0.16992570914E+04  0.00000000000E+00 0. -1.
         25    2    1    2    0    0  0.24557572163E+03  0.96521318899E+02 -0.11071090718E+04  0.11449721808E+04  0.12508796091E+03 0.  0.
          5    1    3    3  502    0  0.15254277554E+03  0.62009926302E+02 -0.42734087348E+03  0.45798714379E+03  0.41800000000E+01 0.  1.
         -5    1    3    3    0  502  0.93032946089E+02  0.34511392596E+02 -0.67976819828E+03  0.68698503700E+03  0.41800000000E+01 0.  1.
        -11    1    1    2    0    0 -0.13797967493E+03 -0.25898183887E+02 -0.35885519990E+03  0.38533902102E+03  0.00000000000E+00 0. -1.
         11    1    1    2    0    0 -0.10759604670E+03 -0.70623135011E+02 -0.18052892408E+03  0.22170978529E+03  0.00000000000E+00 0.  1.
</event>
<event>
 7    1  0.2688177E-009  0.1708322E+03  0.7561462E-02  0.1176983E+00
         -1   -1    0    0    0  501 -0.00000000000E+00  0.00000000000E+00  0.39005126799E+03  0.39005126799E+03  0.00000000000E+00 0.  1.
          1   -1    0    0  501    0  0.00000000000E+00 -0.00000000000E+00 -0.11439939477E+03  0.11439939477E+03  0.00000000000E+00 0. -1.
         25    2    1    2    0    0 -0.35133118451E+02 -0.13580159858E+03  0.68359917941E+01  0.18807485546E+03  0.12509600426E+03 0.  0.
          5    1    3    3  502    0 -0.78720553346E+02 -0.56445947667E+02 -0.22769765324E+01  0.96983130231E+02  0.41800000000E+01 0.  1.
         -5    1    3    3    0  502  0.43587434896E+02 -0.79355650916E+02  0.91129683265E+01  0.91091725227E+02  0.41800000000E+01 0.  1.
        -11    1    1    2    0    0  0.46031977347E+02  0.51515632177E+02  0.62187794053E+02  0.92952272840E+02  0.00000000000E+00 0. -1.
         11    1    1    2    0    0 -0.10898858896E+02  0.84285966406E+02  0.20662808738E+03  0.22342353446E+03  0.00000000000E+00 0.  1.
</event>
<event>
 7    1  0.2688177E-009  0.9447961E+02  0.7561462E-02  0.1292352E+00
          1   -1    0    0  501    0  0.00000000000E+00  0.00000000000E+00  0.65644657571E+03  0.65644657571E+03  0.00000000000E+00 0. -1.
         -1   -1    0    0    0  501 -0.00000000000E+00 -0.00000000000E+00 -0.23186177493E+02  0.23186177493E+02  0.00000000000E+00 0.  1.
         25    2    1    2    0    0  0.68148540972E+01 -0.57048224564E+02  0.31771145938E+03  0.34625056458E+03  0.12509172591E+03 0.  0.
          5    1    3    3  502    0  0.30702875063E+02 -0.13681347728E+02  0.11107711934E+02  0.35646871913E+02  0.41800000000E+01 0. -1.
         -5    1    3    3    0  502 -0.23888020966E+02 -0.43366876836E+02  0.30660374745E+03  0.31060369267E+03  0.41800000000E+01 0. -1.
        -11    1    1    2    0    0 -0.46209505084E+02  0.17037370644E+02  0.18114600408E+03  0.18772177591E+03  0.00000000000E+00 0. -1.
         11    1    1    2    0    0  0.39394650987E+02  0.40010853920E+02  0.13440293476E+03  0.14566041271E+03  0.00000000000E+00 0.  1.
</event>
<event>
 7    1  0.2688177E-009  0.7179182E+02  0.7561462E-02  0.1354104E+00
          2   -1    0    0  501    0  0.00000000000E+00  0.00000000000E+00  0.43050824186E+02  0.43050824186E+02  0.00000000000E+00 0. -1.
         -2   -1    0    0    0  501 -0.00000000000E+00 -0.00000000000E+00 -0.42536657631E+03  0.42536657631E+03  0.00000000000E+00 0.  1.
         25    2    1    2    0    0 -0.13361496692E+02 -0.43223782665E+02 -0.32522349638E+03  0.35137522932E+03  0.12508958470E+03 0.  0.
          5    1    3    3  502    0 -0.39594928946E+02 -0.18259029267E+02 -0.28137322350E+02  0.52060847641E+02  0.41800000000E+01 0. -1.
         -5    1    3    3    0  502  0.26233432254E+02 -0.24964753398E+02 -0.29708617403E+03  0.29931438168E+03  0.41800000000E+01 0. -1.
        -11    1    1    2    0    0 -0.12951222340E+02  0.32368695197E+02  0.16180243611E+02  0.38435229571E+02  0.00000000000E+00 0. -1.
         11    1    1    2    0    0  0.26312719033E+02  0.10855087468E+02 -0.73272499353E+02  0.78606941604E+02  0.00000000000E+00 0.  1.
</event>
<event>
 7    1  0.2688177E-009  0.9336465E+02  0.7561462E-02  0.1294902E+00
         -1   -1    0    0    0  501 -0.00000000000E+00  0.00000000000E+00  0.16436501877E+03  0.16436501877E+03  0.00000000000E+00 0.  1.
          1   -1    0    0  501    0  0.00000000000E+00 -0.00000000000E+00 -0.92032835664E+02  0.92032835664E+02  0.00000000000E+00 0. -1.
         25    2    1    2    0    0 -0.21472442063E+02  0.50975613997E+02  0.60228924777E+02  0.14944685322E+03  0.12508900657E+03 0.  0.
          5    1    3    3  502    0  0.19949012809E+02  0.71360609376E+02  0.98204937805E+00  0.74220862994E+02  0.41800000000E+01 0. -1.
         -5    1    3    3    0  502 -0.41421454872E+02 -0.20384995379E+02  0.59246875399E+02  0.75225990222E+02  0.41800000000E+01 0. -1.
        -11    1    1    2    0    0  0.14540284719E+02  0.17568551741E+00 -0.34479681987E+02  0.37420572083E+02  0.00000000000E+00 0. -1.
         11    1    1    2    0    0  0.69321573447E+01 -0.51151299514E+02  0.46582940317E+02  0.69530429137E+02  0.00000000000E+00 0.  1.
</event>
<event>
 7    1  0.2688177E-009  0.4008648E+03  0.7561462E-02  0.1043481E+00
         -2   -1    0    0    0  501 -0.00000000000E+00  0.00000000000E+00  0.27055899338E+03  0.27055899338E+03  0.00000000000E+00 0.  1.
          2   -1    0    0  501    0  0.00000000000E+00 -0.00000000000E+00 -0.10427276457E+04  0.10427276457E+04  0.00000000000E+00 0. -1.
         25    2    1    2    0    0  0.26196984111E+03 -0.29049261178E+03  0.34530715923E+02  0.41213401094E+03  0.12509163633E+03 0.  0.
          5    1    3    3  502    0  0.23479599099E+03 -0.20485624828E+03 -0.99638819372E+01  0.31178837565E+03  0.41800000000E+01 0.  1.
         -5    1    3    3    0  502  0.27173850120E+02 -0.85636363499E+02  0.44494597860E+02  0.10034563529E+03  0.41800000000E+01 0.  1.
        -11    1    1    2    0    0 -0.15823023692E+03  0.11252015057E+03 -0.35289943330E+03  0.40278480878E+03  0.00000000000E+00 0. -1.
         11    1    1    2    0    0 -0.10373960419E+03  0.17797246121E+03 -0.45379993490E+03  0.49836781933E+03  0.00000000000E+00 0.  1.
</event>
<event>
 7    1  0.2688177E-009  0.8674028E+02  0.7561462E-02  0.1310943E+00
          1   -1    0    0  501    0  0.00000000000E+00  0.00000000000E+00  0.16423280976E+03  0.16423280976E+03  0.00000000000E+00 0. -1.
         -1   -1    0    0    0  501 -0.00000000000E+00 -0.00000000000E+00 -0.10469601834E+03  0.10469601834E+03  0.00000000000E+00 0.  1.
         25    2    1    2    0    0 -0.61478621278E+02  0.13235968153E+02  0.73913242986E+02  0.15833758240E+03  0.12511119368E+03 0.  0.
          5    1    3    3  502    0 -0.92442333086E+01  0.80838933091E+01  0.99116994525E+02  0.99962273804E+02  0.41800000000E+01 0.  1.
         -5    1    3    3    0  502 -0.52234387970E+02  0.51520748434E+01 -0.25203751538E+02  0.58375308593E+02  0.41800000000E+01 0.  1.
        -11    1    1    2    0    0  0.79743411611E+02 -0.27845656465E+02 -0.28429873278E+01  0.84513163805E+02  0.00000000000E+00 0.  1.
         11    1    1    2    0    0 -0.18264790332E+02  0.14609688313E+02 -0.11533464238E+02  0.26078081904E+02  0.00000000000E+00 0. -1.
</event>
<event>
 7    1  0.2688177E-009  0.1385409E+03  0.7561462E-02  0.1215306E+00
          3   -1    0    0  501    0  0.00000000000E+00  0.00000000000E+00  0.12500942069E+03  0.12500942069E+03  0.00000000000E+00 0. -1.
         -3   -1    0    0    0  501 -0.00000000000E+00 -0.00000000000E+00 -0.19924825942E+03  0.19924825942E+03  0.00000000000E+00 0.  1.
         25    2    1    2    0    0  0.46177916574E+01 -0.11346559818E+03 -0.46380999787E+02  0.17519877630E+03  0.12509055963E+03 0.  0.
          5    1    3    3  502    0 -0.16782428600E+02 -0.10638517789E+03 -0.80196681422E+02  0.13434446805E+03  0.41800000000E+01 0. -1.
         -5    1    3    3    0  502  0.21400220258E+02 -0.70804202826E+01  0.33815681634E+02  0.40854308253E+02  0.41800000000E+01 0. -1.
        -11    1    1    2    0    0 -0.31589716987E+02  0.19569757739E+01 -0.43022571700E+01  0.31941342962E+02  0.00000000000E+00 0. -1.
         11    1    1    2    0    0  0.26971925329E+02  0.11150862240E+03 -0.23555581770E+02  0.11711756085E+03  0.00000000000E+00 0.  1.
</event>
<event>
 7    1  0.2688177E-009  0.8619148E+02  0.7561462E-02  0.1312346E+00
         -1   -1    0    0    0  501 -0.00000000000E+00  0.00000000000E+00  0.31515886889E+02  0.31515886889E+02  0.00000000000E+00 0.  1.
          1   -1    0    0  501    0  0.00000000000E+00 -0.00000000000E+00 -0.43579836848E+03  0.43579836848E+03  0.00000000000E+00 0. -1.
         25    2    1    2    0    0  0.87326373525E+01  0.44612018797E+02 -0.20582840252E+03  0.24511127786E+03  0.12509083129E+03 0.  0.
          5    1    3    3  502    0  0.53478639605E+02  0.18457154882E+02 -0.35260677550E+02  0.66793856317E+02  0.41800000000E+01 0. -1.
         -5    1    3    3    0  502 -0.44746002253E+02  0.26154863915E+02 -0.17056772497E+03  0.17831742155E+03  0.41800000000E+01 0. -1.
        -11    1    1    2    0    0  0.17871143869E+02 -0.24407295620E+02 -0.11619551175E+02  0.32405367336E+02  0.00000000000E+00 0.  1.
         11    1    1    2    0    0 -0.26603781221E+02 -0.20204723177E+02 -0.18683452789E+03  0.18979761017E+03  0.00000000000E+00 0. -1.
</event>
<event>
 7    1  0.2688177E-009  0.2382461E+03  0.7561462E-02  0.1120967E+00
          1   -1    0    0  501    0  0.00000000000E+00  0.00000000000E+00  0.18011528372E+04  0.18011528372E+04  0.00000000000E+00 0. -1.
         -1   -1    0    0    0  501 -0.00000000000E+00 -0.00000000000E+00 -0.49776096694E+02  0.49776096694E+02  0.00000000000E+00 0.  1.
         25    2    1    2    0    0 -0.20015859093E+03 -0.10094762312E+03  0.14118802244E+04  0.14350285061E+04  0.12508861251E+03 0.  0.
          5    1    3    3  502    0 -0.11196127059E+03 -0.11598989400E+03  0.75199276578E+03  0.76909009472E+03  0.41800000000E+01 0. -1.
         -5    1    3    3    0  502 -0.88197320340E+02  0.15042270876E+02  0.65988745863E+03  0.66593841133E+03  0.41800000000E+01 0. -1.
        -11    1    1    2    0    0  0.10745354202E+03  0.39722761447E+02  0.10070931758E+03  0.15253369503E+03  0.00000000000E+00 0.  1.
         11    1    1    2    0    0  0.92705048907E+02  0.61224861676E+02  0.23878719855E+03  0.26336673285E+03  0.00000000000E+00 0. -1.
</event>
<event>
 7    1  0.2688177E-009  0.6246800E+02  0.7561462E-02  0.1387757E+00
         -2   -1    0    0    0  501 -0.00000000000E+00  0.00000000000E+00  0.34764330734E+03  0.34764330734E+03  0.00000000000E+00 0.  1.
          2   -1    0    0  501    0  0.00000000000E+00 -0.00000000000E+00 -0.39947250282E+02  0.39947250282E+02  0.00000000000E+00 0. -1.
         25    2    1    2    0    0  0.24914393889E+02  0.85075273102E+01  0.23083757194E+03  0.26387386978E+03  0.12510127693E+03 0.  0.
          5    1    3    3  502    0  0.49481616634E+02  0.19047980766E+02  0.23076633298E+03  0.23681602309E+03  0.41800000000E+01 0. -1.
         -5    1    3    3    0  502 -0.24567222745E+02 -0.10540453456E+02  0.71238961464E-01  0.27057846689E+02  0.41800000000E+01 0. -1.
        -11    1    1    2    0    0 -0.22263362471E+02 -0.21787483301E+02  0.95627002941E+02  0.10057273700E+03  0.00000000000E+00 0.  1.
         11    1    1    2    0    0 -0.26510314175E+01  0.13279955990E+02 -0.18768517828E+02  0.23143950833E+02  0.00000000000E+00 0. -1.
</event>
<event>
 7    1  0.2688177E-009  0.1216684E+03  0.7561462E-02  0.1240370E+00
         -2   -1    0    0    0  501 -0.00000000000E+00  0.00000000000E+00  0.22726265083E+02  0.22726265083E+02  0.00000000000E+00 0.  1.
          2   -1    0    0  501    0  0.00000000000E+00 -0.00000000000E+00 -0.71980441569E+03  0.71980441569E+03  0.00000000000E+00 0. -1.
         25    2    1    2    0    0  0.62616120190E+02 -0.20888831649E+02 -0.43780373661E+03  0.46008393226E+03  0.12509193074E+03 0.  0.
          5    1    3    3  502    0  0.84434277986E+02  0.21459509175E+02 -0.34282163335E+03  0.35374256533E+03  0.41800000000E+01 0.  1.
         -5    1    3    3    0  502 -0.21818157796E+02 -0.42348340823E+02 -0.94982103257E+02  0.10634136692E+03  0.41800000000E+01 0.  1.
        -11    1    1    2    0    0  0.12100811002E+02 -0.19810493454E+02 -0.90623317604E+02  0.93549297011E+02  0.00000000000E+00 0. -1.
         11    1    1    2    0    0 -0.74716931191E+02  0.40699325102E+02 -0.16865109639E+03  0.18889745150E+03  0.00000000000E+00 0.  1.
</event>
<event>
 7    1  0.2688177E-009  0.1049427E+03  0.7561462E-02  0.1270233E+00
         -2   -1    0    0    0  501 -0.00000000000E+00  0.00000000000E+00  0.14773055805E+03  0.14773055805E+03  0.00000000000E+00 0.  1.
          2   -1    0    0  501    0  0.00000000000E+00 -0.00000000000E+00 -0.11317022451E+03  0.11317022451E+03  0.00000000000E+00 0. -1.
         25    2    1    2    0    0  0.55943292527E+02 -0.42089608610E+02  0.24514146783E+02  0.14544165063E+03  0.12510452915E+03 0.  0.
          5    1    3    3  502    0  0.84614963631E+02 -0.17238519089E+01 -0.94403466478E+01  0.85259933618E+02  0.41800000000E+01 0.  1.
         -5    1    3    3    0  502 -0.28671671104E+02 -0.40365756701E+02  0.33954493431E+02  0.60181717008E+02  0.41800000000E+01 0.  1.
        -11    1    1    2    0    0 -0.12327983891E+02  0.26353085173E+02 -0.38546456864E+02  0.48293825917E+02  0.00000000000E+00 0. -1.
         11    1    1    2    0    0 -0.43615308636E+02  0.15736523438E+02  0.48592643630E+02  0.67165306016E+02  0.00000000000E+00 0.  1.
</event>
<event>
 7    1  0.2924717E-009  0.8728531E+02  0.7561462E-02  0.1309562E+00
         -3   -1    0    0    0  501 -0.00000000000E+00  0.00000000000E+00  0.87252052552E+02  0.87252052552E+02  0.00000000000E+00 0.  1.
          3   -1    0    0  501    0  0.00000000000E+00 -0.00000000000E+00 -0.15571999452E+03  0.15571999452E+03  0.00000000000E+00 0. -1.
         25    2    1    2    0    0  0.34041275181E+01 -0.70860198098E+01 -0.81720822342E+02  0.14963194965E+03  0.12509847238E+03 0.  0.
          5    1    3    3  502    0  0.63770392663E+02  0.14762943826E+01 -0.36539665204E+02  0.73630577607E+02  0.41800000000E+01 0.  1.
         -5    1    3    3    0  502 -0.60366265145E+02 -0.85623141924E+01 -0.45181157139E+02  0.76001372042E+02  0.41800000000E+01 0.  1.
        -11    1    1    2    0    0 -0.13566543311E+02  0.25281564144E+02  0.46182520547E+02  0.54369419595E+02  0.00000000000E+00 0.  1.
         11    1    1    2    0    0  0.10162415792E+02 -0.18195544334E+02 -0.32929640169E+02  0.38970677823E+02  0.00000000000E+00 0. -1.
</event>
<event>
 7    1  0.2688177E-009  0.1652358E+03  0.7561462E-02  0.1182909E+00
         -1   -1    0    0    0  501 -0.00000000000E+00  0.00000000000E+00  0.11365467052E+03  0.11365467052E+03  0.00000000000E+00 0. -1.
          1   -1    0    0  501    0  0.00000000000E+00 -0.00000000000E+00 -0.42337817935E+03  0.42337817935E+03  0.00000000000E+00 0.  1.
         25    2    1    2    0    0 -0.29488849234E+02  0.13018681755E+03  0.54865064099E+01  0.18302289377E+03  0.12509627571E+03 0.  0.
          5    1    3    3  502    0  0.40975608279E+02  0.95776797698E+02  0.68480452329E+01  0.10448236011E+03  0.41800000000E+01 0.  1.
         -5    1    3    3    0  502 -0.70464457512E+02  0.34410019851E+02 -0.13615388230E+01  0.78540533654E+02  0.41800000000E+01 0.  1.
        -11    1    1    2    0    0  0.35512481569E+01 -0.11962794718E+03 -0.29801326822E+03  0.32114695257E+03  0.00000000000E+00 0.  1.
         11    1    1    2    0    0  0.25937601077E+02 -0.10558870371E+02 -0.17196747024E+02  0.32863003535E+02  0.00000000000E+00 0. -1.
</event>
<event>
 7    1  0.2688177E-009  0.1021057E+03  0.7561462E-02  0.1275929E+00
         -2   -1    0    0    0  501 -0.00000000000E+00  0.00000000000E+00  0.61680210811E+02  0.61680210811E+02  0.00000000000E+00 0.  1.
          2   -1    0    0  501    0  0.00000000000E+00 -0.00000000000E+00 -0.23198492259E+03  0.23198492259E+03  0.00000000000E+00 0. -1.
         25    2    1    2    0    0 -0.39343977435E+02  0.12735795035E+02 -0.10280075021E+03  0.16710911528E+03  0.12508922069E+03 0.  0.
          5    1    3    3  502    0 -0.78601990395E+01  0.56356176674E+02 -0.97401491705E+02  0.11288190450E+03  0.41800000000E+01 0. -1.
         -5    1    3    3    0  502 -0.31483778395E+02 -0.43620381639E+02 -0.53992585020E+01  0.54227210778E+02  0.41800000000E+01 0. -1.
        -11    1    1    2    0    0 -0.67521398285E+01  0.29751868468E+02  0.47728497136E+01  0.30879526615E+02  0.00000000000E+00 0.  1.
         11    1    1    2    0    0  0.46096117263E+02 -0.42487663503E+02 -0.72276811282E+02  0.95676491501E+02  0.00000000000E+00 0. -1.
</event>
<event>
 7    1  0.2688177E-009  0.2927339E+03  0.7561462E-02  0.1088930E+00
         -1   -1    0    0    0  501 -0.00000000000E+00  0.00000000000E+00  0.18620772732E+03  0.18620772732E+03  0.00000000000E+00 0.  1.
          1   -1    0    0  501    0  0.00000000000E+00 -0.00000000000E+00 -0.51659789914E+03  0.51659789914E+03  0.00000000000E+00 0. -1.
         25    2    1    2    0    0  0.13280876116E+03 -0.24912069481E+03 -0.26237829572E+03  0.40520300012E+03  0.12509122121E+03 0.  0.
          5    1    3    3  502    0  0.36343488891E+01 -0.11854994743E+03 -0.64056463131E+02  0.13486289852E+03  0.41800000000E+01 0.  1.
         -5    1    3    3    0  502  0.12917441227E+03 -0.13057074738E+03 -0.19832183258E+03  0.27034010160E+03  0.41800000000E+01 0.  1.
        -11    1    1    2    0    0 -0.42787208513E+02  0.60877452476E+02  0.94920915373E+01  0.75012727147E+02  0.00000000000E+00 0.  1.
         11    1    1    2    0    0 -0.90021552646E+02  0.18824324233E+03 -0.77503967642E+02  0.22258989920E+03  0.00000000000E+00 0. -1.
</event>
<event>
 7    1  0.2688177E-009  0.1250638E+03  0.7561462E-02  0.1234970E+00
         -1   -1    0    0    0  501 -0.00000000000E+00  0.00000000000E+00  0.72928445290E+02  0.72928445290E+02  0.00000000000E+00 0.  1.
          1   -1    0    0  501    0  0.00000000000E+00 -0.00000000000E+00 -0.26651156659E+03  0.26651156659E+03  0.00000000000E+00 0. -1.
         25    2    1    2    0    0  0.28092888515E+02 -0.81526736122E+02 -0.10814342911E+03  0.18648953719E+03  0.12509007608E+03 0.  0.
          5    1    3    3  502    0 -0.30468003131E+02 -0.80892769027E+02 -0.36663216236E+02  0.93987249776E+02  0.41800000000E+01 0.  1.
         -5    1    3    3    0  502  0.58560891646E+02 -0.63396709541E+00 -0.71480212876E+02  0.92502287418E+02  0.41800000000E+01 0.  1.
        -11    1    1    2    0    0 -0.97423724747E+01  0.85536323977E+02 -0.24980114949E+02  0.89640296093E+02  0.00000000000E+00 0.  1.
         11    1    1    2    0    0 -0.18350516040E+02 -0.40095878544E+01 -0.60459577235E+02  0.63310178590E+02  0.00000000000E+00 0. -1.
</event>
<event>
 7    1  0.2688177E-009  0.1664697E+03  0.7561462E-02  0.1181580E+00
         -2   -1    0    0    0  501 -0.00000000000E+00  0.00000000000E+00  0.37127731381E+02  0.37127731381E+02  0.00000000000E+00 0.  1.
          2   -1    0    0  501    0  0.00000000000E+00 -0.00000000000E+00 -0.86916081751E+03  0.86916081751E+03  0.00000000000E+00 0. -1.
         25    2    1    2    0    0 -0.53899721601E+02  0.13175356619E+03 -0.45660543910E+03  0.49436283878E+03  0.12506761038E+03 0.  0.
          5    1    3    3  502    0 -0.93728822155E+02  0.10659643921E+03 -0.35189245058E+03  0.37946496825E+03  0.41800000000E+01 0.  1.
         -5    1    3    3    0  502  0.39829100554E+02  0.25157126984E+02 -0.10471298852E+03  0.11489787054E+03  0.41800000000E+01 0.  1.
        -11    1    1    2    0    0  0.15632948765E+02 -0.63458021618E+02 -0.66523679406E+02  0.93256150020E+02  0.00000000000E+00 0.  1.
         11    1    1    2    0    0  0.38266772836E+02 -0.68295544570E+02 -0.30890396762E+03  0.31866956009E+03  0.00000000000E+00 0. -1.
</event>
<event>
 7    1  0.2688177E-009  0.1581058E+03  0.7561462E-02  0.1190852E+00
         -2   -1    0    0    0  501 -0.00000000000E+00  0.00000000000E+00  0.68363330260E+02  0.68363330260E+02  0.00000000000E+00 0.  1.
          2   -1    0    0  501    0  0.00000000000E+00 -0.00000000000E+00 -0.95227726368E+03  0.95227726368E+03  0.00000000000E+00 0. -1.
         25    2    1    2    0    0 -0.79141821870E+02  0.86356302586E+02 -0.84293593185E+03  0.86017980608E+03  0.12508986620E+03 0.  0.
          5    1    3    3  502    0  0.39650652357E+01  0.77324324035E+02 -0.55281076306E+03  0.55822216454E+03  0.41800000000E+01 0.  1.
         -5    1    3    3    0  502 -0.83106887106E+02  0.90319785511E+01 -0.29012516878E+03  0.30195764154E+03  0.41800000000E+01 0.  1.
        -11    1    1    2    0    0  0.10382762437E+03 -0.66575293341E+02 -0.29577008421E+02  0.12683550249E+03  0.00000000000E+00 0. -1.
         11    1    1    2    0    0 -0.24685802495E+02 -0.19781009245E+02 -0.11400993157E+02  0.33625285375E+02  0.00000000000E+00 0.  1.
</event>
<event>
 7    1  0.2688177E-009  0.1084688E+03  0.7561462E-02  0.1263432E+00
          3   -1    0    0  501    0  0.00000000000E+00  0.00000000000E+00  0.19036245626E+02  0.19036245626E+02  0.00000000000E+00 0. -1.
         -3   -1    0    0    0  501 -0.00000000000E+00 -0.00000000000E+00 -0.74422507498E+03  0.74422507498E+03  0.00000000000E+00 0.  1.
         25    2    1    2    0    0  0.71903540048E+01  0.45716344820E+02 -0.41045855065E+03  0.43158540260E+03  0.12509217626E+03 0.  0.
          5    1    3    3  502    0 -0.11209285303E+02 -0.31939473083E+02 -0.39822427742E+02  0.52431633286E+02  0.41800000000E+01 0. -1.
         -5    1    3    3    0  502  0.18399639308E+02  0.77655817903E+02 -0.37063612290E+03  0.37915376931E+03  0.41800000000E+01 0. -1.
        -11    1    1    2    0    0  0.42418556470E+02 -0.17900570842E+02 -0.11135705155E+03  0.12049961535E+03  0.00000000000E+00 0. -1.
         11    1    1    2    0    0 -0.49608910475E+02 -0.27815773978E+02 -0.20337322716E+03  0.21117630266E+03  0.00000000000E+00 0.  1.
</event>
<event>
 7    1  0.2688177E-009  0.7885689E+02  0.7561462E-02  0.1332327E+00
         -2   -1    0    0    0  501 -0.00000000000E+00  0.00000000000E+00  0.20734417257E+03  0.20734417257E+03  0.00000000000E+00 0.  1.
          2   -1    0    0  501    0  0.00000000000E+00 -0.00000000000E+00 -0.16219009410E+03  0.16219009410E+03  0.00000000000E+00 0. -1.
         25    2    1    2    0    0  0.36057811113E+02  0.17702694354E+02  0.16678942568E+03  0.21231937743E+03  0.12508898586E+03 0.  0.
          5    1    3    3  502    0  0.20257836404E+01  0.45210172428E+02  0.62564902639E+01  0.45876786731E+02  0.41800000000E+01 0.  1.
         -5    1    3    3    0  502  0.34032027472E+02 -0.27507478073E+02  0.16053293542E+03  0.16644259070E+03  0.41800000000E+01 0.  1.
        -11    1    1    2    0    0  0.18360387078E+00  0.17666489914E+02 -0.10099709247E+03  0.10253073327E+03  0.00000000000E+00 0. -1.
         11    1    1    2    0    0 -0.36241414983E+02 -0.35369184269E+02 -0.20638254735E+02  0.54684155971E+02  0.00000000000E+00 0.  1.
</event>
<event>
 7    1  0.2688177E-009  0.8321849E+02  0.7561462E-02  0.1320158E+00
         -2   -1    0    0    0  501 -0.00000000000E+00  0.00000000000E+00  0.38291448895E+03  0.38291448895E+03  0.00000000000E+00 0.  1.
          2   -1    0    0  501    0  0.00000000000E+00 -0.00000000000E+00 -0.33443534063E+02  0.33443534063E+02  0.00000000000E+00 0. -1.
         25    2    1    2    0    0 -0.17471702547E+02  0.86856680758E+01  0.23730102218E+03  0.26895980311E+03  0.12508756670E+03 0.  0.
          5    1    3    3  502    0 -0.50519588603E+02 -0.23521524742E+02  0.20499137153E+03  0.21247217644E+03  0.41800000000E+01 0. -1.
         -5    1    3    3    0  502  0.33047886056E+02  0.32207192818E+02  0.32309650649E+02  0.56487626672E+02  0.41800000000E+01 0. -1.
        -11    1    1    2    0    0  0.39565778561E+02 -0.13118822083E+02  0.10126699582E+02  0.42896437735E+02  0.00000000000E+00 0. -1.
         11    1    1    2    0    0 -0.22094076014E+02  0.44331540075E+01  0.10204323313E+03  0.10450178217E+03  0.00000000000E+00 0.  1.
</event>
<event>
 7    1  0.2688177E-009  0.9810247E+02  0.7561462E-02  0.1284338E+00
         -2   -1    0    0    0  501 -0.00000000000E+00  0.00000000000E+00  0.12884442634E+03  0.12884442634E+03  0.00000000000E+00 0.  1.
          2   -1    0    0  501    0  0.00000000000E+00 -0.00000000000E+00 -0.13524817601E+03  0.13524817601E+03  0.00000000000E+00 0. -1.
         25    2    1    2    0    0 -0.53281301502E+02 -0.27293694226E+02 -0.46823397336E+02  0.14635028595E+03  0.12506851253E+03 0.  0.
          5    1    3    3  502    0 -0.84972440309E+02  0.11588829384E+02 -0.16034856939E+02  0.87345323948E+02  0.41800000000E+01 0. -1.
         -5    1    3    3    0  502  0.31691138807E+02 -0.38882523609E+02 -0.30788540398E+02  0.59004962003E+02  0.41800000000E+01 0. -1.
        -11    1    1    2    0    0  0.89272919730E+01  0.63710386892E+01 -0.29992531342E+02  0.31934912122E+02  0.00000000000E+00 0. -1.
         11    1    1    2    0    0  0.44354009529E+02  0.20922655537E+02  0.70412179013E+02  0.85807404281E+02  0.00000000000E+00 0.  1.
</event>
<event>
 7    1  0.2688177E-009  0.1537959E+03  0.7561462E-02  0.1195885E+00
          1   -1    0    0  501    0  0.00000000000E+00  0.00000000000E+00  0.37135124239E+03  0.37135124239E+03  0.00000000000E+00 0.  1.
         -1   -1    0    0    0  501 -0.00000000000E+00 -0.00000000000E+00 -0.67048456295E+02  0.67048456295E+02  0.00000000000E+00 0. -1.
         25    2    1    2    0    0 -0.11062770051E+03 -0.19764583164E+02  0.13441994779E+03  0.21528021648E+03  0.12509085648E+03 0.  0.
          5    1    3    3  502    0 -0.12707609654E+03  0.14922952318E+02  0.90376504387E+02  0.15670486196E+03  0.41800000000E+01 0.  1.
         -5    1    3    3    0  502  0.16448396031E+02 -0.34687535482E+02  0.44043443401E+02  0.58575354514E+02  0.41800000000E+01 0.  1.
        -11    1    1    2    0    0  0.18257518299E+02  0.42132086180E+02  0.80371336080E+02  0.92563498873E+02  0.00000000000E+00 0.  1.
         11    1    1    2    0    0  0.92370182212E+02 -0.22367503016E+02  0.89511502225E+02  0.13055598333E+03  0.00000000000E+00 0. -1.
</event>
<event>
 7    1  0.2688177E-009  0.9300120E+02  0.7561462E-02  0.1295742E+00
         -1   -1    0    0    0  501 -0.00000000000E+00  0.00000000000E+00  0.71435486891E+02  0.71435486891E+02  0.00000000000E+00 0.  1.
          1   -1    0    0  501    0  0.00000000000E+00 -0.00000000000E+00 -0.16408993810E+03  0.16408993810E+03  0.00000000000E+00 0. -1.
         25    2    1    2    0    0 -0.15672779732E+02 -0.11030162528E+02 -0.47365934619E+02  0.13512634867E+03  0.12509315662E+03 0.  0.
          5    1    3    3  502    0 -0.59571033781E+01  0.44556300231E+02 -0.61986006369E+02  0.76684342316E+02  0.41800000000E+01 0. -1.
         -5    1    3    3    0  502 -0.97156763540E+01 -0.55586462759E+02  0.14620071750E+02  0.58442006357E+02  0.41800000000E+01 0. -1.
        -11    1    1    2    0    0 -0.27571705536E+02  0.26598662327E+02 -0.38292657471E+01  0.38501312444E+02  0.00000000000E+00 0.  1.
         11    1    1    2    0    0  0.43244485268E+02 -0.15568499799E+02 -0.41459250847E+02  0.61897763877E+02  0.00000000000E+00 0. -1.
</event>
<event>
 7    1  0.2688177E-009  0.6992731E+02  0.7561462E-02  0.1360340E+00
         -1   -1    0    0    0  501 -0.00000000000E+00  0.00000000000E+00  0.56169495751E+02  0.56169495751E+02  0.00000000000E+00 0.  1.
          1   -1    0    0  501    0  0.00000000000E+00 -0.00000000000E+00 -0.21642516943E+03  0.21642516943E+03  0.00000000000E+00 0. -1.
         25    2    1    2    0    0 -0.16334049969E+02 -0.47922630417E+01 -0.10788921910E+03  0.16606522507E+03  0.12509120035E+03 0.  0.
          5    1    3    3  502    0  0.37271121056E+02 -0.21851083931E+02 -0.10011919435E+03  0.10912347048E+03  0.41800000000E+01 0.  1.
         -5    1    3    3    0  502 -0.53605171025E+02  0.17058820890E+02 -0.77700247544E+01  0.56941754587E+02  0.41800000000E+01 0.  1.
        -11    1    1    2    0    0  0.47764464862E+01  0.20212247251E+02  0.21676233760E+02  0.30020134743E+02  0.00000000000E+00 0.  1.
         11    1    1    2    0    0  0.11557603483E+02 -0.15419984209E+02 -0.74042688340E+02  0.76509305368E+02  0.00000000000E+00 0. -1.
</event>
<event>
 7    1  0.2688177E-009  0.1398372E+03  0.7561462E-02  0.1213548E+00
          1   -1    0    0  501    0  0.00000000000E+00  0.00000000000E+00  0.95622737271E+02  0.95622737271E+02  0.00000000000E+00 0. -1.
         -1   -1    0    0    0  501 -0.00000000000E+00 -0.00000000000E+00 -0.28455682867E+03  0.28455682867E+03  0.00000000000E+00 0.  1.
         25    2    1    2    0    0 -0.48823457034E+01 -0.10976021984E+03 -0.34289882666E+02  0.16999020879E+03  0.12509888837E+03 0.  0.
          5    1    3    3  502    0 -0.47783500587E+02  0.48844335067E+00 -0.13191179182E+02  0.49749182038E+02  0.41800000000E+01 0. -1.
         -5    1    3    3    0  502  0.42901154883E+02 -0.11024866319E+03 -0.21098703484E+02  0.12024102675E+03  0.41800000000E+01 0. -1.
        -11    1    1    2    0    0  0.14192336720E+02  0.31887082532E+02 -0.11905275399E+03  0.12406355906E+03  0.00000000000E+00 0.  1.
         11    1    1    2    0    0 -0.93099910169E+01  0.77873137307E+02 -0.35591454746E+02  0.86125798096E+02  0.00000000000E+00 0. -1.
</event>
<event>
 7    1  0.2688177E-009  0.1342820E+03  0.7561462E-02  0.1221237E+00
          2   -1    0    0  501    0  0.00000000000E+00  0.00000000000E+00  0.98199619072E+03  0.98199619072E+03  0.00000000000E+00 0.  1.
         -2   -1    0    0    0  501 -0.00000000000E+00 -0.00000000000E+00 -0.33615458133E+02  0.33615458133E+02  0.00000000000E+00 0. -1.
         25    2    1    2    0    0  0.13045638458E+03  0.86528651627E+01  0.68010345561E+03  0.70376237671E+03  0.12508809770E+03 0.  0.
          5    1    3    3  502    0  0.19056074214E+02 -0.58795816152E+01  0.73201169199E+01  0.21650865021E+02  0.41800000000E+01 0.  1.
         -5    1    3    3    0  502  0.11140031036E+03  0.14532446778E+02  0.67278333869E+03  0.68211151169E+03  0.41800000000E+01 0.  1.
        -11    1    1    2    0    0 -0.65719938888E+02  0.13974292586E+02  0.52002717894E+02  0.84962779434E+02  0.00000000000E+00 0. -1.
         11    1    1    2    0    0 -0.64736445688E+02 -0.22627157748E+02  0.21627455908E+03  0.22688649270E+03  0.00000000000E+00 0.  1.
</event>
<event>
 7    1  0.2688177E-009  0.1500530E+03  0.7561462E-02  0.1200408E+00
          3   -1    0    0  501    0  0.00000000000E+00  0.00000000000E+00  0.60872132572E+02  0.60872132572E+02  0.00000000000E+00 0. -1.
         -3   -1    0    0    0  501 -0.00000000000E+00 -0.00000000000E+00 -0.50859047038E+03  0.50859047038E+03  0.00000000000E+00 0.  1.
         25    2    1    2    0    0 -0.10718161533E+03  0.81296372299E+02 -0.18575348448E+03  0.26124354971E+03  0.12508731532E+03 0.  0.
          5    1    3    3  502    0 -0.72930950027E+02  0.10183881535E+03 -0.18190822831E+03  0.22090301879E+03  0.41800000000E+01 0.  1.
         -5    1    3    3    0  502 -0.34250665299E+02 -0.20542443048E+02 -0.38452561726E+01  0.40340530920E+02  0.41800000000E+01 0.  1.
        -11    1    1    2    0    0  0.39587125007E+02 -0.33100133311E+02 -0.25408170916E+02  0.57518122717E+02  0.00000000000E+00 0. -1.
         11    1    1    2    0    0  0.67594490320E+02 -0.48196238988E+02 -0.23655668242E+03  0.25070093053E+03  0.00000000000E+00 0.  1.
</event>
<event>
 7    1  0.2688177E-009  0.1780734E+03  0.7561462E-02  0.1169681E+00
         -2   -1    0    0    0  501 -0.00000000000E+00  0.00000000000E+00  0.26862411419E+03  0.26862411419E+03  0.00000000000E+00 0.  1.
          2   -1    0    0  501    0  0.00000000000E+00 -0.00000000000E+00 -0.14673234711E+03  0.14673234711E+03  0.00000000000E+00 0. -1.
         25    2    1    2    0    0 -0.14859567205E+03 -0.23077785421E+02 -0.81869772524E+01  0.19577485703E+03  0.12509000807E+03 0.  0.
          5    1    3    3  502    0  0.12145371413E+02 -0.32041019987E+02  0.42453459298E-01  0.34519722057E+02  0.41800000000E+01 0. -1.
         -5    1    3    3    0  502 -0.16074104346E+03  0.89632345660E+01 -0.82294307117E+01  0.16125513497E+03  0.41800000000E+01 0. -1.
        -11    1    1    2    0    0  0.10007427879E+03  0.41961465666E+02  0.12753378846E+03  0.16745295780E+03  0.00000000000E+00 0.  1.
         11    1    1    2    0    0  0.48521393255E+02 -0.18883680245E+02  0.25449558663E+01  0.52128646475E+02  0.00000000000E+00 0. -1.
</event>
<event>
 7    1  0.2688177E-009  0.9678621E+02  0.7561462E-02  0.1287203E+00
         -2   -1    0    0    0  501 -0.00000000000E+00  0.00000000000E+00  0.42976746545E+02  0.42976746545E+02  0.00000000000E+00 0.  1.
          2   -1    0    0  501    0  0.00000000000E+00 -0.00000000000E+00 -0.41494825237E+03  0.41494825237E+03  0.00000000000E+00 0. -1.
         25    2    1    2    0    0 -0.30925249552E+02  0.12428887698E+01 -0.32803997471E+03  0.35244079610E+03  0.12508546644E+03 0.  0.
          5    1    3    3  502    0  0.73634629666E+00 -0.43784107405E+02 -0.26508857711E+03  0.26871363267E+03  0.41800000000E+01 0. -1.
         -5    1    3    3    0  502 -0.31661595849E+02  0.45026996175E+02 -0.62951397599E+02  0.83727163430E+02  0.41800000000E+01 0. -1.
        -11    1    1    2    0    0  0.55859864618E+02 -0.23835420501E+02 -0.37044925328E+02  0.71139147016E+02  0.00000000000E+00 0. -1.
         11    1    1    2    0    0 -0.24934615066E+02  0.22592531731E+02 -0.68866057838E+01  0.34345055798E+02  0.00000000000E+00 0.  1.
</event>
<event>
 7    1  0.2688177E-009  0.7803944E+02  0.7561462E-02  0.1334709E+00
         -2   -1    0    0    0  501 -0.00000000000E+00  0.00000000000E+00  0.50172774120E+02  0.50172774120E+02  0.00000000000E+00 0.  1.
          2   -1    0    0  501    0  0.00000000000E+00 -0.00000000000E+00 -0.26565953872E+03  0.26565953872E+03  0.00000000000E+00 0. -1.
         25    2    1    2    0    0 -0.28866414370E+02 -0.20127178523E+02 -0.10452119449E+03  0.16676495260E+03  0.12508995213E+03 0.  0.
          5    1    3    3  502    0 -0.17828210133E+02 -0.33950278257E+02  0.18237505092E+02  0.42667850453E+02  0.41800000000E+01 0.  1.
         -5    1    3    3    0  502 -0.11038204236E+02  0.13823099734E+02 -0.12275869958E+03  0.12409710215E+03  0.41800000000E+01 0.  1.
        -11    1    1    2    0    0  0.49052157860E+02 -0.21120822020E+02 -0.54829788202E+02  0.76540897485E+02  0.00000000000E+00 0. -1.
         11    1    1    2    0    0 -0.20185743491E+02  0.41248000543E+02 -0.56135781914E+02  0.72526462757E+02  0.00000000000E+00 0.  1.
</event>
<event>
 7    1  0.2688177E-009  0.7934836E+02  0.7561462E-02  0.1330911E+00
          2   -1    0    0  501    0  0.00000000000E+00  0.00000000000E+00  0.28344811177E+02  0.28344811177E+02  0.00000000000E+00 0. -1.
         -2   -1    0    0    0  501 -0.00000000000E+00 -0.00000000000E+00 -0.57041774458E+03  0.57041774458E+03  0.00000000000E+00 0.  1.
         25    2    1    2    0    0  0.17649168273E+02  0.26103225308E+02 -0.41036155553E+03  0.43015962714E+03  0.12509127487E+03 0.  0.
          5    1    3    3  502    0  0.51160002182E+02  0.46605437095E+02 -0.35752948636E+03  0.36418981124E+03  0.41800000000E+01 0.  1.
         -5    1    3    3    0  502 -0.33510833910E+02 -0.20502211787E+02 -0.52832069170E+02  0.65969815903E+02  0.41800000000E+01 0.  1.
        -11    1    1    2    0    0  0.44593884839E+00 -0.31086292553E+02 -0.14324080366E+03  0.14657586527E+03  0.00000000000E+00 0.  1.
         11    1    1    2    0    0 -0.18095107121E+02  0.49830672443E+01  0.11529425788E+02  0.22027063351E+02  0.00000000000E+00 0. -1.
</event>
<event>
 7    1  0.2688177E-009  0.1820647E+03  0.7561462E-02  0.1165820E+00
          2   -1    0    0  501    0  0.00000000000E+00  0.00000000000E+00  0.69959293002E+03  0.69959293002E+03  0.00000000000E+00 0. -1.
         -2   -1    0    0    0  501 -0.00000000000E+00 -0.00000000000E+00 -0.99530246869E+02  0.99530246869E+02  0.00000000000E+00 0.  1.
         25    2    1    2    0    0 -0.31988686828E+02 -0.16027656414E+03  0.41342015159E+02  0.20992567966E+03  0.12509106949E+03 0.  0.
          5    1    3    3  502    0  0.21748164535E+02 -0.55821649441E+02 -0.35246967755E+02  0.69633758644E+02  0.41800000000E+01 0.  1.
         -5    1    3    3    0  502 -0.53736851364E+02 -0.10445491470E+03  0.76588982914E+02  0.14029192102E+03  0.41800000000E+01 0.  1.
        -11    1    1    2    0    0 -0.30505631186E+02  0.73650104594E+02  0.26047828025E+03  0.27240386547E+03  0.00000000000E+00 0. -1.
         11    1    1    2    0    0  0.62494318014E+02  0.86626459543E+02  0.29824238775E+03  0.31679363176E+03  0.00000000000E+00 0.  1.
</event>
<event>
 7    1  0.2688177E-009  0.1035213E+03  0.7561462E-02  0.1273061E+00
         -1   -1    0    0    0  501 -0.00000000000E+00  0.00000000000E+00  0.22745030655E+03  0.22745030655E+03  0.00000000000E+00 0.  1.
          1   -1    0    0  501    0  0.00000000000E+00 -0.00000000000E+00 -0.74377589942E+02  0.74377589942E+02  0.00000000000E+00 0. -1.
         25    2    1    2    0    0 -0.45821335968E+02  0.34745324930E+02  0.13243405423E+03  0.19103248479E+03  0.12509116312E+03 0.  0.
          5    1    3    3  502    0  0.32177524287E+02  0.11835178714E+02 -0.11981452373E+01  0.34559694391E+02  0.41800000000E+01 0. -1.
         -5    1    3    3    0  502 -0.77998860255E+02  0.22910146215E+02  0.13363219946E+03  0.15647279040E+03  0.41800000000E+01 0. -1.
        -11    1    1    2    0    0  0.57377530726E+02 -0.31543764125E+01 -0.17376887401E+02  0.60034051491E+02  0.00000000000E+00 0. -1.
         11    1    1    2    0    0 -0.11556194757E+02 -0.31590948517E+02  0.38015549779E+02  0.50761360211E+02  0.00000000000E+00 0.  1.
</event>
<event>
 7    1  0.2688177E-009  0.1386375E+03  0.7561462E-02  0.1215174E+00
          1   -1    0    0  501    0  0.00000000000E+00  0.00000000000E+00  0.12178468260E+04  0.12178468260E+04  0.00000000000E+00 0. -1.
         -1   -1    0    0    0  501 -0.00000000000E+00 -0.00000000000E+00 -0.21117321938E+02  0.21117321938E+02  0.00000000000E+00 0.  1.
         25    2    1    2    0    0  0.93860811821E+02 -0.71172539143E+02  0.63772249161E+03  0.66046463022E+03  0.12509264222E+03 0.  0.
          5    1    3    3  502    0  0.32024115590E+02  0.38320444161E+01  0.42841284082E+03  0.42964550868E+03  0.41800000000E+01 0.  1.
         -5    1    3    3    0  502  0.61836696231E+02 -0.75004583559E+02  0.20930965079E+03  0.23081912154E+03  0.41800000000E+01 0.  1.
        -11    1    1    2    0    0  0.14061948777E+02  0.27777555032E+02  0.15420084104E+03  0.15731252444E+03  0.00000000000E+00 0. -1.
         11    1    1    2    0    0 -0.10792276060E+03  0.43394984110E+02  0.40480617140E+03  0.42118699327E+03  0.00000000000E+00 0.  1.
</event>
<event>
 7    1  0.2688177E-009  0.1223564E+03  0.7561462E-02  0.1239260E+00
          1   -1    0    0  501    0  0.00000000000E+00  0.00000000000E+00  0.88939171463E+02  0.88939171463E+02  0.00000000000E+00 0. -1.
         -1   -1    0    0    0  501 -0.00000000000E+00 -0.00000000000E+00 -0.17596833232E+03  0.17596833232E+03  0.00000000000E+00 0.  1.
         25    2    1    2    0    0  0.27907549109E+01  0.59861068367E+02 -0.33808669615E+02  0.14277473539E+03  0.12510181095E+03 0.  0.
          5    1    3    3  502    0 -0.26656389267E+02  0.89275853704E+02 -0.38053734748E+02  0.10072884528E+03  0.41800000000E+01 0.  1.
         -5    1    3    3    0  502  0.29447144178E+02 -0.29414785337E+02  0.42450651327E+01  0.42045890104E+02  0.41800000000E+01 0.  1.
        -11    1    1    2    0    0  0.57387677976E+01  0.24328948232E+02 -0.83698216206E+01  0.26360673206E+02  0.00000000000E+00 0.  1.
         11    1    1    2    0    0 -0.85295227086E+01 -0.84190016599E+02 -0.44850669625E+02  0.95772095197E+02  0.00000000000E+00 0. -1.
</event>
<event>
 7    1  0.2688177E-009  0.1941261E+03  0.7561462E-02  0.1154792E+00
         -2   -1    0    0    0  501 -0.00000000000E+00  0.00000000000E+00  0.37509267204E+02  0.37509267204E+02  0.00000000000E+00 0.  1.
          2   -1    0    0  501    0  0.00000000000E+00 -0.00000000000E+00 -0.11977878063E+04  0.11977878063E+04  0.00000000000E+00 0. -1.
         25    2    1    2    0    0  0.52527565807E+02 -0.17007390939E+03 -0.71333225809E+03  0.74577107340E+03  0.12508918284E+03 0.  0.
          5    1    3    3  502    0  0.57166832879E+02 -0.17271426712E+03 -0.71578950051E+03  0.73855964301E+03  0.41800000000E+01 0. -1.
         -5    1    3    3    0  502 -0.46392670726E+01  0.26403577288E+01  0.24572424203E+01  0.72114303864E+01  0.41800000000E+01 0. -1.
        -11    1    1    2    0    0 -0.11038222582E+02  0.15493838201E+03 -0.33885840209E+03  0.37276368016E+03  0.00000000000E+00 0.  1.
         11    1    1    2    0    0 -0.41489343225E+02  0.15135527380E+02 -0.10808787890E+03  0.11676231993E+03  0.00000000000E+00 0. -1.
</event>
<event>
 7    1  0.2688177E-009  0.1249803E+03  0.7561462E-02  0.1235100E+00
         -2   -1    0    0    0  501 -0.00000000000E+00  0.00000000000E+00  0.18836641690E+03  0.18836641690E+03  0.00000000000E+00 0. -1.
          2   -1    0    0  501    0  0.00000000000E+00 -0.00000000000E+00 -0.14526422684E+03  0.14526422684E+03  0.00000000000E+00 0.  1.
         25    2    1    2    0    0 -0.82895699891E+02  0.58624146736E+02  0.93403612915E+02  0.18622378128E+03  0.12508626690E+03 0.  0.
          5    1    3    3  502    0 -0.25296227739E+02 -0.52882368745E+01 -0.27373010702E+02  0.37876360727E+02  0.41800000000E+01 0. -1.
         -5    1    3    3    0  502 -0.57599472152E+02  0.63912383611E+02  0.12077662362E+03  0.14834742055E+03  0.41800000000E+01 0. -1.
        -11    1    1    2    0    0  0.85518639386E+02 -0.68397844730E+01 -0.39475501271E+02  0.94437998362E+02  0.00000000000E+00 0.  1.
         11    1    1    2    0    0 -0.26229394954E+01 -0.51784362263E+02 -0.10825921579E+02  0.52968864106E+02  0.00000000000E+00 0. -1.
</event>
<event>
 7    1  0.2688177E-009  0.8681908E+02  0.7561462E-02  0.1310743E+00
          2   -1    0    0  501    0  0.00000000000E+00  0.00000000000E+00  0.12817714268E+03  0.12817714268E+03  0.00000000000E+00 0.  1.
         -2   -1    0    0    0  501 -0.00000000000E+00 -0.00000000000E+00 -0.10129480397E+03  0.10129480397E+03  0.00000000000E+00 0. -1.
         25    2    1    2    0    0  0.34203746711E+02 -0.16980378731E+02  0.23350481962E+02  0.13285668593E+03  0.12508966559E+03 0.  0.
          5    1    3    3  502    0  0.44568473925E+02  0.41295584964E+02  0.37937182204E+02  0.71752187417E+02  0.41800000000E+01 0. -1.
         -5    1    3    3    0  502 -0.10364727215E+02 -0.58275963695E+02 -0.14586700242E+02  0.61104498515E+02  0.41800000000E+01 0. -1.
        -11    1    1    2    0    0 -0.40344322884E+02  0.59605046624E+01  0.40547445345E+02  0.57509019543E+02  0.00000000000E+00 0.  1.
         11    1    1    2    0    0  0.61405761732E+01  0.11019874068E+02 -0.37015588595E+02  0.39106241181E+02  0.00000000000E+00 0. -1.
</event>
<event>
 7    1  0.2688177E-009  0.1028407E+03  0.7561462E-02  0.1274433E+00
          2   -1    0    0  501    0  0.00000000000E+00  0.00000000000E+00  0.69942489275E+03  0.69942489275E+03  0.00000000000E+00 0. -1.
         -2   -1    0    0    0  501 -0.00000000000E+00 -0.00000000000E+00 -0.22266379582E+02  0.22266379582E+02  0.00000000000E+00 0.  1.
         25    2    1    2    0    0  0.11938862273E+02 -0.27358662569E+02  0.53576461783E+03  0.55098524544E+03  0.12509988859E+03 0.  0.
          5    1    3    3  502    0  0.34232946513E+02  0.39526151882E+02  0.31077065052E+03  0.31516675100E+03  0.41800000000E+01 0.  1.
         -5    1    3    3    0  502 -0.22294084240E+02 -0.66884814451E+02  0.22499396731E+03  0.23581849445E+03  0.41800000000E+01 0.  1.
        -11    1    1    2    0    0 -0.44935585381E+02  0.15373764630E+02  0.12127733056E+03  0.13024496298E+03  0.00000000000E+00 0. -1.
         11    1    1    2    0    0  0.32996723108E+02  0.11984897939E+02  0.20116564771E+02  0.40461063909E+02  0.00000000000E+00 0.  1.
</event>
<event>
 7    1  0.2688177E-009  0.1074570E+03  0.7561462E-02  0.1265353E+00
         -2   -1    0    0    0  501 -0.00000000000E+00  0.00000000000E+00  0.15976909200E+02  0.15976909200E+02  0.00000000000E+00 0.  1.
          2   -1    0    0  501    0  0.00000000000E+00 -0.00000000000E+00 -0.86614605174E+03  0.86614605174E+03  0.00000000000E+00 0. -1.
         25    2    1    2    0    0 -0.28354998605E+02 -0.19422843712E+02 -0.59639817507E+03  0.61034378266E+03  0.12508995565E+03 0.  0.
          5    1    3    3  502    0  0.14724582174E+02  0.45816047859E+02 -0.29575945091E+03  0.29967824206E+03  0.41800000000E+01 0. -1.
         -5    1    3    3    0  502 -0.43079580780E+02 -0.65238891571E+02 -0.30063872416E+03  0.31066554060E+03  0.41800000000E+01 0. -1.
        -11    1    1    2    0    0 -0.20510392758E+02 -0.17587753628E+02 -0.32967353127E+02  0.42624542942E+02  0.00000000000E+00 0. -1.
         11    1    1    2    0    0  0.48865391363E+02  0.37010597340E+02 -0.22080361434E+03  0.22915463533E+03  0.00000000000E+00 0.  1.
</event>
<event>
 7    1  0.2688177E-009  0.1790624E+03  0.7561462E-02  0.1168714E+00
          1   -1    0    0  501    0  0.00000000000E+00  0.00000000000E+00  0.11008484555E+04  0.11008484555E+04  0.00000000000E+00 0. -1.
         -1   -1    0    0    0  501 -0.00000000000E+00 -0.00000000000E+00 -0.92340641801E+02  0.92340641801E+02  0.00000000000E+00 0.  1.
         25    2    1    2    0    0  0.16231983757E+03  0.73036733538E+02  0.96521515935E+03  0.98942888600E+03  0.12508845870E+03 0.  0.
          5    1    3    3  502    0  0.13499910157E+02  0.78521291914E+01  0.71519568172E+01  0.17678416032E+02  0.41800000000E+01 0.  1.
         -5    1    3    3    0  502  0.14881992741E+03  0.65184604346E+02  0.95806320253E+03  0.97175046997E+03  0.41800000000E+01 0.  1.
        -11    1    1    2    0    0 -0.12524630949E+03 -0.66442083103E+02 -0.57903307453E+01  0.14189685119E+03  0.00000000000E+00 0. -1.
         11    1    1    2    0    0 -0.37073528083E+02 -0.65946504350E+01  0.49082985111E+02  0.61863360127E+02  0.00000000000E+00 0.  1.
</event>
<event>
 7    1  0.2688177E-009  0.8339802E+02  0.7561462E-02  0.1319676E+00
         -2   -1    0    0    0  501 -0.00000000000E+00  0.00000000000E+00  0.43814611044E+02  0.43814611044E+02  0.00000000000E+00 0.  1.
          2   -1    0    0  501    0  0.00000000000E+00 -0.00000000000E+00 -0.30164832806E+03  0.30164832806E+03  0.00000000000E+00 0. -1.
         25    2    1    2    0    0  0.32163270626E+02 -0.11593772518E+02 -0.17190676731E+03  0.21533223802E+03  0.12508854682E+03 0.  0.
          5    1    3    3  502    0 -0.57073854442E+01  0.51068688797E+02 -0.10061174942E+03  0.11305211960E+03  0.41800000000E+01 0.  1.
         -5    1    3    3    0  502  0.37870656070E+02 -0.62662461315E+02 -0.71295017888E+02  0.10228011842E+03  0.41800000000E+01 0.  1.
        -11    1    1    2    0    0 -0.13459077927E+02 -0.73048336664E+01  0.17550159496E+02  0.23291961529E+02  0.00000000000E+00 0.  1.
         11    1    1    2    0    0 -0.18704192699E+02  0.18898606185E+02 -0.10347710921E+03  0.10683873956E+03  0.00000000000E+00 0. -1.
</event>
<event>
 7    1  0.2688177E-009  0.4209732E+03  0.7561462E-02  0.1036750E+00
          1   -1    0    0  501    0  0.00000000000E+00  0.00000000000E+00  0.45352997847E+03  0.45352997847E+03  0.00000000000E+00 0. -1.
         -1   -1    0    0    0  501 -0.00000000000E+00 -0.00000000000E+00 -0.41314106497E+03  0.41314106497E+03  0.00000000000E+00 0.  1.
         25    2    1    2    0    0  0.35370090261E+03 -0.21728696235E+03 -0.35327655028E+02  0.43498801817E+03  0.12509428535E+03 0.  0.
          5    1    3    3  502    0  0.27531652339E+03 -0.14987269613E+03 -0.78018034466E+02  0.32305618583E+03  0.41800000000E+01 0.  1.
         -5    1    3    3    0  502  0.78384379222E+02 -0.67414266217E+02  0.42690379438E+02  0.11193183235E+03  0.41800000000E+01 0.  1.
        -11    1    1    2    0    0 -0.29777108832E+03  0.13861234998E+03  0.57309972348E+02  0.33341481301E+03  0.00000000000E+00 0. -1.
         11    1    1    2    0    0 -0.55929814296E+02  0.78674612373E+02  0.18406596180E+02  0.98268212267E+02  0.00000000000E+00 0.  1.
</event>
<event>
 7    1  0.2688177E-009  0.1483236E+03  0.7561462E-02  0.1202548E+00
         -1   -1    0    0    0  501 -0.00000000000E+00  0.00000000000E+00  0.27102183958E+03  0.27102183958E+03  0.00000000000E+00 0.  1.
          1   -1    0    0  501    0  0.00000000000E+00 -0.00000000000E+00 -0.13238965065E+03  0.13238965065E+03  0.00000000000E+00 0. -1.
         25    2    1    2    0    0  0.11535082097E+03  0.55000024769E+02  0.16591971653E+03  0.24394887000E+03  0.12510349404E+03 0.  0.
          5    1    3    3  502    0  0.11589793276E+03  0.62826356793E+02  0.73286794456E+02  0.15089038594E+03  0.41800000000E+01 0. -1.
         -5    1    3    3    0  502 -0.54711179873E+00 -0.78263320246E+01  0.92632922075E+02  0.93058484065E+02  0.41800000000E+01 0. -1.
        -11    1    1    2    0    0 -0.23852021698E+02 -0.59651342464E+02 -0.14003073582E+01  0.64258559410E+02  0.00000000000E+00 0.  1.
         11    1    1    2    0    0 -0.91498799267E+02  0.46513176949E+01 -0.25887220242E+02  0.95204060814E+02  0.00000000000E+00 0. -1.
</event>
<event>
 7    1  0.2688177E-009  0.1396631E+03  0.7561462E-02  0.1213783E+00
          2   -1    0    0  501    0  0.00000000000E+00  0.00000000000E+00  0.12563127890E+03  0.12563127890E+03  0.00000000000E+00 0. -1.
         -2   -1    0    0    0  501 -0.00000000000E+00 -0.00000000000E+00 -0.25409691751E+03  0.25409691751E+03  0.00000000000E+00 0.  1.
         25    2    1    2    0    0 -0.11260446383E+03  0.22300496539E+02  0.19711947433E+02  0.17092034029E+03  0.12509246353E+03 0.  0.
          5    1    3    3  502    0 -0.53299797863E+02 -0.35913162980E+02 -0.33054813940E+02  0.72392795582E+02  0.41800000000E+01 0.  1.
         -5    1    3    3    0  502 -0.59304665963E+02  0.58213659519E+02  0.52766761373E+02  0.98527544704E+02  0.41800000000E+01 0.  1.
        -11    1    1    2    0    0  0.47339801525E+02  0.22637893299E+02 -0.16286115620E+02  0.54943321554E+02  0.00000000000E+00 0. -1.
         11    1    1    2    0    0  0.65264662301E+02 -0.44938389838E+02 -0.13189147043E+03  0.15386453457E+03  0.00000000000E+00 0.  1.
</event>
<event>
 7    1  0.2688177E-009  0.1081037E+03  0.7561462E-02  0.1264122E+00
         -2   -1    0    0    0  501 -0.00000000000E+00  0.00000000000E+00  0.24045727942E+02  0.24045727942E+02  0.00000000000E+00 0. -1.
          2   -1    0    0  501    0  0.00000000000E+00 -0.00000000000E+00 -0.76474390829E+03  0.76474390829E+03  0.00000000000E+00 0.  1.
         25    2    1    2    0    0  0.30824476232E+02  0.52106120476E+02 -0.56049534630E+03  0.57746946462E+03  0.12510297049E+03 0.  0.
          5    1    3    3  502    0 -0.34698956307E+02  0.25910719089E+02 -0.73818493221E+02  0.85685618827E+02  0.41800000000E+01 0.  1.
         -5    1    3    3    0  502  0.65523432539E+02  0.26195401387E+02 -0.48667685308E+03  0.49178384580E+03  0.41800000000E+01 0.  1.
        -11    1    1    2    0    0 -0.20698453338E+02 -0.74559910299E+02 -0.16534195825E+03  0.18255292206E+03  0.00000000000E+00 0.  1.
         11    1    1    2    0    0 -0.10126022894E+02  0.22453789823E+02 -0.14860875798E+02  0.28767249548E+02  0.00000000000E+00 0. -1.
</event>
<event>
 7    1  0.2688177E-009  0.1338161E+03  0.7561462E-02  0.1221901E+00
         -2   -1    0    0    0  501 -0.00000000000E+00  0.00000000000E+00  0.22766120522E+02  0.22766120522E+02  0.00000000000E+00 0.  1.
          2   -1    0    0  501    0  0.00000000000E+00 -0.00000000000E+00 -0.11980954045E+04  0.11980954045E+04  0.00000000000E+00 0. -1.
         25    2    1    2    0    0 -0.63742230844E+02  0.97115462002E+02 -0.79090367313E+03  0.80911688503E+03  0.12508808303E+03 0.  0.
          5    1    3    3  502    0 -0.58655396777E+02  0.10469967673E+03 -0.38957125345E+03  0.40765881788E+03  0.41800000000E+01 0.  1.
         -5    1    3    3    0  502 -0.50868340671E+01 -0.75842147323E+01 -0.40133241968E+03  0.40145806715E+03  0.41800000000E+01 0.  1.
        -11    1    1    2    0    0 -0.88592982703E+01 -0.50401105155E+02 -0.22177155167E+03  0.22759916454E+03  0.00000000000E+00 0. -1.
         11    1    1    2    0    0  0.72601529114E+02 -0.46714356847E+02 -0.16265405919E+03  0.18414547547E+03  0.00000000000E+00 0.  1.
</event>
<event>
 7    1  0.2688177E-009  0.6788940E+02  0.7561462E-02  0.1367421E+00
          3   -1    0    0  501    0  0.00000000000E+00  0.00000000000E+00  0.24882234881E+03  0.24882234881E+03  0.00000000000E+00 0. -1.
         -3   -1    0    0    0  501 -0.00000000000E+00 -0.00000000000E+00 -0.55412124319E+02  0.55412124319E+02  0.00000000000E+00 0.  1.
         25    2    1    2    0    0 -0.11585935716E+02 -0.41561867876E+02  0.13660373072E+03  0.19019147586E+03  0.12510234000E+03 0.  0.
          5    1    3    3  502    0 -0.11518724979E+02 -0.30722640982E+02  0.16036588457E+03  0.16374141513E+03  0.41800000000E+01 0. -1.
         -5    1    3    3    0  502 -0.67210736555E-01 -0.10839226895E+02 -0.23762153849E+02  0.26450060728E+02  0.41800000000E+01 0. -1.
        -11    1    1    2    0    0  0.32365148935E+02 -0.11303824864E+02  0.44062514460E+02  0.55828169438E+02  0.00000000000E+00 0. -1.
         11    1    1    2    0    0 -0.20779213219E+02  0.52865692741E+02  0.12743979306E+02  0.58214827832E+02  0.00000000000E+00 0.  1.
</event>
<event>
 7    1  0.2688177E-009  0.1088167E+03  0.7561462E-02  0.1262777E+00
         -2   -1    0    0    0  501 -0.00000000000E+00  0.00000000000E+00  0.28719297783E+02  0.28719297783E+02  0.00000000000E+00 0.  1.
          2   -1    0    0  501    0  0.00000000000E+00 -0.00000000000E+00 -0.49548326616E+03  0.49548326616E+03  0.00000000000E+00 0. -1.
         25    2    1    2    0    0  0.12425933672E+02  0.51212903305E+02 -0.33992148177E+03  0.36602228625E+03  0.12509410447E+03 0.  0.
          5    1    3    3  502    0 -0.47543577598E+02  0.70763379240E+00 -0.19960289016E+03  0.20523079369E+03  0.41800000000E+01 0.  1.
         -5    1    3    3    0  502  0.59969511270E+02  0.50505269513E+02 -0.14031859161E+03  0.16079149257E+03  0.41800000000E+01 0.  1.
        -11    1    1    2    0    0  0.15156142725E+02 -0.60432444738E+02 -0.66101511683E+02  0.90836110034E+02  0.00000000000E+00 0. -1.
         11    1    1    2    0    0 -0.27582076397E+02  0.92195414328E+01 -0.60740974923E+02  0.67344167656E+02  0.00000000000E+00 0.  1.
</event>
<event>
 7    1  0.2688177E-009  0.1142908E+03  0.7561462E-02  0.1252824E+00
         -4   -1    0    0    0  501 -0.00000000000E+00  0.00000000000E+00  0.82318803222E+03  0.82318803222E+03  0.00000000000E+00 0.  1.
          4   -1    0    0  501    0  0.00000000000E+00 -0.00000000000E+00 -0.26709254996E+02  0.26709254996E+02  0.00000000000E+00 0. -1.
         25    2    1    2    0    0  0.10700442230E+01 -0.84616262640E+02  0.57465949250E+03  0.59416429661E+03  0.12504647996E+03 0.  0.
          5    1    3    3  502    0  0.16251806638E+02 -0.96990772869E+02  0.24696039227E+03  0.26585379251E+03  0.41800000000E+01 0. -1.
         -5    1    3    3    0  502 -0.15181762415E+02  0.12374510229E+02  0.32769910023E+03  0.32831050410E+03  0.41800000000E+01 0. -1.
        -11    1    1    2    0    0  0.32172538119E+02  0.62201339644E+02  0.71195162669E+02  0.99864057849E+02  0.00000000000E+00 0. -1.
         11    1    1    2    0    0 -0.33242582342E+02  0.22414922996E+02  0.15062412205E+03  0.15586893275E+03  0.00000000000E+00 0.  1.
</event>
<event>
 7    1  0.2688177E-009  0.1147653E+03  0.7561462E-02  0.1251991E+00
         -4   -1    0    0    0  501 -0.00000000000E+00  0.00000000000E+00  0.30473137430E+02  0.30473137430E+02  0.00000000000E+00 0.  1.
          4   -1    0    0  501    0  0.00000000000E+00 -0.00000000000E+00 -0.47245587965E+03  0.47245587965E+03  0.00000000000E+00 0. -1.
         25    2    1    2    0    0 -0.15703072572E+02 -0.46602940743E+02 -0.24009295700E+03  0.27515528433E+03  0.12508949563E+03 0.  0.
          5    1    3    3  502    0  0.29344249569E+02 -0.67891442388E+02 -0.19193701255E+03  0.20573677873E+03  0.41800000000E+01 0.  1.
         -5    1    3    3    0  502 -0.45047322142E+02  0.21288501645E+02 -0.48155944445E+02  0.69418505600E+02  0.41800000000E+01 0.  1.
        -11    1    1    2    0    0  0.50482484599E+02  0.42683613421E+01 -0.98256501286E+02  0.11054881367E+03  0.00000000000E+00 0.  1.
         11    1    1    2    0    0 -0.34779412026E+02  0.42334579401E+02 -0.10363328394E+03  0.11722491908E+03  0.00000000000E+00 0. -1.
</event>
<event>
 7    1  0.2688177E-009  0.1225433E+03  0.7561462E-02  0.1238959E+00
         -2   -1    0    0    0  501 -0.00000000000E+00  0.00000000000E+00  0.24090932729E+03  0.24090932729E+03  0.00000000000E+00 0.  1.
          2   -1    0    0  501    0  0.00000000000E+00 -0.00000000000E+00 -0.11886025136E+03  0.11886025136E+03  0.00000000000E+00 0. -1.
         25    2    1    2    0    0 -0.84721663517E+02  0.15721628493E+02  0.16792858108E+03  0.22643370265E+03  0.12508910217E+03 0.  0.
          5    1    3    3  502    0 -0.10518705537E+03  0.28920913073E+02  0.16956662771E+03  0.20167064602E+03  0.41800000000E+01 0. -1.
         -5    1    3    3    0  502  0.20465391850E+02 -0.13199284580E+02 -0.16380466369E+01  0.24763056633E+02  0.41800000000E+01 0. -1.
        -11    1    1    2    0    0 -0.19888134402E+01 -0.24018600175E+02 -0.39145094284E+02  0.45969413089E+02  0.00000000000E+00 0. -1.
         11    1    1    2    0    0  0.86710476957E+02  0.82969716818E+01 -0.67344108671E+01  0.87366462919E+02  0.00000000000E+00 0.  1.
</event>
<event>
 7    1  0.2688177E-009  0.1077643E+03  0.7561462E-02  0.1264767E+00
          1   -1    0    0  501    0  0.00000000000E+00  0.00000000000E+00  0.31783163131E+03  0.31783163131E+03  0.00000000000E+00 0. -1.
         -1   -1    0    0    0  501 -0.00000000000E+00 -0.00000000000E+00 -0.70288452368E+02  0.70288452368E+02  0.00000000000E+00 0.  1.
         25    2    1    2    0    0 -0.27009510979E+02 -0.91634879329E+02  0.86916234932E+02  0.17981137822E+03  0.12510489618E+03 0.  0.
          5    1    3    3  502    0 -0.50110416146E+02 -0.48666843723E+02 -0.10519814936E+02  0.70764782134E+02  0.41800000000E+01 0.  1.
         -5    1    3    3    0  502  0.23100905166E+02 -0.42968035606E+02  0.97436049868E+02  0.10904659608E+03  0.41800000000E+01 0.  1.
        -11    1    1    2    0    0  0.16620671606E+02  0.76132953962E+02  0.17030546777E+03  0.18728701438E+03  0.00000000000E+00 0.  1.
         11    1    1    2    0    0  0.10388839373E+02  0.15501925367E+02 -0.96785237615E+01  0.21021691079E+02  0.00000000000E+00 0. -1.
</event>
<event>
 7    1  0.2688177E-009  0.1106309E+03  0.7561462E-02  0.1259406E+00
          1   -1    0    0  501    0  0.00000000000E+00  0.00000000000E+00  0.38137109346E+03  0.38137109346E+03  0.00000000000E+00 0. -1.
         -1   -1    0    0    0  501 -0.00000000000E+00 -0.00000000000E+00 -0.38026130287E+02  0.38026130287E+02  0.00000000000E+00 0.  1.
         25    2    1    2    0    0 -0.46929244624E+02  0.23835076049E+02  0.17769226775E+03  0.22359031846E+03  0.12509046182E+03 0.  0.
          5    1    3    3  502    0 -0.85946971995E+02  0.31344160313E+02  0.96138125032E+02  0.13277556200E+03  0.41800000000E+01 0.  1.
         -5    1    3    3    0  502  0.39017727371E+02 -0.75090842638E+01  0.81554142717E+02  0.90814756455E+02  0.41800000000E+01 0.  1.
        -11    1    1    2    0    0  0.46893253132E+02 -0.47100500267E+02  0.15784338781E+03  0.17126578582E+03  0.00000000000E+00 0. -1.
         11    1    1    2    0    0  0.35991492357E-01  0.23265424218E+02  0.78093076066E+01  0.24541119468E+02  0.00000000000E+00 0.  1.
</event>
<event>
 7    1  0.2839619E-009  0.1334817E+03  0.7561462E-02  0.1222379E+00
         -1   -1    0    0    0  501 -0.00000000000E+00  0.00000000000E+00  0.80226808830E+02  0.80226808830E+02  0.00000000000E+00 0.  1.
          1   -1    0    0  501    0  0.00000000000E+00 -0.00000000000E+00 -0.39175214579E+03  0.39175214579E+03  0.00000000000E+00 0. -1.
         25    2    1    2    0    0 -0.70511889845E+02 -0.98633987017E+02 -0.72175925899E+02  0.18856814505E+03  0.12509193038E+03 0.  0.
          5    1    3    3  502    0 -0.41085996257E+02 -0.10093471544E+03  0.15244011931E+01  0.10906728230E+03  0.41800000000E+01 0. -1.
         -5    1    3    3    0  502 -0.29425893588E+02  0.23007284258E+01 -0.73700327092E+02  0.79500862752E+02  0.41800000000E+01 0. -1.
        -11    1    1    2    0    0  0.71186747543E+02  0.71296859931E+02 -0.10201390121E+03  0.14337932662E+03  0.00000000000E+00 0.  1.
         11    1    1    2    0    0 -0.67485769878E+00  0.27337127086E+02 -0.13733550986E+03  0.14003148295E+03  0.00000000000E+00 0. -1.
</event>
<event>
 7    1  0.2688177E-009  0.1134744E+03  0.7561462E-02  0.1254268E+00
          2   -1    0    0  501    0  0.00000000000E+00  0.00000000000E+00  0.77650616155E+03  0.77650616155E+03  0.00000000000E+00 0. -1.
         -2   -1    0    0    0  501 -0.00000000000E+00 -0.00000000000E+00 -0.18897983752E+02  0.18897983752E+02  0.00000000000E+00 0.  1.
         25    2    1    2    0    0 -0.90946645785E+01  0.28361404174E+02  0.55786328402E+03  0.57249115639E+03  0.12509036058E+03 0.  0.
          5    1    3    3  502    0  0.33225842058E+02 -0.37415921561E+02  0.21044373988E+03  0.21635144516E+03  0.41800000000E+01 0.  1.
         -5    1    3    3    0  502 -0.42320506637E+02  0.65777325735E+02  0.34741954414E+03  0.35613971122E+03  0.41800000000E+01 0.  1.
        -11    1    1    2    0    0  0.53472971472E+01 -0.63171308100E+02  0.11715034511E+03  0.13320439600E+03  0.00000000000E+00 0.  1.
         11    1    1    2    0    0  0.37473674313E+01  0.34809903926E+02  0.82594548668E+02  0.89708592920E+02  0.00000000000E+00 0. -1.
</event>
<event>
 7    1  0.2688177E-009  0.2384133E+03  0.7561462E-02  0.1120854E+00
         -2   -1    0    0    0  501 -0.00000000000E+00  0.00000000000E+00  0.84024732477E+02  0.84024732477E+02  0.00000000000E+00 0.  1.
          2   -1    0    0  501    0  0.00000000000E+00 -0.00000000000E+00 -0.77001979861E+03  0.77001979861E+03  0.00000000000E+00 0. -1.
         25    2    1    2    0    0 -0.20104650415E+03  0.11071035250E+03 -0.32883086180E+03  0.42006248115E+03  0.12508506474E+03 0.  0.
          5    1    3    3  502    0 -0.32023354502E+02  0.52794019153E+02 -0.23357876317E+02  0.66149576551E+02  0.41800000000E+01 0. -1.
         -5    1    3    3    0  502 -0.16902314965E+03  0.57916333344E+02 -0.30547298548E+03  0.35391290460E+03  0.41800000000E+01 0. -1.
        -11    1    1    2    0    0  0.60753785364E+02 -0.64268350552E+02 -0.19764966532E+03  0.21653367756E+03  0.00000000000E+00 0.  1.
         11    1    1    2    0    0  0.14029271879E+03 -0.46442001945E+02 -0.15951453902E+03  0.21744837237E+03  0.00000000000E+00 0. -1.
</event>
<event>
 7    1  0.2688177E-009  0.9416600E+02  0.7561462E-02  0.1293066E+00
          2   -1    0    0  501    0  0.00000000000E+00  0.00000000000E+00  0.12781066719E+03  0.12781066719E+03  0.00000000000E+00 0. -1.
         -2   -1    0    0    0  501 -0.00000000000E+00 -0.00000000000E+00 -0.92648328005E+02  0.92648328005E+02  0.00000000000E+00 0.  1.
         25    2    1    2    0    0  0.33745950014E+02 -0.77242498924E+01  0.49611991611E+01  0.12988283038E+03  0.12508590229E+03 0.  0.
          5    1    3    3  502    0  0.68041086259E+02  0.72153423845E+01 -0.33299989820E+02  0.76210316277E+02  0.41800000000E+01 0. -1.
         -5    1    3    3    0  502 -0.34295136245E+02 -0.14939592277E+02  0.38261188981E+02  0.53672514099E+02  0.41800000000E+01 0. -1.
        -11    1    1    2    0    0  0.91755196543E+01 -0.25989834097E+02 -0.12376638402E+01  0.27589734487E+02  0.00000000000E+00 0.  1.
         11    1    1    2    0    0 -0.42921469668E+02  0.33714083989E+02  0.31438803867E+02  0.62986430335E+02  0.00000000000E+00 0. -1.
</event>
<event>
 7    1  0.2688177E-009  0.2799886E+03  0.7561462E-02  0.1095695E+00
         -1   -1    0    0    0  501 -0.00000000000E+00  0.00000000000E+00  0.27298045136E+03  0.27298045136E+03  0.00000000000E+00 0.  1.
          1   -1    0    0  501    0  0.00000000000E+00 -0.00000000000E+00 -0.40489848399E+03  0.40489848399E+03  0.00000000000E+00 0. -1.
         25    2    1    2    0    0  0.95096330787E+02 -0.24315620240E+03 -0.24236672544E+03  0.37756740817E+03  0.12508903717E+03 0.  0.
          5    1    3    3  502    0  0.11057138623E+03 -0.14526783789E+03 -0.11373537720E+03  0.21513248152E+03  0.41800000000E+01 0.  1.
         -5    1    3    3    0  502 -0.15475055443E+02 -0.97888364508E+02 -0.12863134824E+03  0.16243492665E+03  0.41800000000E+01 0.  1.
        -11    1    1    2    0    0 -0.34757201747E+02  0.20239734162E+03  0.92987863149E+02  0.22543178494E+03  0.00000000000E+00 0.  1.
         11    1    1    2    0    0 -0.60339129040E+02  0.40758860774E+02  0.17460829654E+02  0.74879742235E+02  0.00000000000E+00 0. -1.
</event>
<event>
 7    1  0.2688177E-009  0.1899821E+03  0.7561462E-02  0.1158477E+00
          1   -1    0    0  501    0  0.00000000000E+00  0.00000000000E+00  0.15138233612E+04  0.15138233612E+04  0.00000000000E+00 0.  1.
         -1   -1    0    0    0  501 -0.00000000000E+00 -0.00000000000E+00 -0.29753834641E+02  0.29753834641E+02  0.00000000000E+00 0. -1.
         25    2    1    2    0    0 -0.11787199670E+03  0.13530386776E+03  0.66073437837E+03  0.69600192215E+03  0.12509121727E+03 0.  0.
          5    1    3    3  502    0 -0.67259100041E+01  0.16082933562E+02  0.29529716750E+03  0.29584081556E+03  0.41800000000E+01 0. -1.
         -5    1    3    3    0  502 -0.11114608669E+03  0.11922093420E+03  0.36543721087E+03  0.40016110659E+03  0.41800000000E+01 0. -1.
        -11    1    1    2    0    0  0.13088564504E+03 -0.11184880860E+03  0.66177730077E+03  0.68380582323E+03  0.00000000000E+00 0.  1.
         11    1    1    2    0    0 -0.13013648347E+02 -0.23455059163E+02  0.16155784744E+03  0.16376945049E+03  0.00000000000E+00 0. -1.
</event>
<event>
 7    1  0.2688177E-009  0.9102430E+02  0.7561462E-02  0.1300390E+00
         -1   -1    0    0    0  501 -0.00000000000E+00  0.00000000000E+00  0.30835079362E+02  0.30835079362E+02  0.00000000000E+00 0.  1.
          1   -1    0    0  501    0  0.00000000000E+00 -0.00000000000E+00 -0.66125068323E+03  0.66125068323E+03  0.00000000000E+00 0. -1.
         25    2    1    2    0    0 -0.42945888388E+02 -0.29314339183E+02 -0.52942300709E+03  0.54647889100E+03  0.12508708187E+03 0.  0.
          5    1    3    3  502    0 -0.40702633512E+02 -0.47360468794E+02 -0.10937152464E+03  0.12601317860E+03  0.41800000000E+01 0. -1.
         -5    1    3    3    0  502 -0.22432548764E+01  0.18046129610E+02 -0.42005148246E+03  0.42046571240E+03  0.41800000000E+01 0. -1.
        -11    1    1    2    0    0 -0.18165328816E+01 -0.28011312694E+02 -0.11622039668E+02  0.30381001244E+02  0.00000000000E+00 0.  1.
         11    1    1    2    0    0  0.44762421270E+02  0.57325651877E+02 -0.89370557107E+02  0.11522587035E+03  0.00000000000E+00 0. -1.
</event>
<event>
 7    1  0.3289300E-009  0.1503055E+03  0.7561462E-02  0.1200098E+00
         -2   -1    0    0    0  501 -0.00000000000E+00  0.00000000000E+00  0.30447499289E+02  0.30447499289E+02  0.00000000000E+00 0. -1.
          2   -1    0    0  501    0  0.00000000000E+00 -0.00000000000E+00 -0.94938634070E+03  0.94938634070E+03  0.00000000000E+00 0.  1.
         25    2    1    2    0    0 -0.63330324001E+02 -0.11085023170E+03 -0.41394583774E+03  0.45088517723E+03  0.12509109745E+03 0.  0.
          5    1    3    3  502    0  0.44302365103E+01  0.84903543046E+01  0.38279901314E+01  0.11128298172E+02  0.41800000000E+01 0. -1.
         -5    1    3    3    0  502 -0.67760560512E+02 -0.11934058600E+03 -0.41777382787E+03  0.43975687906E+03  0.41800000000E+01 0. -1.
        -11    1    1    2    0    0  0.93137737435E+01  0.96532103865E+02 -0.37727609910E+03  0.38954133081E+03  0.00000000000E+00 0.  1.
         11    1    1    2    0    0  0.54016550258E+02  0.14318127835E+02 -0.12771690457E+03  0.13940733195E+03  0.00000000000E+00 0. -1.
</event>
<event>
 7    1  0.2688177E-009  0.7912423E+02  0.7561462E-02  0.1331555E+00
         -2   -1    0    0    0  501 -0.00000000000E+00  0.00000000000E+00  0.38008880360E+02  0.38008880360E+02  0.00000000000E+00 0.  1.
          2   -1    0    0  501    0  0.00000000000E+00 -0.00000000000E+00 -0.34117304856E+03  0.34117304856E+03  0.00000000000E+00 0. -1.
         25    2    1    2    0    0  0.29376992394E+01  0.18588069335E+02 -0.12421651155E+03  0.17728784199E+03  0.12508833189E+03 0.  0.
          5    1    3    3  502    0 -0.30057477440E+02  0.11283257897E+02  0.13754428123E+02  0.35176988953E+02  0.41800000000E+01 0.  1.
         -5    1    3    3    0  502  0.32995176679E+02  0.73048114378E+01 -0.13797093968E+03  0.14211085303E+03  0.41800000000E+01 0.  1.
        -11    1    1    2    0    0  0.36441690652E+02 -0.33705140285E+02 -0.11537530843E+03  0.12560053780E+03  0.00000000000E+00 0. -1.
         11    1    1    2    0    0 -0.39379389891E+02  0.15117070950E+02 -0.63572348214E+02  0.76293549136E+02  0.00000000000E+00 0.  1.
</event>
<event>
 7    1  0.2688177E-009  0.2153029E+03  0.7561462E-02  0.1137434E+00
          1   -1    0    0  501    0  0.00000000000E+00  0.00000000000E+00  0.35645850838E+02  0.35645850838E+02  0.00000000000E+00 0. -1.
         -1   -1    0    0    0  501 -0.00000000000E+00 -0.00000000000E+00 -0.14440505197E+04  0.14440505197E+04  0.00000000000E+00 0.  1.
         25    2    1    2    0    0 -0.19516080937E+03  0.17584883400E+02 -0.61577612224E+03  0.65819793837E+03  0.12508926302E+03 0.  0.
          5    1    3    3  502    0  0.14939356397E+02  0.12337397563E+02 -0.31069801553E+02  0.36853774796E+02  0.41800000000E+01 0. -1.
         -5    1    3    3    0  502 -0.21010016576E+03  0.52474858377E+01 -0.58470632068E+03  0.62134416358E+03  0.41800000000E+01 0. -1.
        -11    1    1    2    0    0  0.14526589196E+03  0.59992891407E+01 -0.68813610871E+03  0.70332743083E+03  0.00000000000E+00 0.  1.
         11    1    1    2    0    0  0.49894917407E+02 -0.23584172541E+02 -0.10449243791E+03  0.11817100134E+03  0.00000000000E+00 0. -1.
</event>
<event>
 7    1  0.2688177E-009  0.1256568E+03  0.7561462E-02  0.1234046E+00
          2   -1    0    0  501    0  0.00000000000E+00  0.00000000000E+00  0.72772318596E+03  0.72772318596E+03  0.00000000000E+00 0. -1.
         -2   -1    0    0    0  501 -0.00000000000E+00 -0.00000000000E+00 -0.31110509842E+02  0.31110509842E+02  0.00000000000E+00 0.  1.
         25    2    1    2    0    0 -0.47972173300E+02 -0.83078924414E+02  0.48019012387E+03  0.50541064619E+03  0.12511566301E+03 0.  0.
          5    1    3    3  502    0 -0.47125981711E+02 -0.11383045732E+03  0.33556064600E+03  0.35748657416E+03  0.41800000000E+01 0.  1.
         -5    1    3    3    0  502 -0.84619158910E+00  0.30751532903E+02  0.14462947787E+03  0.14792407203E+03  0.41800000000E+01 0.  1.
        -11    1    1    2    0    0  0.33565449830E+02  0.43958859332E+02  0.20180363002E+03  0.20924561125E+03  0.00000000000E+00 0. -1.
         11    1    1    2    0    0  0.14406723470E+02  0.39120065082E+02  0.14618922229E+02  0.44177438363E+02  0.00000000000E+00 0.  1.
</event>
<event>
 7    1  0.2688177E-009  0.1122415E+03  0.7561462E-02  0.1256474E+00
          2   -1    0    0  501    0  0.00000000000E+00  0.00000000000E+00  0.95977890718E+03  0.95977890718E+03  0.00000000000E+00 0.  1.
         -2   -1    0    0    0  501 -0.00000000000E+00 -0.00000000000E+00 -0.16352341954E+02  0.16352341954E+02  0.00000000000E+00 0. -1.
         25    2    1    2    0    0 -0.65240654991E+02 -0.43126184019E+01  0.52983093921E+03  0.54831275589E+03  0.12510440594E+03 0.  0.
          5    1    3    3  502    0 -0.38602892771E+02  0.55840609529E+02  0.18205977786E+03  0.19434915003E+03  0.41800000000E+01 0. -1.
         -5    1    3    3    0  502 -0.26637762220E+02 -0.60153227931E+02  0.34777116135E+03  0.35396360586E+03  0.41800000000E+01 0. -1.
        -11    1    1    2    0    0  0.66572575151E+02 -0.17389656185E+02  0.38879358303E+03  0.39483510243E+03  0.00000000000E+00 0.  1.
         11    1    1    2    0    0 -0.13319201600E+01  0.21702274587E+02  0.24802042996E+02  0.32983390825E+02  0.00000000000E+00 0. -1.
</event>
<event>
 7    1  0.2688177E-009  0.9688323E+02  0.7561462E-02  0.1286990E+00
         -1   -1    0    0    0  501 -0.00000000000E+00  0.00000000000E+00  0.10231054679E+03  0.10231054679E+03  0.00000000000E+00 0.  1.
          1   -1    0    0  501    0  0.00000000000E+00 -0.00000000000E+00 -0.23090680008E+03  0.23090680008E+03  0.00000000000E+00 0. -1.
         25    2    1    2    0    0  0.14726335827E+02  0.65133488404E+02 -0.16242173555E+03  0.21560681041E+03  0.12508493209E+03 0.  0.
          5    1    3    3  502    0  0.35557777616E+02  0.77069398009E+02 -0.17002455508E+03  0.19007858740E+03  0.41800000000E+01 0. -1.
         -5    1    3    3    0  502 -0.20831441789E+02 -0.11935909605E+02  0.76028195292E+01  0.25528223007E+02  0.41800000000E+01 0. -1.
        -11    1    1    2    0    0 -0.16520904274E+02  0.25441973827E+01 -0.23541487312E+02  0.28872388942E+02  0.00000000000E+00 0. -1.
         11    1    1    2    0    0  0.17945684467E+01 -0.67677685786E+02  0.57366969569E+02  0.88738147528E+02  0.00000000000E+00 0.  1.
</event>
<event>
 7    1  0.2688177E-009  0.1093744E+03  0.7561462E-02  0.1261733E+00
         -3   -1    0    0    0  501 -0.00000000000E+00  0.00000000000E+00  0.56320549148E+02  0.56320549148E+02  0.00000000000E+00 0.  1.
          3   -1    0    0  501    0  0.00000000000E+00 -0.00000000000E+00 -0.26100333944E+03  0.26100333944E+03  0.00000000000E+00 0. -1.
         25    2    1    2    0    0 -0.49995603644E+02 -0.21640453167E+02 -0.12811024999E+03  0.18716117133E+03  0.12509675577E+03 0.  0.
          5    1    3    3  502    0 -0.46210654283E+02  0.43303664301E+02 -0.32130977842E+02  0.71137219852E+02  0.41800000000E+01 0. -1.
         -5    1    3    3    0  502 -0.37849493606E+01 -0.64944117468E+02 -0.95979272146E+02  0.11602395148E+03  0.41800000000E+01 0. -1.
        -11    1    1    2    0    0  0.59705953431E+02  0.38211368194E+02 -0.25059590116E+02  0.75185720659E+02  0.00000000000E+00 0.  1.
         11    1    1    2    0    0 -0.97103497868E+01 -0.16570915027E+02 -0.51512950190E+02  0.54976996600E+02  0.00000000000E+00 0. -1.
</event>
<event>
 7    1  0.2688177E-009  0.8246440E+02  0.7561462E-02  0.1322200E+00
          1   -1    0    0  501    0  0.00000000000E+00  0.00000000000E+00  0.16249157762E+03  0.16249157762E+03  0.00000000000E+00 0.  1.
         -1   -1    0    0    0  501 -0.00000000000E+00 -0.00000000000E+00 -0.82527245983E+02  0.82527245983E+02  0.00000000000E+00 0. -1.
         25    2    1    2    0    0  0.36234934533E+01 -0.22685137211E+02  0.10377358806E+02  0.12760487539E+03  0.12509024540E+03 0.  0.
          5    1    3    3  502    0 -0.21534402616E+02 -0.35595755320E+02 -0.47361779607E+02  0.63177518631E+02  0.41800000000E+01 0. -1.
         -5    1    3    3    0  502  0.25157896069E+02  0.12910618109E+02  0.57739138413E+02  0.64427356762E+02  0.41800000000E+01 0. -1.
        -11    1    1    2    0    0  0.43356549457E+02  0.19215975749E+02  0.33223228048E+02  0.57903600810E+02  0.00000000000E+00 0. -1.
         11    1    1    2    0    0 -0.46980042910E+02  0.34691614619E+01  0.36363744783E+02  0.59510347400E+02  0.00000000000E+00 0.  1.
</event>
<event>
 7    1  0.2688177E-009  0.1276719E+03  0.7561462E-02  0.1230952E+00
         -2   -1    0    0    0  501 -0.00000000000E+00  0.00000000000E+00  0.86846475891E+02  0.86846475891E+02  0.00000000000E+00 0.  1.
          2   -1    0    0  501    0  0.00000000000E+00 -0.00000000000E+00 -0.20018161484E+03  0.20018161484E+03  0.00000000000E+00 0. -1.
         25    2    1    2    0    0 -0.58459332836E+02 -0.46988970438E+02 -0.54117047599E+02  0.15557005369E+03  0.12509168568E+03 0.  0.
          5    1    3    3  502    0 -0.13279206292E+02  0.39907586529E+02  0.25459735609E+01  0.42342734485E+02  0.41800000000E+01 0. -1.
         -5    1    3    3    0  502 -0.45180126545E+02 -0.86896556967E+02 -0.56663021160E+02  0.11322731920E+03  0.41800000000E+01 0. -1.
        -11    1    1    2    0    0 -0.23218901144E+02  0.81649932942E+01 -0.25731801167E+01  0.24746832964E+02  0.00000000000E+00 0.  1.
         11    1    1    2    0    0  0.81678233980E+02  0.38823977144E+02 -0.56644911237E+02  0.10671120408E+03  0.00000000000E+00 0. -1.
</event>
<event>
 7    1  0.2688177E-009  0.8120607E+02  0.7561462E-02  0.1325663E+00
         -2   -1    0    0    0  501 -0.00000000000E+00  0.00000000000E+00  0.10908108791E+03  0.10908108791E+03  0.00000000000E+00 0.  1.
          2   -1    0    0  501    0  0.00000000000E+00 -0.00000000000E+00 -0.13881411752E+03  0.13881411752E+03  0.00000000000E+00 0. -1.
         25    2    1    2    0    0  0.42537282984E+02  0.34466140676E+02 -0.35312372749E+02  0.14104198844E+03  0.12509413870E+03 0.  0.
          5    1    3    3  502    0  0.19763552314E+02  0.26865911454E+02  0.45537302224E+02  0.56599412471E+02  0.41800000000E+01 0. -1.
         -5    1    3    3    0  502  0.22773730669E+02  0.76002292222E+01 -0.80849674973E+02  0.84442575968E+02  0.41800000000E+01 0. -1.
        -11    1    1    2    0    0  0.63438973048E+01  0.25950590133E+02 -0.81606536890E+01  0.27933392739E+02  0.00000000000E+00 0. -1.
         11    1    1    2    0    0 -0.48881180288E+02 -0.60416730809E+02  0.13739996832E+02  0.78919824258E+02  0.00000000000E+00 0.  1.
</event>
<event>
 7    1  0.2688177E-009  0.8098585E+02  0.7561462E-02  0.1326277E+00
         -1   -1    0    0    0  501 -0.00000000000E+00  0.00000000000E+00  0.80968564791E+02  0.80968564791E+02  0.00000000000E+00 0.  1.
          1   -1    0    0  501    0  0.00000000000E+00 -0.00000000000E+00 -0.24646581754E+03  0.24646581754E+03  0.00000000000E+00 0. -1.
         25    2    1    2    0    0  0.33839029301E+02  0.13789556603E+02  0.46117854507E+01  0.13040008807E+03  0.12509069761E+03 0.  0.
          5    1    3    3  502    0 -0.26393260156E+02  0.12435445367E+02 -0.43941078844E+02  0.52910634972E+02  0.41800000000E+01 0.  1.
         -5    1    3    3    0  502  0.60232289456E+02  0.13541112360E+01  0.48552864295E+02  0.77489453099E+02  0.41800000000E+01 0.  1.
        -11    1    1    2    0    0  0.99522640587E+01 -0.24994711566E+02 -0.14037397215E+03  0.14292877675E+03  0.00000000000E+00 0. -1.
         11    1    1    2    0    0 -0.43791293359E+02  0.11205154962E+02 -0.29735066046E+02  0.54105517506E+02  0.00000000000E+00 0.  1.
</event>
<event>
 7    1  0.2688177E-009  0.7462539E+02  0.7561462E-02  0.1345035E+00
          4   -1    0    0  501    0  0.00000000000E+00  0.00000000000E+00  0.88453253002E+02  0.88453253002E+02  0.00000000000E+00 0.  1.
         -4   -1    0    0    0  501 -0.00000000000E+00 -0.00000000000E+00 -0.14865849154E+03  0.14865849154E+03  0.00000000000E+00 0. -1.
         25    2    1    2    0    0 -0.24031257155E+02  0.27849115158E+02 -0.38652379629E+02  0.13599203451E+03  0.12508697959E+03 0.  0.
          5    1    3    3  502    0 -0.36159225467E+02 -0.24735760423E+02  0.26435669040E+02  0.51338722498E+02  0.41800000000E+01 0. -1.
         -5    1    3    3    0  502  0.12127968313E+02  0.52584875581E+02 -0.65088048670E+02  0.84653312014E+02  0.41800000000E+01 0. -1.
        -11    1    1    2    0    0  0.33441402638E+02 -0.22188218140E+02  0.28919184619E+02  0.49466793647E+02  0.00000000000E+00 0.  1.
         11    1    1    2    0    0 -0.94101454835E+01 -0.56608970176E+01 -0.50472043527E+02  0.51652916382E+02  0.00000000000E+00 0. -1.
</event>
<event>
 7    1  0.2688177E-009  0.1229597E+03  0.7561462E-02  0.1238293E+00
          2   -1    0    0  501    0  0.00000000000E+00  0.00000000000E+00  0.11177703218E+04  0.11177703218E+04  0.00000000000E+00 0. -1.
         -2   -1    0    0    0  501 -0.00000000000E+00 -0.00000000000E+00 -0.15395189896E+02  0.15395189896E+02  0.00000000000E+00 0.  1.
         25    2    1    2    0    0 -0.58599691687E+02  0.40236896988E+02  0.69572529954E+03  0.71044604587E+03  0.12508780885E+03 0.  0.
          5    1    3    3  502    0 -0.96039760015E+02  0.40257068336E+02  0.45444581341E+03  0.46624321634E+03  0.41800000000E+01 0.  1.
         -5    1    3    3    0  502  0.37440068328E+02 -0.20171347728E-01  0.24127948613E+03  0.24420282953E+03  0.41800000000E+01 0.  1.
        -11    1    1    2    0    0 -0.12039059138E+02 -0.30411968546E+02  0.55675334353E+02  0.64572204787E+02  0.00000000000E+00 0.  1.
         11    1    1    2    0    0  0.70638750825E+02 -0.98249284429E+01  0.35097449800E+03  0.35814726103E+03  0.00000000000E+00 0. -1.
</event>
<event>
 7    1  0.2688177E-009  0.9706256E+02  0.7561462E-02  0.1286597E+00
          1   -1    0    0  501    0  0.00000000000E+00  0.00000000000E+00  0.10066135009E+04  0.10066135009E+04  0.00000000000E+00 0. -1.
         -1   -1    0    0    0  501 -0.00000000000E+00 -0.00000000000E+00 -0.18238219032E+02  0.18238219032E+02  0.00000000000E+00 0.  1.
         25    2    1    2    0    0 -0.45248646329E+02  0.31718219447E+02  0.78305876914E+03  0.79491000992E+03  0.12508957790E+03 0.  0.
          5    1    3    3  502    0  0.12987364425E+02 -0.21799975178E+02  0.39432031733E+02  0.47077256495E+02  0.41800000000E+01 0. -1.
         -5    1    3    3    0  502 -0.58236010754E+02  0.53518194625E+02  0.74362673741E+03  0.74783275342E+03  0.41800000000E+01 0. -1.
        -11    1    1    2    0    0  0.13008447301E+02 -0.50326042691E+02  0.57510427095E+02  0.77520187685E+02  0.00000000000E+00 0.  1.
         11    1    1    2    0    0  0.32240199027E+02  0.18607823244E+02  0.14780608561E+03  0.15242152231E+03  0.00000000000E+00 0. -1.
</event>
<event>
 7    1  0.2688177E-009  0.1379113E+03  0.7561462E-02  0.1216167E+00
         -2   -1    0    0    0  501 -0.00000000000E+00  0.00000000000E+00  0.42012829817E+02  0.42012829817E+02  0.00000000000E+00 0.  1.
          2   -1    0    0  501    0  0.00000000000E+00 -0.00000000000E+00 -0.64107146393E+03  0.64107146393E+03  0.00000000000E+00 0. -1.
         25    2    1    2    0    0  0.10759515070E+03 -0.22474464483E+02 -0.20565787914E+03  0.26462156359E+03  0.12509032999E+03 0.  0.
          5    1    3    3  502    0 -0.15499189878E+02 -0.22526645413E+02 -0.95348910993E+02  0.99280218916E+02  0.41800000000E+01 0. -1.
         -5    1    3    3    0  502  0.12309434058E+03  0.52180930078E-01 -0.11030896815E+03  0.16534134468E+03  0.41800000000E+01 0. -1.
        -11    1    1    2    0    0 -0.87529476291E+02  0.41923487548E+02 -0.36839243146E+03  0.38096190307E+03  0.00000000000E+00 0.  1.
         11    1    1    2    0    0 -0.20065674411E+02 -0.19449023065E+02 -0.25008323508E+02  0.37500827090E+02  0.00000000000E+00 0. -1.
</event>
<event>
 7    1  0.2688177E-009  0.2801959E+03  0.7561462E-02  0.1095582E+00
         -1   -1    0    0    0  501 -0.00000000000E+00  0.00000000000E+00  0.16727037558E+03  0.16727037558E+03  0.00000000000E+00 0.  1.
          1   -1    0    0  501    0  0.00000000000E+00 -0.00000000000E+00 -0.52871838603E+03  0.52871838603E+03  0.00000000000E+00 0. -1.
         25    2    1    2    0    0  0.26892692758E+03 -0.63964525311E+02 -0.19487733441E+03  0.36060805422E+03  0.12509132833E+03 0.  0.
          5    1    3    3  502    0  0.16218118914E+03 -0.10637944689E+02 -0.44440094247E+02  0.16854761450E+03  0.41800000000E+01 0. -1.
         -5    1    3    3    0  502  0.10674573845E+03 -0.53326580622E+02 -0.15043724016E+03  0.19206043972E+03  0.41800000000E+01 0. -1.
        -11    1    1    2    0    0 -0.19721281865E+03  0.31587454904E+02 -0.71885621806E+02  0.21226918234E+03  0.00000000000E+00 0.  1.
         11    1    1    2    0    0 -0.71714108934E+02  0.32377070407E+02 -0.94685054232E+02  0.12311152506E+03  0.00000000000E+00 0. -1.
</event>
<event>
 7    1  0.2688177E-009  0.6864013E+02  0.7561462E-02  0.1364779E+00
         -1   -1    0    0    0  501 -0.00000000000E+00  0.00000000000E+00  0.23740315823E+02  0.23740315823E+02  0.00000000000E+00 0.  1.
          1   -1    0    0  501    0  0.00000000000E+00 -0.00000000000E+00 -0.13474362897E+04  0.13474362897E+04  0.00000000000E+00 0. -1.
         25    2    1    2    0    0  0.89112378986E+01  0.38289092669E+02 -0.12506203929E+04  0.12574753892E+04  0.12509005676E+03 0.  0.
          5    1    3    3  502    0 -0.58180288117E+01  0.58403862415E+02 -0.11942227766E+04  0.11956715156E+04  0.41800000000E+01 0.  1.
         -5    1    3    3    0  502  0.14729266710E+02 -0.20114769746E+02 -0.56397616303E+02  0.61803873539E+02  0.41800000000E+01 0.  1.
        -11    1    1    2    0    0  0.13357913691E+02 -0.21332682939E+02  0.91972511260E+01  0.26797511970E+02  0.00000000000E+00 0.  1.
         11    1    1    2    0    0 -0.22269151589E+02 -0.16956409730E+02 -0.82272832092E+02  0.86903704431E+02  0.00000000000E+00 0. -1.
</event>
<event>
 7    1  0.2688177E-009  0.1151701E+03  0.7561462E-02  0.1251284E+00
          1   -1    0    0  501    0  0.00000000000E+00  0.00000000000E+00  0.76996875189E+03  0.76996875189E+03  0.00000000000E+00 0. -1.
         -1   -1    0    0    0  501 -0.00000000000E+00 -0.00000000000E+00 -0.25489615629E+02  0.25489615629E+02  0.00000000000E+00 0.  1.
         25    2    1    2    0    0 -0.20387601414E+02 -0.42813915781E+02  0.61526222762E+03  0.62963795032E+03  0.12509058345E+03 0.  0.
          5    1    3    3  502    0 -0.30047993652E+02 -0.84879828204E+02  0.43390670317E+03  0.44317035846E+03  0.41800000000E+01 0. -1.
         -5    1    3    3    0  502  0.96603922382E+01  0.42065912423E+02  0.18135552445E+03  0.18646759186E+03  0.41800000000E+01 0. -1.
        -11    1    1    2    0    0 -0.54675077876E+01  0.63495080635E+02  0.53602750113E+02  0.83275288808E+02  0.00000000000E+00 0.  1.
         11    1    1    2    0    0  0.25855109202E+02 -0.20681164854E+02  0.75614158527E+02  0.82545128393E+02  0.00000000000E+00 0. -1.
</event>
<event>
 7    1  0.2688177E-009  0.1109312E+03  0.7561462E-02  0.1258855E+00
          1   -1    0    0  501    0  0.00000000000E+00  0.00000000000E+00  0.29822889217E+03  0.29822889217E+03  0.00000000000E+00 0. -1.
         -1   -1    0    0    0  501 -0.00000000000E+00 -0.00000000000E+00 -0.51464832470E+02  0.51464832470E+02  0.00000000000E+00 0.  1.
         25    2    1    2    0    0 -0.17033370957E+02 -0.53936727967E+02  0.13336495332E+03  0.19139808512E+03  0.12509080647E+03 0.  0.
          5    1    3    3  502    0  0.12397831485E+02  0.33036873007E+02  0.73695573481E+02  0.81814736780E+02  0.41800000000E+01 0. -1.
         -5    1    3    3    0  502 -0.29431202442E+02 -0.86973600974E+02  0.59669379837E+02  0.10958334834E+03  0.41800000000E+01 0. -1.
        -11    1    1    2    0    0  0.43337608410E+02  0.52494263094E+02  0.11303467499E+03  0.13194936040E+03  0.00000000000E+00 0. -1.
         11    1    1    2    0    0 -0.26304237454E+02  0.14424648728E+01  0.36443138948E+00  0.26346279114E+02  0.00000000000E+00 0.  1.
</event>
<event>
 7    1  0.2688177E-009  0.9722420E+02  0.7561462E-02  0.1286244E+00
          1   -1    0    0  501    0  0.00000000000E+00  0.00000000000E+00  0.36550645904E+03  0.36550645904E+03  0.00000000000E+00 0. -1.
         -1   -1    0    0    0  501 -0.00000000000E+00 -0.00000000000E+00 -0.48723203276E+02  0.48723203276E+02  0.00000000000E+00 0.  1.
         25    2    1    2    0    0  0.45423112701E+02  0.25524113501E+02  0.26521098676E+03  0.29782414920E+03  0.12509043453E+03 0.  0.
          5    1    3    3  502    0  0.13091463787E+02 -0.42652353835E+02  0.17244942070E+03  0.17817655517E+03  0.41800000000E+01 0. -1.
         -5    1    3    3    0  502  0.32331648914E+02  0.68176467336E+02  0.92761566062E+02  0.11964759403E+03  0.41800000000E+01 0. -1.
        -11    1    1    2    0    0 -0.34433875736E+01 -0.31478948743E+02  0.64688226706E+02  0.72023244903E+02  0.00000000000E+00 0. -1.
         11    1    1    2    0    0 -0.41979725127E+02  0.59548352411E+01 -0.13115957710E+02  0.44382268206E+02  0.00000000000E+00 0.  1.
</event>
<event>
 7    1  0.2688177E-009  0.2514536E+03  0.7561462E-02  0.1112390E+00
         -2   -1    0    0    0  501 -0.00000000000E+00  0.00000000000E+00  0.19850251048E+03  0.19850251048E+03  0.00000000000E+00 0.  1.
          2   -1    0    0  501    0  0.00000000000E+00 -0.00000000000E+00 -0.35564710951E+03  0.35564710951E+03  0.00000000000E+00 0. -1.
         25    2    1    2    0    0  0.10967292817E+03 -0.21551106713E+03 -0.80938927891E+02  0.28402837142E+03  0.12509130463E+03 0.  0.
          5    1    3    3  502    0  0.71179224868E+01  0.94121379315E+01  0.14369739630E+02  0.19058199757E+02  0.41800000000E+01 0.  1.
         -5    1    3    3    0  502  0.10255500568E+03 -0.22492320506E+03 -0.95308667521E+02  0.26497017166E+03  0.41800000000E+01 0.  1.
        -11    1    1    2    0    0 -0.53361568418E+02  0.13252544630E+03  0.21051535501E+01  0.14288065850E+03  0.00000000000E+00 0.  1.
         11    1    1    2    0    0 -0.56311359753E+02  0.82985620825E+02 -0.78310824687E+02  0.12724059008E+03  0.00000000000E+00 0. -1.
</event>
<event>
 7    1  0.2688177E-009  0.3012218E+03  0.7561462E-02  0.1084631E+00
          2   -1    0    0  501    0  0.00000000000E+00  0.00000000000E+00  0.92422674584E+03  0.92422674584E+03  0.00000000000E+00 0. -1.
         -2   -1    0    0    0  501 -0.00000000000E+00 -0.00000000000E+00 -0.10116822122E+03  0.10116822122E+03  0.00000000000E+00 0.  1.
         25    2    1    2    0    0  0.97317658317E+02 -0.26737381443E+03  0.46136750451E+03  0.55629534826E+03  0.12508020230E+03 0.  0.
          5    1    3    3  502    0  0.12605584191E+03 -0.20452741190E+03  0.33596480090E+03  0.41305127689E+03  0.41800000000E+01 0.  1.
         -5    1    3    3    0  502 -0.28738183594E+02 -0.62846402535E+02  0.12540270362E+03  0.14324407137E+03  0.41800000000E+01 0.  1.
        -11    1    1    2    0    0 -0.10558970395E+03  0.21100243037E+03  0.25027195692E+03  0.34395822948E+03  0.00000000000E+00 0. -1.
         11    1    1    2    0    0  0.82720456328E+01  0.56371384062E+02  0.11141906318E+03  0.12514138932E+03  0.00000000000E+00 0.  1.
</event>
<event>
 7    1  0.2688177E-009  0.1298851E+03  0.7561462E-02  0.1227626E+00
         -3   -1    0    0    0  501 -0.00000000000E+00  0.00000000000E+00  0.15276880847E+03  0.15276880847E+03  0.00000000000E+00 0.  1.
          3   -1    0    0  501    0  0.00000000000E+00 -0.00000000000E+00 -0.16868731015E+03  0.16868731015E+03  0.00000000000E+00 0. -1.
         25    2    1    2    0    0 -0.93019923219E+02  0.55871129119E+02 -0.49722308415E+02  0.17289563831E+03  0.12508518940E+03 0.  0.
          5    1    3    3  502    0 -0.56898731653E+02 -0.22456625107E+02  0.17159119446E+02  0.63668465154E+02  0.41800000000E+01 0.  1.
         -5    1    3    3    0  502 -0.36121191566E+02  0.78327754226E+02 -0.66881427861E+02  0.10922717315E+03  0.41800000000E+01 0.  1.
        -11    1    1    2    0    0  0.21816889363E+02 -0.36616509623E+00 -0.30656559203E+02  0.37628916548E+02  0.00000000000E+00 0. -1.
         11    1    1    2    0    0  0.71203033856E+02 -0.55504964023E+02  0.64460365936E+02  0.11093156376E+03  0.00000000000E+00 0.  1.
</event>
<event>
 7    1  0.2688177E-009  0.1021547E+03  0.7561462E-02  0.1275829E+00
          2   -1    0    0  501    0  0.00000000000E+00  0.00000000000E+00  0.11070662610E+03  0.11070662610E+03  0.00000000000E+00 0.  1.
         -2   -1    0    0    0  501 -0.00000000000E+00 -0.00000000000E+00 -0.16784439085E+03  0.16784439085E+03  0.00000000000E+00 0. -1.
         25    2    1    2    0    0 -0.24707858018E+02 -0.81079710513E+02  0.67771552239E+01  0.15125440719E+03  0.12509024005E+03 0.  0.
          5    1    3    3  502    0 -0.27405614826E+02 -0.84863538884E+02  0.53523590755E+02  0.10409195513E+03  0.41800000000E+01 0.  1.
         -5    1    3    3    0  502  0.26977568083E+01  0.37838283710E+01 -0.46746435531E+02  0.47162452054E+02  0.41800000000E+01 0.  1.
        -11    1    1    2    0    0 -0.23745223881E+02  0.31626124039E+02 -0.14030662538E+02  0.41963160870E+02  0.00000000000E+00 0.  1.
         11    1    1    2    0    0  0.48453081899E+02  0.49453586474E+02 -0.49884257431E+02  0.85333448894E+02  0.00000000000E+00 0. -1.
</event>
<event>
 7    1  0.2688177E-009  0.9197953E+02  0.7561462E-02  0.1298128E+00
         -1   -1    0    0    0  501 -0.00000000000E+00  0.00000000000E+00  0.19699065030E+03  0.19699065030E+03  0.00000000000E+00 0.  1.
          1   -1    0    0  501    0  0.00000000000E+00 -0.00000000000E+00 -0.80993096689E+02  0.80993096689E+02  0.00000000000E+00 0. -1.
         25    2    1    2    0    0 -0.12242552187E+02  0.64247673021E+02  0.59897341585E+02  0.15333976939E+03  0.12509096600E+03 0.  0.
          5    1    3    3  502    0  0.10469745005E+02  0.40591560135E+01  0.83749176001E+02  0.84601945538E+02  0.41800000000E+01 0. -1.
         -5    1    3    3    0  502 -0.22712297192E+02  0.60188517008E+02 -0.23851834416E+02  0.68737823855E+02  0.41800000000E+01 0. -1.
        -11    1    1    2    0    0 -0.36283813140E+02 -0.18113406419E+02  0.37297812000E+02  0.55097525970E+02  0.00000000000E+00 0. -1.
         11    1    1    2    0    0  0.48526365327E+02 -0.46134266602E+02  0.18802400023E+02  0.69546451624E+02  0.00000000000E+00 0.  1.
</event>
<event>
 7    1  0.2688177E-009  0.6812086E+02  0.7561462E-02  0.1366602E+00
         -2   -1    0    0    0  501 -0.00000000000E+00  0.00000000000E+00  0.29327202082E+03  0.29327202082E+03  0.00000000000E+00 0.  1.
          2   -1    0    0  501    0  0.00000000000E+00 -0.00000000000E+00 -0.54750159311E+02  0.54750159311E+02  0.00000000000E+00 0. -1.
         25    2    1    2    0    0  0.62044762097E+01 -0.12672817563E+02  0.45322079404E+02  0.13379218420E+03  0.12508861596E+03 0.  0.
          5    1    3    3  502    0  0.15156574630E+01 -0.28055848330E+02 -0.38776490727E+02  0.48067832031E+02  0.41800000000E+01 0. -1.
         -5    1    3    3    0  502  0.46888187467E+01  0.15383030766E+02  0.84098570131E+02  0.85724352170E+02  0.41800000000E+01 0. -1.
        -11    1    1    2    0    0  0.10826309182E+02 -0.37082348976E+02  0.10023452413E+03  0.10742099144E+03  0.00000000000E+00 0. -1.
         11    1    1    2    0    0 -0.17030785391E+02  0.49755166539E+02  0.92965257983E+02  0.10680900449E+03  0.00000000000E+00 0.  1.
</event>
<event>
 7    1  0.2688177E-009  0.7871615E+02  0.7561462E-02  0.1332735E+00
          1   -1    0    0  501    0  0.00000000000E+00  0.00000000000E+00  0.32089415810E+03  0.32089415810E+03  0.00000000000E+00 0. -1.
         -1   -1    0    0    0  501 -0.00000000000E+00 -0.00000000000E+00 -0.43460652671E+02  0.43460652671E+02  0.00000000000E+00 0.  1.
         25    2    1    2    0    0 -0.24710563681E+02  0.34661586273E+02  0.19114441520E+03  0.23236933193E+03  0.12508909402E+03 0.  0.
          5    1    3    3  502    0 -0.34092730078E+02  0.32314793209E+02  0.20756736502E+03  0.21285733139E+03  0.41800000000E+01 0. -1.
         -5    1    3    3    0  502  0.93821663971E+01  0.23467930639E+01 -0.16422949829E+02  0.19512000540E+02  0.41800000000E+01 0. -1.
        -11    1    1    2    0    0  0.84364949293E+01  0.30979860913E+02  0.31025570007E+02  0.44648765079E+02  0.00000000000E+00 0. -1.
         11    1    1    2    0    0  0.16274068752E+02 -0.65641447186E+02  0.55263520228E+02  0.87336713760E+02  0.00000000000E+00 0.  1.
</event>
<event>
 7    1  0.2688177E-009  0.1271513E+03  0.7561462E-02  0.1231745E+00
          2   -1    0    0  501    0  0.00000000000E+00  0.00000000000E+00  0.38949300185E+03  0.38949300185E+03  0.00000000000E+00 0.  1.
         -2   -1    0    0    0  501 -0.00000000000E+00 -0.00000000000E+00 -0.70655833151E+02  0.70655833151E+02  0.00000000000E+00 0. -1.
         25    2    1    2    0    0 -0.20331463779E+02  0.69176337679E+02  0.27530704364E+02  0.14697672761E+03  0.12508191182E+03 0.  0.
          5    1    3    3  502    0 -0.45066283563E+02  0.94529684219E+02  0.35078593801E+02  0.11052063724E+03  0.41800000000E+01 0.  1.
         -5    1    3    3    0  502  0.24734819784E+02 -0.25353346541E+02 -0.75478894366E+01  0.36456090376E+02  0.41800000000E+01 0.  1.
        -11    1    1    2    0    0 -0.17560376124E+02 -0.73614111116E+02  0.17197276118E+03  0.18788835715E+03  0.00000000000E+00 0. -1.
         11    1    1    2    0    0  0.37891839903E+02  0.44377734370E+01  0.11933370315E+03  0.12528375023E+03  0.00000000000E+00 0.  1.
</event>
<event>
 7    1  0.2688177E-009  0.1551191E+03  0.7561462E-02  0.1194320E+00
         -2   -1    0    0    0  501 -0.00000000000E+00  0.00000000000E+00  0.45532518886E+03  0.45532518886E+03  0.00000000000E+00 0.  1.
          2   -1    0    0  501    0  0.00000000000E+00 -0.00000000000E+00 -0.11200891050E+03  0.11200891050E+03  0.00000000000E+00 0. -1.
         25    2    1    2    0    0 -0.75458583428E+02 -0.88909698957E+02 -0.22896284369E+02  0.17254384859E+03  0.12509279542E+03 0.  0.
          5    1    3    3  502    0 -0.10794505754E+03 -0.71241804360E+02 -0.10837184998E+01  0.12940702060E+03  0.41800000000E+01 0. -1.
         -5    1    3    3    0  502  0.32486474107E+02 -0.17667894597E+02 -0.21812565869E+02  0.43136827992E+02  0.41800000000E+01 0. -1.
        -11    1    1    2    0    0  0.52039228194E+02  0.10362747298E+03  0.25398664679E+03  0.27920592969E+03  0.00000000000E+00 0.  1.
         11    1    1    2    0    0  0.23419355234E+02 -0.14717774020E+02  0.11222591593E+03  0.11558432108E+03  0.00000000000E+00 0. -1.
</event>
<event>
 7    1  0.2688177E-009  0.1616653E+03  0.7561462E-02  0.1186829E+00
         -2   -1    0    0    0  501 -0.00000000000E+00  0.00000000000E+00  0.65599696130E+02  0.65599696130E+02  0.00000000000E+00 0.  1.
          2   -1    0    0  501    0  0.00000000000E+00 -0.00000000000E+00 -0.66353015659E+03  0.66353015659E+03  0.00000000000E+00 0. -1.
         25    2    1    2    0    0 -0.27947910434E+02 -0.14889206318E+03 -0.47404378105E+03  0.51314208902E+03  0.12508942801E+03 0.  0.
          5    1    3    3  502    0 -0.33182939389E+02 -0.68344315159E+02 -0.38679780434E+03  0.39421068824E+03  0.41800000000E+01 0. -1.
         -5    1    3    3    0  502  0.52350289545E+01 -0.80547748026E+02 -0.87245976707E+02  0.11893140078E+03  0.41800000000E+01 0.  1.
        -11    1    1    2    0    0  0.45180595971E+02  0.56070569250E+02 -0.90938854276E+02  0.11599599219E+03  0.00000000000E+00 0. -1.
         11    1    1    2    0    0 -0.17232685537E+02  0.92821493935E+02 -0.32947825136E+02  0.99991771503E+02  0.00000000000E+00 0.  1.
</event>
<event>
 7    1  0.2688177E-009  0.1272787E+03  0.7561462E-02  0.1231550E+00
          1   -1    0    0  501    0  0.00000000000E+00  0.00000000000E+00  0.96805602810E+02  0.96805602810E+02  0.00000000000E+00 0. -1.
         -1   -1    0    0    0  501 -0.00000000000E+00 -0.00000000000E+00 -0.25400240560E+03  0.25400240560E+03  0.00000000000E+00 0.  1.
         25    2    1    2    0    0 -0.55378122266E+02 -0.48422404645E+02  0.11038965209E+02  0.14553418702E+03  0.12508746996E+03 0.  0.
          5    1    3    3  502    0  0.36948152592E+02 -0.67762793245E+01 -0.15335125430E+02  0.40788753516E+02  0.41800000000E+01 0.  1.
         -5    1    3    3    0  502 -0.92326274858E+02 -0.41646125320E+02  0.26374090639E+02  0.10474543351E+03  0.41800000000E+01 0.  1.
        -11    1    1    2    0    0  0.53175357640E+02 -0.12339814875E+02 -0.59904138204E+02  0.81045638163E+02  0.00000000000E+00 0. -1.
         11    1    1    2    0    0  0.22027646254E+01  0.60762219520E+02 -0.10833162979E+03  0.12422818322E+03  0.00000000000E+00 0.  1.
</event>
<event>
 6    1  0.3152472E-009  0.1136117E+03  0.7561462E-02  0.1254024E+00
         -4   -1    0    0    0  501 -0.00000000000E+00  0.00000000000E+00  0.17988424492E+03  0.17988424492E+03  0.00000000000E+00 0.  1.
          4   -1    0    0  501    0  0.00000000000E+00 -0.00000000000E+00 -0.12247351712E+03  0.12247351712E+03  0.00000000000E+00 0. -1.
          5    1    1    2  502    0  0.59164374012E+02 -0.36373330957E+02  0.41105186488E+02  0.80811825331E+02  0.41800000000E+01 0.  1.
         -5    1    1    2    0  502  0.34661004546E+02  0.51444856032E+02 -0.44606079001E+02  0.76518841680E+02  0.41800000000E+01 0.  1.
        -11    1    1    2    0    0 -0.82719679318E+02 -0.16267703357E+02  0.84229892462E+02  0.11917154989E+03  0.00000000000E+00 0.  1.
         11    1    1    2    0    0 -0.11105699239E+02  0.11961782826E+01 -0.23318272153E+02  0.25855545136E+02  0.00000000000E+00 0. -1.
</event>
<event>
 7    1  0.2688177E-009  0.1401207E+03  0.7561462E-02  0.1213167E+00
          2   -1    0    0  501    0  0.00000000000E+00  0.00000000000E+00  0.19218927753E+02  0.19218927753E+02  0.00000000000E+00 0.  1.
         -2   -1    0    0    0  501 -0.00000000000E+00 -0.00000000000E+00 -0.10892110229E+04  0.10892110229E+04  0.00000000000E+00 0. -1.
         25    2    1    2    0    0  0.56667654905E+02 -0.68644901984E+02 -0.44622196141E+03  0.47189944609E+03  0.12510676520E+03 0.  0.
          5    1    3    3  502    0 -0.11974466230E+02  0.30410143733E+02 -0.94039185543E+02  0.99644395231E+02  0.41800000000E+01 0.  1.
         -5    1    3    3    0  502  0.68642121135E+02 -0.99055045718E+02 -0.35218277587E+03  0.37225505086E+03  0.41800000000E+01 0.  1.
        -11    1    1    2    0    0  0.23323669639E+02  0.29626085348E+02 -0.17379694771E+03  0.17784003354E+03  0.00000000000E+00 0.  1.
         11    1    1    2    0    0 -0.79991324544E+02  0.39018816636E+02 -0.44997318603E+03  0.45869047102E+03  0.00000000000E+00 0. -1.
</event>
<event>
 7    1  0.2688177E-009  0.7223224E+02  0.7561462E-02  0.1352663E+00
          4   -1    0    0  501    0  0.00000000000E+00  0.00000000000E+00  0.31113002830E+02  0.31113002830E+02  0.00000000000E+00 0. -1.
         -4   -1    0    0    0  501 -0.00000000000E+00 -0.00000000000E+00 -0.42340624133E+03  0.42340624133E+03  0.00000000000E+00 0.  1.
         25    2    1    2    0    0 -0.44590261390E+02  0.23875756811E+01 -0.22186454198E+03  0.25858386363E+03  0.12509095736E+03 0.  0.
          5    1    3    3  502    0 -0.63323112696E+02 -0.69343101618E+01 -0.22768617893E+03  0.23646642412E+03  0.41800000000E+01 0.  1.
         -5    1    3    3    0  502  0.18732851307E+02  0.93218858429E+01  0.58216369528E+01  0.22117439512E+02  0.41800000000E+01 0.  1.
        -11    1    1    2    0    0  0.15488641418E+01  0.13365297533E+02  0.51999917283E+01  0.14424634215E+02  0.00000000000E+00 0. -1.
         11    1    1    2    0    0  0.43041397248E+02 -0.15752873214E+02 -0.17562868825E+03  0.18151074631E+03  0.00000000000E+00 0.  1.
</event>
<event>
 7    1  0.2688177E-009  0.1276223E+03  0.7561462E-02  0.1231027E+00
         -1   -1    0    0    0  501 -0.00000000000E+00  0.00000000000E+00  0.12622198957E+03  0.12622198957E+03  0.00000000000E+00 0.  1.
          1   -1    0    0  501    0  0.00000000000E+00 -0.00000000000E+00 -0.13418372956E+03  0.13418372956E+03  0.00000000000E+00 0. -1.
         25    2    1    2    0    0 -0.66726930153E+02 -0.26035327458E+02 -0.15164081164E+01  0.14415302888E+03  0.12508986673E+03 0.  0.
          5    1    3    3  502    0  0.78852260717E+01 -0.58811302557E+02 -0.15240743686E+02  0.61406015722E+02  0.41800000000E+01 0.  1.
         -5    1    3    3    0  502 -0.74612156225E+02  0.32775975099E+02  0.13724335570E+02  0.82747013161E+02  0.41800000000E+01 0.  1.
        -11    1    1    2    0    0 -0.18541956716E+02  0.22032263576E+02  0.75033134039E+01  0.29757763847E+02  0.00000000000E+00 0. -1.
         11    1    1    2    0    0  0.85268886869E+02  0.40030638828E+01 -0.13948645281E+02  0.86494926403E+02  0.00000000000E+00 0.  1.
</event>
<event>
 7    1  0.2688177E-009  0.9169335E+02  0.7561462E-02  0.1298802E+00
          1   -1    0    0  501    0  0.00000000000E+00  0.00000000000E+00  0.92621757615E+02  0.92621757615E+02  0.00000000000E+00 0. -1.
         -1   -1    0    0    0  501 -0.00000000000E+00 -0.00000000000E+00 -0.16313592187E+03  0.16313592187E+03  0.00000000000E+00 0.  1.
         25    2    1    2    0    0  0.46580410107E+02  0.45148696680E+02 -0.32117531791E+02  0.14452230286E+03  0.12508805202E+03 0.  0.
          5    1    3    3  502    0  0.46863275603E+02 -0.14963316596E+02 -0.60355259133E+02  0.77976260161E+02  0.41800000000E+01 0.  1.
         -5    1    3    3    0  502 -0.28286549618E+00  0.60112013276E+02  0.28237727341E+02  0.66546042695E+02  0.41800000000E+01 0.  1.
        -11    1    1    2    0    0 -0.87723634783E+01  0.56491103304E+01 -0.46263121382E+02  0.47425132667E+02  0.00000000000E+00 0.  1.
         11    1    1    2    0    0 -0.37808046629E+02 -0.50797807010E+02  0.78664889153E+01  0.63810243964E+02  0.00000000000E+00 0. -1.
</event>
<event>
 7    1  0.2688177E-009  0.1033022E+03  0.7561462E-02  0.1273501E+00
         -2   -1    0    0    0  501 -0.00000000000E+00  0.00000000000E+00  0.23260101160E+03  0.23260101160E+03  0.00000000000E+00 0.  1.
          2   -1    0    0  501    0  0.00000000000E+00 -0.00000000000E+00 -0.81700541482E+02  0.81700541482E+02  0.00000000000E+00 0. -1.
         25    2    1    2    0    0 -0.30720006211E+01 -0.36226698466E+02 -0.60685818450E+00  0.13026741928E+03  0.12508965336E+03 0.  0.
          5    1    3    3  502    0  0.48656526936E+02  0.20555506046E+02 -0.49716514893E+01  0.53218193889E+02  0.41800000000E+01 0.  1.
         -5    1    3    3    0  502 -0.51728527557E+02 -0.56782204512E+02  0.43647933048E+01  0.77049225389E+02  0.41800000000E+01 0.  1.
        -11    1    1    2    0    0  0.31829917107E+02  0.35838836226E+02  0.14738019267E+03  0.15497898888E+03  0.00000000000E+00 0.  1.
         11    1    1    2    0    0 -0.28757916486E+02  0.38786223939E+00  0.41271356355E+01  0.29055144919E+02  0.00000000000E+00 0. -1.
</event>
<event>
 7    1  0.3657920E-009  0.1284260E+03  0.7561462E-02  0.1229810E+00
          1   -1    0    0  501    0  0.00000000000E+00  0.00000000000E+00  0.41486350582E+03  0.41486350582E+03  0.00000000000E+00 0.  1.
         -1   -1    0    0    0  501 -0.00000000000E+00 -0.00000000000E+00 -0.49315983364E+02  0.49315983364E+02  0.00000000000E+00 0. -1.
         25    2    1    2    0    0  0.30956399209E+01  0.72150042799E+02  0.10421071662E+03  0.17810868684E+03  0.12509044411E+03 0.  0.
          5    1    3    3  502    0 -0.26460356275E+02 -0.27234347815E+02  0.14249797399E+02  0.40772408330E+02  0.41800000000E+01 0.  1.
         -5    1    3    3    0  502  0.29555996196E+02  0.99384390614E+02  0.89960919220E+02  0.13733627851E+03  0.41800000000E+01 0.  1.
        -11    1    1    2    0    0 -0.44758114778E+02 -0.22591984052E+02  0.91918954817E+02  0.10470329907E+03  0.00000000000E+00 0.  1.
         11    1    1    2    0    0  0.41662474857E+02 -0.49558058746E+02  0.16941785102E+03  0.18136750327E+03  0.00000000000E+00 0. -1.
</event>
<event>
 7    1  0.2688177E-009  0.1578334E+03  0.7561462E-02  0.1191165E+00
          2   -1    0    0  501    0  0.00000000000E+00  0.00000000000E+00  0.24728729338E+03  0.24728729338E+03  0.00000000000E+00 0. -1.
         -2   -1    0    0    0  501 -0.00000000000E+00 -0.00000000000E+00 -0.13910107920E+03  0.13910107920E+03  0.00000000000E+00 0.  1.
         25    2    1    2    0    0  0.13503615055E+03  0.63527056104E+02  0.47110299521E+02  0.20034283190E+03  0.12508965249E+03 0.  0.
          5    1    3    3  502    0  0.40098946572E+02  0.14954733650E+02 -0.42892155847E+02  0.60735319279E+02  0.41800000000E+01 0.  1.
         -5    1    3    3    0  502  0.94937203977E+02  0.48572322454E+02  0.90002455368E+02  0.13960751262E+03  0.41800000000E+01 0.  1.
        -11    1    1    2    0    0 -0.44239532507E+02 -0.60689611925E+02  0.58449317467E+02  0.95166632515E+02  0.00000000000E+00 0. -1.
         11    1    1    2    0    0 -0.90796618043E+02 -0.28374441793E+01  0.26265971865E+01  0.90878908170E+02  0.00000000000E+00 0.  1.
</event>
<event>
 7    1  0.2688177E-009  0.2031577E+03  0.7561462E-02  0.1147102E+00
         -2   -1    0    0    0  501 -0.00000000000E+00  0.00000000000E+00  0.35313724820E+02  0.35313724820E+02  0.00000000000E+00 0.  1.
          2   -1    0    0  501    0  0.00000000000E+00 -0.00000000000E+00 -0.14158339734E+04  0.14158339734E+04  0.00000000000E+00 0. -1.
         25    2    1    2    0    0  0.18190744998E+03  0.77629844595E+01 -0.47669994456E+03  0.52539538316E+03  0.12508751822E+03 0.  0.
          5    1    3    3  502    0  0.13251498845E+03 -0.44446004241E+02 -0.37946953759E+03  0.40441349114E+03  0.41800000000E+01 0. -1.
         -5    1    3    3    0  502  0.49392461532E+02  0.52208988700E+02 -0.97230406970E+02  0.12098189202E+03  0.41800000000E+01 0. -1.
        -11    1    1    2    0    0 -0.92232686649E+02 -0.38144553555E+02 -0.35236987110E+03  0.36623271496E+03  0.00000000000E+00 0. -1.
         11    1    1    2    0    0 -0.89674763335E+02  0.30381569095E+02 -0.55145043289E+03  0.55951960006E+03  0.00000000000E+00 0.  1.
</event>
<event>
 7    1  0.2688177E-009  0.1632262E+03  0.7561462E-02  0.1185102E+00
         -1   -1    0    0    0  501 -0.00000000000E+00  0.00000000000E+00  0.52271111214E+02  0.52271111214E+02  0.00000000000E+00 0.  1.
          1   -1    0    0  501    0  0.00000000000E+00 -0.00000000000E+00 -0.68430252317E+03  0.68430252317E+03  0.00000000000E+00 0. -1.
         25    2    1    2    0    0 -0.56855755330E+02  0.12848220368E+03 -0.20989419913E+03  0.28185765133E+03  0.12509159527E+03 0.  0.
          5    1    3    3  502    0  0.36755047932E+02  0.23797050280E+02 -0.75810994820E+02  0.87647090574E+02  0.41800000000E+01 0. -1.
         -5    1    3    3    0  502 -0.93610803262E+02  0.10468515340E+03 -0.13408320431E+03  0.19421056075E+03  0.41800000000E+01 0. -1.
        -11    1    1    2    0    0  0.16746460482E+02 -0.62933988785E+02 -0.75699230604E+02  0.99857420341E+02  0.00000000000E+00 0.  1.
         11    1    1    2    0    0  0.40109294848E+02 -0.65548214892E+02 -0.34643798222E+03  0.35485856272E+03  0.00000000000E+00 0. -1.
</event>
<event>
 7    1  0.2688177E-009  0.1202759E+03  0.7561462E-02  0.1242643E+00
          2   -1    0    0  501    0  0.00000000000E+00  0.00000000000E+00  0.28941315940E+03  0.28941315940E+03  0.00000000000E+00 0. -1.
         -2   -1    0    0    0  501 -0.00000000000E+00 -0.00000000000E+00 -0.78347361927E+02  0.78347361927E+02  0.00000000000E+00 0.  1.
         25    2    1    2    0    0 -0.26449592781E+02 -0.46833914123E+02  0.55212813941E+01  0.13627541975E+03  0.12509000364E+03 0.  0.
          5    1    3    3  502    0 -0.84327633309E+01  0.42348377322E+02  0.11864527025E+02  0.44974836973E+02  0.41800000000E+01 0.  1.
         -5    1    3    3    0  502 -0.18016829450E+02 -0.89182291446E+02 -0.63432456309E+01  0.91300582780E+02  0.41800000000E+01 0.  1.
        -11    1    1    2    0    0 -0.14664024175E+02 -0.21688068563E+02  0.59579939314E+02  0.65078222868E+02  0.00000000000E+00 0.  1.
         11    1    1    2    0    0  0.41113616956E+02  0.68521982686E+02  0.14596457677E+03  0.16640687871E+03  0.00000000000E+00 0. -1.
</event>
<event>
 7    1  0.2688177E-009  0.1685062E+03  0.7561462E-02  0.1179415E+00
         -1   -1    0    0    0  501 -0.00000000000E+00  0.00000000000E+00  0.58581268443E+03  0.58581268443E+03  0.00000000000E+00 0.  1.
          1   -1    0    0  501    0  0.00000000000E+00 -0.00000000000E+00 -0.60869237226E+02  0.60869237226E+02  0.00000000000E+00 0. -1.
         25    2    1    2    0    0 -0.12862336080E+03 -0.83974970875E+02  0.30001187013E+03  0.35951635631E+03  0.12509645702E+03 0.  0.
          5    1    3    3  502    0 -0.77237813705E+02 -0.10054700423E+03  0.26825521860E+03  0.29673846166E+03  0.41800000000E+01 0.  1.
         -5    1    3    3    0  502 -0.51385547091E+02  0.16572033358E+02  0.31756651536E+02  0.62777894646E+02  0.41800000000E+01 0.  1.
        -11    1    1    2    0    0  0.52136818645E+02  0.50246772642E+02  0.17597987114E+03  0.19029424864E+03  0.00000000000E+00 0. -1.
         11    1    1    2    0    0  0.76486542151E+02  0.33728198234E+02  0.48951705927E+02  0.96871316701E+02  0.00000000000E+00 0.  1.
</event>
<event>
 7    1  0.2688177E-009  0.1320314E+03  0.7561462E-02  0.1224472E+00
         -3   -1    0    0    0  501 -0.00000000000E+00  0.00000000000E+00  0.44947038879E+03  0.44947038879E+03  0.00000000000E+00 0.  1.
          3   -1    0    0  501    0  0.00000000000E+00 -0.00000000000E+00 -0.53899084636E+02  0.53899084636E+02  0.00000000000E+00 0. -1.
         25    2    1    2    0    0 -0.30423296391E+02 -0.72642751208E+02  0.84025073819E+02  0.17002852207E+03  0.12508772530E+03 0.  0.
          5    1    3    3  502    0 -0.45498712927E+02  0.22628989944E+02  0.24102843159E+02  0.56397016873E+02  0.41800000000E+01 0.  1.
         -5    1    3    3    0  502  0.15075416535E+02 -0.95271741152E+02  0.59922230660E+02  0.11363150520E+03  0.41800000000E+01 0.  1.
        -11    1    1    2    0    0  0.13895040223E+02 -0.18926356266E+02  0.41081025553E+02  0.47317330491E+02  0.00000000000E+00 0. -1.
         11    1    1    2    0    0  0.16528256168E+02  0.91569107474E+02  0.27046520478E+03  0.28602362086E+03  0.00000000000E+00 0.  1.
</event>
<event>
 7    1  0.2688177E-009  0.1051300E+03  0.7561462E-02  0.1269864E+00
          2   -1    0    0  501    0  0.00000000000E+00  0.00000000000E+00  0.10448792264E+03  0.10448792264E+03  0.00000000000E+00 0. -1.
         -2   -1    0    0    0  501 -0.00000000000E+00 -0.00000000000E+00 -0.13860025091E+03  0.13860025091E+03  0.00000000000E+00 0.  1.
         25    2    1    2    0    0 -0.90382399938E+01  0.85508949054E+01 -0.70233921202E+02  0.14398924449E+03  0.12508113869E+03 0.  0.
          5    1    3    3  502    0  0.34702459862E+01 -0.57705282158E+02 -0.36301280850E+02  0.68390040119E+02  0.41800000000E+01 0.  1.
         -5    1    3    3    0  502 -0.12508485980E+02  0.66256177064E+02 -0.33932640352E+02  0.75599204373E+02  0.41800000000E+01 0.  1.
        -11    1    1    2    0    0  0.45473964871E+02 -0.14703410806E+02  0.53105376636E+00  0.47794913835E+02  0.00000000000E+00 0. -1.
         11    1    1    2    0    0 -0.36435724877E+02  0.61525159005E+01  0.35590539165E+02  0.51304015216E+02  0.00000000000E+00 0.  1.
</event>
<event>
 7    1  0.4588275E-009  0.1429314E+03  0.7561462E-02  0.1209438E+00
          1   -1    0    0  501    0  0.00000000000E+00  0.00000000000E+00  0.20873298592E+03  0.20873298592E+03  0.00000000000E+00 0. -1.
         -1   -1    0    0    0  501 -0.00000000000E+00 -0.00000000000E+00 -0.14657584560E+03  0.14657584560E+03  0.00000000000E+00 0.  1.
         25    2    1    2    0    0  0.11344482205E+03  0.25302484461E+02  0.10577962854E+03  0.20086503601E+03  0.12508992568E+03 0.  0.
          5    1    3    3  502    0  0.39145444124E+01 -0.40931164380E+02  0.15347561816E+02  0.44087457731E+02  0.41800000000E+01 0.  1.
         -5    1    3    3    0  502  0.10953027763E+03  0.66233648841E+02  0.90432066728E+02  0.15677757828E+03  0.41800000000E+01 0.  1.
        -11    1    1    2    0    0 -0.70767732923E+02 -0.12113689933E+02 -0.71874119709E+02  0.10159085880E+03  0.00000000000E+00 0.  1.
         11    1    1    2    0    0 -0.42677089124E+02 -0.13188794528E+02  0.28251631488E+02  0.52852936711E+02  0.00000000000E+00 0. -1.
</event>
<event>
 7    1  0.2688177E-009  0.7153528E+02  0.7561462E-02  0.1354949E+00
          1   -1    0    0  501    0  0.00000000000E+00  0.00000000000E+00  0.42801445819E+03  0.42801445819E+03  0.00000000000E+00 0. -1.
         -1   -1    0    0    0  501 -0.00000000000E+00 -0.00000000000E+00 -0.36391931952E+02  0.36391931952E+02  0.00000000000E+00 0.  1.
         25    2    1    2    0    0 -0.38970858004E+02  0.12073770909E+02  0.31173969575E+03  0.33836939592E+03  0.12509079292E+03 0.  0.
          5    1    3    3  502    0  0.15856265150E+02 -0.25750147796E+02  0.23369273008E+03  0.23567828867E+03  0.41800000000E+01 0. -1.
         -5    1    3    3    0  502 -0.54827123153E+02  0.37823918705E+02  0.78046965668E+02  0.10269110726E+03  0.41800000000E+01 0. -1.
        -11    1    1    2    0    0  0.26091703003E+02  0.26681486756E+01 -0.14278399582E+02  0.29862496171E+02  0.00000000000E+00 0.  1.
         11    1    1    2    0    0  0.12879155001E+02 -0.14741919585E+02  0.94161230071E+02  0.96174498050E+02  0.00000000000E+00 0. -1.
</event>
<event>
 7    1  0.2688177E-009  0.1572343E+03  0.7561462E-02  0.1191855E+00
         -1   -1    0    0    0  501 -0.00000000000E+00  0.00000000000E+00  0.13425833369E+03  0.13425833369E+03  0.00000000000E+00 0.  1.
          1   -1    0    0  501    0  0.00000000000E+00 -0.00000000000E+00 -0.26528959495E+03  0.26528959495E+03  0.00000000000E+00 0. -1.
         25    2    1    2    0    0 -0.14956823823E+03  0.18762174368E+02 -0.35325399414E+02  0.19904177960E+03  0.12508824529E+03 0.  0.
          5    1    3    3  502    0 -0.72164833386E+02  0.43741798613E+01 -0.80416225964E+02  0.10821801341E+03  0.41800000000E+01 0.  1.
         -5    1    3    3    0  502 -0.77403404844E+02  0.14387994507E+02  0.45090826551E+02  0.90823766198E+02  0.41800000000E+01 0.  1.
        -11    1    1    2    0    0  0.49450245870E+02  0.23239652797E+02  0.16699505974E+01  0.54664403534E+02  0.00000000000E+00 0.  1.
         11    1    1    2    0    0  0.10011799236E+03 -0.42001827166E+02 -0.97375812448E+02  0.14584174550E+03  0.00000000000E+00 0. -1.
</event>
<event>
 7    1  0.2688177E-009  0.1674110E+03  0.7561462E-02  0.1180575E+00
          2   -1    0    0  501    0  0.00000000000E+00  0.00000000000E+00  0.40638472422E+03  0.40638472422E+03  0.00000000000E+00 0. -1.
         -2   -1    0    0    0  501 -0.00000000000E+00 -0.00000000000E+00 -0.79848017042E+02  0.79848017042E+02  0.00000000000E+00 0.  1.
         25    2    1    2    0    0 -0.13073706206E+03 -0.37325045667E+02  0.11268836426E+03  0.21640846062E+03  0.12509442816E+03 0.  0.
          5    1    3    3  502    0 -0.93366184995E+02  0.36945165120E+02  0.50330304141E+02  0.11239573676E+03  0.41800000000E+01 0. -1.
         -5    1    3    3    0  502 -0.37370877066E+02 -0.74270210787E+02  0.62358060118E+02  0.10401272386E+03  0.41800000000E+01 0. -1.
        -11    1    1    2    0    0  0.12478579624E+03  0.52041814554E+02  0.14132041943E+03  0.19557941189E+03  0.00000000000E+00 0.  1.
         11    1    1    2    0    0  0.59512658169E+01 -0.14716768887E+02  0.72527923491E+02  0.74244868760E+02  0.00000000000E+00 0. -1.
</event>
<event>
 7    1  0.2688177E-009  0.7567877E+02  0.7561462E-02  0.1341782E+00
         -1   -1    0    0    0  501 -0.00000000000E+00  0.00000000000E+00  0.17726214126E+02  0.17726214126E+02  0.00000000000E+00 0.  1.
          1   -1    0    0  501    0  0.00000000000E+00 -0.00000000000E+00 -0.78070771091E+03  0.78070771091E+03  0.00000000000E+00 0. -1.
         25    2    1    2    0    0  0.10536513326E+01 -0.31589702817E+02 -0.30952401623E+03  0.33533845418E+03  0.12509093780E+03 0.  0.
          5    1    3    3  502    0 -0.42577767683E+01 -0.44805499980E+02 -0.31594740577E+03  0.31916437317E+03  0.41800000000E+01 0. -1.
         -5    1    3    3    0  502  0.53114281009E+01  0.13215797162E+02  0.64233895368E+01  0.16174081002E+02  0.41800000000E+01 0. -1.
        -11    1    1    2    0    0 -0.40481247542E+02  0.32440296070E+02 -0.31025112777E+03  0.31455820843E+03  0.00000000000E+00 0. -1.
         11    1    1    2    0    0  0.39427596209E+02 -0.85059325261E+00 -0.14320635278E+03  0.14853726242E+03  0.00000000000E+00 0.  1.
</event>
<event>
 7    1  0.2688177E-009  0.2339605E+03  0.7561462E-02  0.1123883E+00
         -1   -1    0    0    0  501 -0.00000000000E+00  0.00000000000E+00  0.62512295609E+02  0.62512295609E+02  0.00000000000E+00 0.  1.
          1   -1    0    0  501    0  0.00000000000E+00 -0.00000000000E+00 -0.10270045549E+04  0.10270045549E+04  0.00000000000E+00 0. -1.
         25    2    1    2    0    0 -0.22254605480E+03 -0.39342357290E+02 -0.59886860018E+03  0.65220046313E+03  0.12508907320E+03 0.  0.
          5    1    3    3  502    0 -0.10010517610E+03 -0.60492807448E+02 -0.40765517269E+03  0.42412337622E+03  0.41800000000E+01 0.  1.
         -5    1    3    3    0  502 -0.12244087870E+03  0.21150450158E+02 -0.19121342749E+03  0.22807708690E+03  0.41800000000E+01 0.  1.
        -11    1    1    2    0    0  0.82908119754E+02  0.22510501531E+02 -0.73356212514E+02  0.11296730905E+03  0.00000000000E+00 0.  1.
         11    1    1    2    0    0  0.13963793505E+03  0.16831855759E+02 -0.29226744658E+03  0.32434907831E+03  0.00000000000E+00 0. -1.
</event>
<event>
 7    1  0.2688177E-009  0.7601482E+02  0.7561462E-02  0.1340757E+00
         -2   -1    0    0    0  501 -0.00000000000E+00  0.00000000000E+00  0.19792788646E+02  0.19792788646E+02  0.00000000000E+00 0.  1.
          2   -1    0    0  501    0  0.00000000000E+00 -0.00000000000E+00 -0.65326521776E+03  0.65326521776E+03  0.00000000000E+00 0. -1.
         25    2    1    2    0    0  0.27712160079E+01  0.23037097273E+02 -0.45227278622E+03  0.46982546489E+03  0.12508759658E+03 0.  0.
          5    1    3    3  502    0  0.26483447403E+02  0.39976644984E+02 -0.62232227766E+02  0.78675458074E+02  0.41800000000E+01 0.  1.
         -5    1    3    3    0  502 -0.23712231395E+02 -0.16939547711E+02 -0.39004055845E+03  0.39115000682E+03  0.41800000000E+01 0.  1.
        -11    1    1    2    0    0  0.25097808296E+02 -0.35865835726E+02 -0.41905532279E+02  0.60599767237E+02  0.00000000000E+00 0.  1.
         11    1    1    2    0    0 -0.27869024304E+02  0.12828738453E+02 -0.13929411062E+03  0.14263277428E+03  0.00000000000E+00 0. -1.
</event>
<event>
 7    1  0.2688177E-009  0.8610972E+02  0.7561462E-02  0.1312556E+00
          1   -1    0    0  501    0  0.00000000000E+00  0.00000000000E+00  0.62729777168E+03  0.62729777168E+03  0.00000000000E+00 0. -1.
         -1   -1    0    0    0  501 -0.00000000000E+00 -0.00000000000E+00 -0.73209935909E+02  0.73209935909E+02  0.00000000000E+00 0.  1.
         25    2    1    2    0    0  0.57290986682E+01  0.10542158666E+02  0.58873107564E+03  0.60199175249E+03  0.12508329605E+03 0.  0.
          5    1    3    3  502    0  0.50347746796E+02  0.21543552921E+01  0.49689328657E+03  0.49945965552E+03  0.41800000000E+01 0. -1.
         -5    1    3    3    0  502 -0.44618648128E+02  0.83878033739E+01  0.91837789074E+02  0.10253209697E+03  0.41800000000E+01 0. -1.
        -11    1    1    2    0    0  0.81132884502E+01  0.31119245313E+02 -0.43132433462E+02  0.53801855867E+02  0.00000000000E+00 0.  1.
         11    1    1    2    0    0 -0.13842387118E+02 -0.41661403979E+02  0.84891935879E+01  0.44714099235E+02  0.00000000000E+00 0. -1.
</event>
<event>
 7    1  0.2688177E-009  0.3624357E+03  0.7561462E-02  0.1057624E+00
         -1   -1    0    0    0  501 -0.00000000000E+00  0.00000000000E+00  0.44759276531E+03  0.44759276531E+03  0.00000000000E+00 0.  1.
          1   -1    0    0  501    0  0.00000000000E+00 -0.00000000000E+00 -0.43265455961E+03  0.43265455961E+03  0.00000000000E+00 0. -1.
         25    2    1    2    0    0 -0.16776144377E+03 -0.31592677409E+03 -0.22411069400E+03  0.44025750185E+03  0.12508971246E+03 0.  0.
          5    1    3    3  502    0 -0.16075928776E+03 -0.26174949892E+03 -0.23191953980E+03  0.38491621702E+03  0.41800000000E+01 0.  1.
         -5    1    3    3    0  502 -0.70021560089E+01 -0.54177275167E+02  0.78088457959E+01  0.55341284824E+02  0.41800000000E+01 0.  1.
        -11    1    1    2    0    0  0.11190997466E+03  0.26349265841E+03  0.15232719570E+03  0.32427734736E+03  0.00000000000E+00 0.  1.
         11    1    1    2    0    0  0.55851469116E+02  0.52434115684E+02  0.86721703991E+02  0.11571247570E+03  0.00000000000E+00 0. -1.
</event>
<event>
 7    1  0.2688177E-009  0.1622371E+03  0.7561462E-02  0.1186194E+00
          2   -1    0    0  501    0  0.00000000000E+00  0.00000000000E+00  0.33478516559E+03  0.33478516559E+03  0.00000000000E+00 0.  1.
         -2   -1    0    0    0  501 -0.00000000000E+00 -0.00000000000E+00 -0.10480340320E+03  0.10480340320E+03  0.00000000000E+00 0. -1.
         25    2    1    2    0    0  0.81509247453E+02 -0.10459596393E+03  0.20930424046E+03  0.27756069457E+03  0.12509037135E+03 0.  0.
          5    1    3    3  502    0  0.39833647343E+02  0.18509065165E+02  0.21369480246E+02  0.49024810453E+02  0.41800000000E+01 0. -1.
         -5    1    3    3    0  502  0.41675600110E+02 -0.12310502910E+03  0.18793476021E+03  0.22853588412E+03  0.41800000000E+01 0. -1.
        -11    1    1    2    0    0 -0.60661095004E+02  0.11266800870E+03  0.38291066978E+02  0.13356666666E+03  0.00000000000E+00 0.  1.
         11    1    1    2    0    0 -0.20848152449E+02 -0.80720447690E+01 -0.17613545041E+02  0.28461207567E+02  0.00000000000E+00 0. -1.
</event>
<event>
 7    1  0.2688177E-009  0.8808225E+02  0.7561462E-02  0.1307563E+00
          2   -1    0    0  501    0  0.00000000000E+00  0.00000000000E+00  0.18894523607E+03  0.18894523607E+03  0.00000000000E+00 0. -1.
         -2   -1    0    0    0  501 -0.00000000000E+00 -0.00000000000E+00 -0.87920943773E+02  0.87920943773E+02  0.00000000000E+00 0.  1.
         25    2    1    2    0    0 -0.43763830837E+01  0.63548030636E+02  0.84234903339E+02  0.16374930613E+03  0.12514316358E+03 0.  0.
          5    1    3    3  502    0  0.38141247076E+01  0.33090300245E+02 -0.30088685973E+02  0.45081226039E+02  0.41800000000E+01 0. -1.
         -5    1    3    3    0  502 -0.81905077913E+01  0.30457730391E+02  0.11432358931E+03  0.11866808009E+03  0.41800000000E+01 0. -1.
        -11    1    1    2    0    0  0.35421317025E+02 -0.70559598430E+02  0.47676854788E+01  0.79095242936E+02  0.00000000000E+00 0. -1.
         11    1    1    2    0    0 -0.31044933941E+02  0.70115677936E+01  0.12021703479E+02  0.34021630779E+02  0.00000000000E+00 0.  1.
</event>
<event>
 7    1  0.2688177E-009  0.9547777E+02  0.7561462E-02  0.1290104E+00
         -1   -1    0    0    0  501 -0.00000000000E+00  0.00000000000E+00  0.60255778090E+02  0.60255778090E+02  0.00000000000E+00 0.  1.
          1   -1    0    0  501    0  0.00000000000E+00 -0.00000000000E+00 -0.37041282582E+03  0.37041282582E+03  0.00000000000E+00 0. -1.
         25    2    1    2    0    0 -0.73422730957E+02  0.17250465841E+02 -0.26735845275E+03  0.30465770250E+03  0.12508915798E+03 0.  0.
          5    1    3    3  502    0 -0.68601623833E+02 -0.16347227443E+02 -0.54914963288E+02  0.89479272630E+02  0.41800000000E+01 0.  1.
         -5    1    3    3    0  502 -0.48211071238E+01  0.33597693283E+02 -0.21244348946E+03  0.21517842987E+03  0.41800000000E+01 0.  1.
        -11    1    1    2    0    0  0.68102367661E+02 -0.45619469356E-01 -0.67205507358E+02  0.95679228579E+02  0.00000000000E+00 0. -1.
         11    1    1    2    0    0  0.53203632952E+01 -0.17204846371E+02  0.24406912382E+02  0.30331672824E+02  0.00000000000E+00 0.  1.
</event>
<event>
 7    1  0.3156256E-009  0.1055069E+03  0.7561462E-02  0.1269124E+00
          1   -1    0    0  501    0  0.00000000000E+00  0.00000000000E+00  0.17144435571E+03  0.17144435571E+03  0.00000000000E+00 0. -1.
         -1   -1    0    0    0  501 -0.00000000000E+00 -0.00000000000E+00 -0.11421510730E+03  0.11421510730E+03  0.00000000000E+00 0.  1.
         25    2    1    2    0    0  0.83235077337E+02  0.59435816702E+01  0.26152826227E+01  0.15039179758E+03  0.12508976303E+03 0.  0.
          5    1    3    3  502    0 -0.14348945526E+02 -0.20065590170E+02 -0.34585144462E+02  0.42686353370E+02  0.41800000000E+01 0.  1.
         -5    1    3    3    0  502  0.97584022863E+02  0.26009171840E+02  0.37200427084E+02  0.10770544421E+03  0.41800000000E+01 0.  1.
        -11    1    1    2    0    0 -0.62712384403E+02 -0.11263341882E+02 -0.12460097997E+02  0.64922723834E+02  0.00000000000E+00 0.  1.
         11    1    1    2    0    0 -0.20522692933E+02  0.53197602117E+01  0.67074063793E+02  0.70344941592E+02  0.00000000000E+00 0. -1.
</event>
<event>
 7    1  0.2688177E-009  0.1506914E+03  0.7561462E-02  0.1199626E+00
         -1   -1    0    0    0  501 -0.00000000000E+00  0.00000000000E+00  0.36786955956E+03  0.36786955956E+03  0.00000000000E+00 0.  1.
          1   -1    0    0  501    0  0.00000000000E+00 -0.00000000000E+00 -0.72055693269E+02  0.72055693269E+02  0.00000000000E+00 0. -1.
         25    2    1    2    0    0  0.11696236180E+03 -0.39589483841E+01  0.20151577609E+03  0.26448250246E+03  0.12508604534E+03 0.  0.
          5    1    3    3  502    0 -0.23580824786E+02  0.15897970897E+02  0.26405283492E+02  0.39032194052E+02  0.41800000000E+01 0.  1.
         -5    1    3    3    0  502  0.14054318659E+03 -0.19856919281E+02  0.17511049260E+03  0.22545030840E+03  0.41800000000E+01 0.  1.
        -11    1    1    2    0    0 -0.89369497110E+01  0.19546877585E+02  0.55652581822E+02  0.59658690539E+02  0.00000000000E+00 0.  1.
         11    1    1    2    0    0 -0.10802541209E+03 -0.15587929201E+02  0.38645508380E+02  0.11578405984E+03  0.00000000000E+00 0. -1.
</event>
<event>
 7    1  0.2688177E-009  0.1287412E+03  0.7561462E-02  0.1229336E+00
          2   -1    0    0  501    0  0.00000000000E+00  0.00000000000E+00  0.84759735462E+03  0.84759735462E+03  0.00000000000E+00 0. -1.
         -2   -1    0    0    0  501 -0.00000000000E+00 -0.00000000000E+00 -0.21848565427E+02  0.21848565427E+02  0.00000000000E+00 0.  1.
         25    2    1    2    0    0  0.40920035985E+02 -0.64343943363E+02  0.54807126711E+03  0.56731319422E+03  0.12509018391E+03 0.  0.
          5    1    3    3  502    0 -0.26883636878E+02  0.17266964676E+02  0.63079512258E+02  0.70833433262E+02  0.41800000000E+01 0. -1.
         -5    1    3    3    0  502  0.67803672863E+02 -0.81610908040E+02  0.48499175485E+03  0.49647976095E+03  0.41800000000E+01 0. -1.
        -11    1    1    2    0    0  0.25559975836E+02  0.41574735001E+02  0.11480808324E+03  0.12475041857E+03  0.00000000000E+00 0.  1.
         11    1    1    2    0    0 -0.66480011821E+02  0.22769208363E+02  0.16286943884E+03  0.17738230727E+03  0.00000000000E+00 0. -1.
</event>
<event>
 7    1  0.2688177E-009  0.4365405E+03  0.7561462E-02  0.1031814E+00
          1   -1    0    0  501    0  0.00000000000E+00  0.00000000000E+00  0.12311811864E+04  0.12311811864E+04  0.00000000000E+00 0. -1.
         -1   -1    0    0    0  501 -0.00000000000E+00 -0.00000000000E+00 -0.27097642568E+03  0.27097642568E+03  0.00000000000E+00 0.  1.
         25    2    1    2    0    0 -0.14626307472E+03 -0.40743801923E+03  0.95950965350E+03  0.10600487075E+04  0.12508341445E+03 0.  0.
          5    1    3    3  502    0 -0.11189583205E+03 -0.29983612990E+03  0.56165862689E+03  0.64645206132E+03  0.41800000000E+01 0. -1.
         -5    1    3    3    0  502 -0.34367242665E+02 -0.10760188933E+03  0.39785102661E+03  0.41359664618E+03  0.41800000000E+01 0. -1.
        -11    1    1    2    0    0  0.76194179560E+02  0.10620620416E+03 -0.19589878310E+02  0.13217062508E+03  0.00000000000E+00 0.  1.
         11    1    1    2    0    0  0.70068895159E+02  0.30123181507E+03  0.20284985556E+02  0.30993827953E+03  0.00000000000E+00 0. -1.
</event>
<event>
 7    1  0.2688177E-009  0.8196645E+02  0.7561462E-02  0.1323562E+00
          1   -1    0    0  501    0  0.00000000000E+00  0.00000000000E+00  0.10470391927E+03  0.10470391927E+03  0.00000000000E+00 0. -1.
         -1   -1    0    0    0  501 -0.00000000000E+00 -0.00000000000E+00 -0.11980517031E+03  0.11980517031E+03  0.00000000000E+00 0.  1.
         25    2    1    2    0    0  0.18350261693E+02  0.21558527865E+02 -0.10806855624E+02  0.12870802380E+03  0.12508982786E+03 0.  0.
          5    1    3    3  502    0 -0.26166765177E+02  0.21718659998E+01  0.46448647604E+02  0.53519770796E+02  0.41800000000E+01 0.  1.
         -5    1    3    3    0  502  0.44517026870E+02  0.19386661865E+02 -0.57255503228E+02  0.75188253003E+02  0.41800000000E+01 0.  1.
        -11    1    1    2    0    0  0.23315205868E+01 -0.51866359252E+02 -0.20331153873E+02  0.55757609598E+02  0.00000000000E+00 0.  1.
         11    1    1    2    0    0 -0.20681782280E+02  0.30307831387E+02  0.16036758461E+02  0.40043456190E+02  0.00000000000E+00 0. -1.
</event>
<event>
 7    1  0.2688177E-009  0.7255062E+02  0.7561462E-02  0.1351628E+00
         -1   -1    0    0    0  501 -0.00000000000E+00  0.00000000000E+00  0.16412501829E+02  0.16412501829E+02  0.00000000000E+00 0.  1.
          1   -1    0    0  501    0  0.00000000000E+00 -0.00000000000E+00 -0.83971122398E+03  0.83971122398E+03  0.00000000000E+00 0. -1.
         25    2    1    2    0    0  0.33400050104E+02 -0.26069558912E+02 -0.41881018833E+03  0.43914015655E+03  0.12508764124E+03 0.  0.
          5    1    3    3  502    0  0.66956443539E+01 -0.17560041936E+02 -0.40854860173E+03  0.40900197934E+03  0.41800000000E+01 0. -1.
         -5    1    3    3    0  502  0.26704405750E+02 -0.85095169759E+01 -0.10261586599E+02  0.30138177204E+02  0.41800000000E+01 0. -1.
        -11    1    1    2    0    0 -0.55230980169E+02 -0.92394576370E+01 -0.28607241698E+03  0.29150172642E+03  0.00000000000E+00 0.  1.
         11    1    1    2    0    0  0.21830930065E+02  0.35309016549E+02 -0.11841611683E+03  0.12548184284E+03  0.00000000000E+00 0. -1.
</event>
<event>
 7    1  0.2688177E-009  0.1023235E+03  0.7561462E-02  0.1275485E+00
         -1   -1    0    0    0  501 -0.00000000000E+00  0.00000000000E+00  0.83746564728E+03  0.83746564728E+03  0.00000000000E+00 0.  1.
          1   -1    0    0  501    0  0.00000000000E+00 -0.00000000000E+00 -0.22190277328E+02  0.22190277328E+02  0.00000000000E+00 0. -1.
         25    2    1    2    0    0 -0.35244888024E+02  0.72653673378E+02  0.43402750380E+03  0.45885363368E+03  0.12508407055E+03 0.  0.
          5    1    3    3  502    0 -0.48557867625E+02  0.66114660412E+02  0.12579426685E+03  0.15023543125E+03  0.41800000000E+01 0.  1.
         -5    1    3    3    0  502  0.13312979602E+02  0.65390129653E+01  0.30823323694E+03  0.30861820243E+03  0.41800000000E+01 0.  1.
        -11    1    1    2    0    0 -0.13583552692E+02  0.57372458368E+01  0.90136847947E+01  0.17282228071E+02  0.00000000000E+00 0. -1.
         11    1    1    2    0    0  0.48828440715E+02 -0.78390919215E+02  0.37223418136E+03  0.38352006285E+03  0.00000000000E+00 0.  1.
</event>
<event>
 6    1  0.2688177E-009  0.1170671E+03  0.7561462E-02  0.1248015E+00
         -2   -1    0    0    0  501 -0.00000000000E+00  0.00000000000E+00  0.25335846348E+03  0.25335846348E+03  0.00000000000E+00 0.  1.
          2   -1    0    0  501    0  0.00000000000E+00 -0.00000000000E+00 -0.69590748223E+02  0.69590748223E+02  0.00000000000E+00 0. -1.
          5    1    1    2  502    0 -0.42967756116E+02  0.25917194254E+02  0.34719527760E+02  0.61162464237E+02  0.41800000000E+01 0. -1.
         -5    1    1    2    0  502  0.89833042804E+02  0.34783537832E+02  0.62028194272E+02  0.11465094578E+03  0.41800000000E+01 0. -1.
        -11    1    1    2    0    0  0.78555024992E+01 -0.10385470173E+02 -0.15663081386E+02  0.20369070395E+02  0.00000000000E+00 0. -1.
         11    1    1    2    0    0 -0.54720789187E+02 -0.50315261912E+02  0.10268307461E+03  0.12676673129E+03  0.00000000000E+00 0.  1.
</event>
<event>
 7    1  0.2836632E-009  0.6994717E+02  0.7561462E-02  0.1360273E+00
          2   -1    0    0  501    0  0.00000000000E+00  0.00000000000E+00  0.25025652820E+03  0.25025652820E+03  0.00000000000E+00 0. -1.
         -2   -1    0    0    0  501 -0.00000000000E+00 -0.00000000000E+00 -0.60397520860E+02  0.60397520860E+02  0.00000000000E+00 0.  1.
         25    2    1    2    0    0 -0.26120302319E+02  0.45045787475E+02  0.13458072286E+03  0.19100325382E+03  0.12513544198E+03 0.  0.
          5    1    3    3  502    0 -0.42394205887E+02  0.82296122530E+01  0.14319823504E+03  0.14962687636E+03  0.41800000000E+01 0. -1.
         -5    1    3    3    0  502  0.16273903568E+02  0.36816175222E+02 -0.86175121774E+01  0.41376377456E+02  0.41800000000E+01 0. -1.
        -11    1    1    2    0    0  0.20146019786E+02 -0.14270876461E+02 -0.23980221300E+02  0.34417597850E+02  0.00000000000E+00 0.  1.
         11    1    1    2    0    0  0.59742825330E+01 -0.30774911014E+02  0.79258505778E+02  0.85233197393E+02  0.00000000000E+00 0. -1.
</event>
<event>
 7    1  0.2688177E-009  0.1155645E+03  0.7561462E-02  0.1250599E+00
         -1   -1    0    0    0  501 -0.00000000000E+00  0.00000000000E+00  0.16195951274E+02  0.16195951274E+02  0.00000000000E+00 0.  1.
          1   -1    0    0  501    0  0.00000000000E+00 -0.00000000000E+00 -0.11345327772E+04  0.11345327772E+04  0.00000000000E+00 0. -1.
         25    2    1    2    0    0 -0.46967772447E+02  0.18904255608E+02 -0.86321339124E+03  0.87370154497E+03  0.12511470069E+03 0.  0.
          5    1    3    3  502    0 -0.87964952167E+02  0.93995443999E-01 -0.50299304689E+03  0.51064402402E+03  0.41800000000E+01 0.  1.
         -5    1    3    3    0  502  0.40997179719E+02  0.18810260164E+02 -0.36022034435E+03  0.36305752095E+03  0.41800000000E+01 0.  1.
        -11    1    1    2    0    0  0.59261387770E+02  0.15479334642E+02 -0.96821966711E+02  0.11456882263E+03  0.00000000000E+00 0.  1.
         11    1    1    2    0    0 -0.12293615322E+02 -0.34383590250E+02 -0.15830146797E+03  0.16245836088E+03  0.00000000000E+00 0. -1.
</event>
<event>
 7    1  0.2688177E-009  0.1415342E+03  0.7561462E-02  0.1211279E+00
          2   -1    0    0  501    0  0.00000000000E+00  0.00000000000E+00  0.50692810583E+03  0.50692810583E+03  0.00000000000E+00 0. -1.
         -2   -1    0    0    0  501 -0.00000000000E+00 -0.00000000000E+00 -0.46652145044E+02  0.46652145044E+02  0.00000000000E+00 0.  1.
         25    2    1    2    0    0 -0.92250554143E+02 -0.28255847807E+02  0.34554448878E+03  0.37994783482E+03  0.12510318055E+03 0.  0.
          5    1    3    3  502    0 -0.82621862742E+02  0.37579678304E+02  0.18491441537E+03  0.20603256499E+03  0.41800000000E+01 0.  1.
         -5    1    3    3    0  502 -0.96286914007E+01 -0.65835526111E+02  0.16063007341E+03  0.17391526983E+03  0.41800000000E+01 0.  1.
        -11    1    1    2    0    0 -0.14320883753E+02  0.98699063594E+01  0.35619658387E+02  0.39639157744E+02  0.00000000000E+00 0.  1.
         11    1    1    2    0    0  0.10657143790E+03  0.18385941448E+02  0.79111813612E+02  0.13399325830E+03  0.00000000000E+00 0. -1.
</event>
<event>
 7    1  0.2688177E-009  0.2112075E+03  0.7561462E-02  0.1140613E+00
         -2   -1    0    0    0  501 -0.00000000000E+00  0.00000000000E+00  0.20478219550E+03  0.20478219550E+03  0.00000000000E+00 0.  1.
          2   -1    0    0  501    0  0.00000000000E+00 -0.00000000000E+00 -0.30957228071E+03  0.30957228071E+03  0.00000000000E+00 0. -1.
         25    2    1    2    0    0  0.17020796737E+03  0.10434457766E+03  0.56189779885E+02  0.24220569011E+03  0.12509101453E+03 0.  0.
          5    1    3    3  502    0  0.10885073520E+03  0.93754357762E+01  0.67511553842E+02  0.12849771847E+03  0.41800000000E+01 0. -1.
         -5    1    3    3    0  502  0.61357232168E+02  0.94969141880E+02 -0.11321773956E+02  0.11370797164E+03  0.41800000000E+01 0. -1.
        -11    1    1    2    0    0 -0.16594252254E+02 -0.14114632755E+02 -0.67563913974E+02  0.70989256491E+02  0.00000000000E+00 0. -1.
         11    1    1    2    0    0 -0.15361371512E+03 -0.90229944901E+02 -0.93415951115E+02  0.20115952961E+03  0.00000000000E+00 0.  1.
</event>
<event>
 7    1  0.2688177E-009  0.3397290E+03  0.7561462E-02  0.1066911E+00
         -2   -1    0    0    0  501 -0.00000000000E+00  0.00000000000E+00  0.11471219455E+03  0.11471219455E+03  0.00000000000E+00 0.  1.
          2   -1    0    0  501    0  0.00000000000E+00 -0.00000000000E+00 -0.10926864881E+04  0.10926864881E+04  0.00000000000E+00 0. -1.
         25    2    1    2    0    0  0.12663712609E+03 -0.31006060345E+03 -0.56759863131E+03  0.67081926008E+03  0.12512287526E+03 0.  0.
          5    1    3    3  502    0  0.89773492448E+02 -0.24796687748E+03 -0.52327270828E+03  0.58598519768E+03  0.41800000000E+01 0. -1.
         -5    1    3    3    0  502  0.36863633646E+02 -0.62093725969E+02 -0.44325923027E+02  0.84834062395E+02  0.41800000000E+01 0. -1.
        -11    1    1    2    0    0 -0.50610967790E+01  0.10399414569E+03 -0.96915601338E+02  0.14224285860E+03  0.00000000000E+00 0.  1.
         11    1    1    2    0    0 -0.12157602932E+03  0.20606645775E+03 -0.31346006093E+03  0.39433656401E+03  0.00000000000E+00 0. -1.
</event>
<event>
 7    1  0.2688177E-009  0.1157978E+03  0.7561462E-02  0.1250195E+00
         -2   -1    0    0    0  501 -0.00000000000E+00  0.00000000000E+00  0.32252081237E+03  0.32252081237E+03  0.00000000000E+00 0.  1.
          2   -1    0    0  501    0  0.00000000000E+00 -0.00000000000E+00 -0.71348917593E+02  0.71348917593E+02  0.00000000000E+00 0. -1.
         25    2    1    2    0    0 -0.40444331787E+02  0.95253044530E+02  0.10271339194E+03  0.19211028644E+03  0.12508970704E+03 0.  0.
          5    1    3    3  502    0 -0.12721355680E+02  0.79704684099E+02  0.12793043752E+03  0.15132197065E+03  0.41800000000E+01 0. -1.
         -5    1    3    3    0  502 -0.27722976107E+02  0.15548360431E+02 -0.25217045587E+02  0.40788315783E+02  0.41800000000E+01 0. -1.
        -11    1    1    2    0    0  0.54287826165E+02 -0.87145645225E+02  0.15373823578E+03  0.18487016171E+03  0.00000000000E+00 0.  1.
         11    1    1    2    0    0 -0.13843494379E+02 -0.81073993043E+01 -0.52797329417E+01  0.16889281809E+02  0.00000000000E+00 0. -1.
</event>
<event>
 7    1  0.2688177E-009  0.1508137E+03  0.7561462E-02  0.1199477E+00
         -2   -1    0    0    0  501 -0.00000000000E+00  0.00000000000E+00  0.24724177478E+03  0.24724177478E+03  0.00000000000E+00 0.  1.
          2   -1    0    0  501    0  0.00000000000E+00 -0.00000000000E+00 -0.13980965114E+03  0.13980965114E+03  0.00000000000E+00 0. -1.
         25    2    1    2    0    0  0.65295615458E+02  0.10039439349E+03  0.15200795681E+03  0.23042711652E+03  0.12509070889E+03 0.  0.
          5    1    3    3  502    0  0.72084391957E+02  0.12662276458E+03  0.12779741297E+03  0.19385338593E+03  0.41800000000E+01 0. -1.
         -5    1    3    3    0  502 -0.67887764994E+01 -0.26228371089E+02  0.24210543838E+02  0.36573730590E+02  0.41800000000E+01 0. -1.
        -11    1    1    2    0    0  0.54816956089E+01 -0.22695950067E+02  0.22106348722E+02  0.32153472441E+02  0.00000000000E+00 0.  1.
         11    1    1    2    0    0 -0.70777311066E+02 -0.77698443421E+02 -0.66682181891E+02  0.12447083696E+03  0.00000000000E+00 0. -1.
</event>
<event>
 7    1  0.2688177E-009  0.2862985E+03  0.7561462E-02  0.1092298E+00
         -1   -1    0    0    0  501 -0.00000000000E+00  0.00000000000E+00  0.14020474695E+03  0.14020474695E+03  0.00000000000E+00 0.  1.
          1   -1    0    0  501    0  0.00000000000E+00 -0.00000000000E+00 -0.62708894605E+03  0.62708894605E+03  0.00000000000E+00 0. -1.
         25    2    1    2    0    0 -0.17951271805E+03  0.20030346012E+03 -0.16984737624E+03  0.34181940729E+03  0.12508430719E+03 0.  0.
          5    1    3    3  502    0 -0.19021124499E+03  0.16519534380E+03 -0.11817956403E+03  0.27830505042E+03  0.41800000000E+01 0. -1.
         -5    1    3    3    0  502  0.10698526941E+02  0.35108116323E+02 -0.51667812208E+02  0.63514356872E+02  0.41800000000E+01 0. -1.
        -11    1    1    2    0    0  0.14246635933E+03 -0.20132046906E+03 -0.27255482218E+03  0.36757682993E+03  0.00000000000E+00 0. -1.
         11    1    1    2    0    0  0.37046358717E+02  0.10170089363E+01 -0.44482000676E+02  0.57897455778E+02  0.00000000000E+00 0.  1.
</event>
<event>
 7    1  0.2688177E-009  0.2077059E+03  0.7561462E-02  0.1143396E+00
          2   -1    0    0  501    0  0.00000000000E+00  0.00000000000E+00  0.23757296938E+03  0.23757296938E+03  0.00000000000E+00 0. -1.
         -2   -1    0    0    0  501 -0.00000000000E+00 -0.00000000000E+00 -0.20373217752E+03  0.20373217752E+03  0.00000000000E+00 0.  1.
         25    2    1    2    0    0  0.22542565919E+02 -0.18869014610E+03  0.40243626910E+02  0.23103917307E+03  0.12508961378E+03 0.  0.
          5    1    3    3  502    0 -0.96493701398E+01 -0.18189886730E+03  0.44700878054E+01  0.18225740686E+03  0.41800000000E+01 0.  1.
         -5    1    3    3    0  502  0.32191936059E+02 -0.67912787953E+01  0.35773539104E+02  0.48781766214E+02  0.41800000000E+01 0.  1.
        -11    1    1    2    0    0 -0.32258778267E+02  0.41640763993E+02 -0.30607748881E+02  0.60921394377E+02  0.00000000000E+00 0.  1.
         11    1    1    2    0    0  0.97162123476E+01  0.14704938210E+03  0.24204913831E+02  0.14934457946E+03  0.00000000000E+00 0. -1.
</event>
<event>
 7    1  0.2688177E-009  0.1480613E+03  0.7561462E-02  0.1202876E+00
         -2   -1    0    0    0  501 -0.00000000000E+00  0.00000000000E+00  0.18450507212E+03  0.18450507212E+03  0.00000000000E+00 0.  1.
          2   -1    0    0  501    0  0.00000000000E+00 -0.00000000000E+00 -0.18626899620E+03  0.18626899620E+03  0.00000000000E+00 0. -1.
         25    2    1    2    0    0 -0.86320232681E+02 -0.65016194900E+02 -0.10534446448E+03  0.19601801029E+03  0.12508923212E+03 0.  0.
          5    1    3    3  502    0  0.42039030959E+01  0.28085810646E+02 -0.43522440120E+02  0.52135983302E+02  0.41800000000E+01 0. -1.
         -5    1    3    3    0  502 -0.90524135776E+02 -0.93102005547E+02 -0.61822024358E+02  0.14388202699E+03  0.41800000000E+01 0. -1.
        -11    1    1    2    0    0  0.77749475386E+02  0.61330860114E+01  0.39911521016E+02  0.87610074630E+02  0.00000000000E+00 0.  1.
         11    1    1    2    0    0  0.85707572942E+01  0.58883108889E+02  0.63669019380E+02  0.87145983395E+02  0.00000000000E+00 0. -1.
</event>
<event>
 7    1  0.2688177E-009  0.1829788E+03  0.7561462E-02  0.1164951E+00
         -2   -1    0    0    0  501 -0.00000000000E+00  0.00000000000E+00  0.57817621745E+02  0.57817621745E+02  0.00000000000E+00 0.  1.
          2   -1    0    0  501    0  0.00000000000E+00 -0.00000000000E+00 -0.71630527840E+03  0.71630527840E+03  0.00000000000E+00 0. -1.
         25    2    1    2    0    0  0.15442023515E+03 -0.49279801898E+02 -0.43660964506E+03  0.48223459963E+03  0.12509244190E+03 0.  0.
          5    1    3    3  502    0 -0.15556389841E+01 -0.47611163543E+02 -0.84368866327E+02  0.96978455916E+02  0.41800000000E+01 0. -1.
         -5    1    3    3    0  502  0.15597587414E+03 -0.16686383550E+01 -0.35224077873E+03  0.38525614371E+03  0.41800000000E+01 0. -1.
        -11    1    1    2    0    0 -0.69779346295E+02  0.22888527473E+02 -0.27809102753E+02  0.78526352616E+02  0.00000000000E+00 0.  1.
         11    1    1    2    0    0 -0.84640888858E+02  0.26391274426E+02 -0.19406890885E+03  0.21336194790E+03  0.00000000000E+00 0. -1.
</event>
<event>
 7    1  0.2688177E-009  0.8634254E+02  0.7561462E-02  0.1311959E+00
          1   -1    0    0  501    0  0.00000000000E+00  0.00000000000E+00  0.12842749487E+03  0.12842749487E+03  0.00000000000E+00 0. -1.
         -1   -1    0    0    0  501 -0.00000000000E+00 -0.00000000000E+00 -0.93986940866E+02  0.93986940866E+02  0.00000000000E+00 0.  1.
         25    2    1    2    0    0 -0.52547143287E+01  0.17289902237E+02  0.27696887586E+02  0.12938744149E+03  0.12508972656E+03 0.  0.
          5    1    3    3  502    0  0.31313500479E+02 -0.21366427791E+02  0.56934691946E+02  0.68528031460E+02  0.41800000000E+01 0. -1.
         -5    1    3    3    0  502 -0.36568214807E+02  0.38656330028E+02 -0.29237804359E+02  0.60859410030E+02  0.41800000000E+01 0. -1.
        -11    1    1    2    0    0  0.12638846640E+02 -0.47973756248E+02  0.26046066557E+02  0.56032306003E+02  0.00000000000E+00 0. -1.
         11    1    1    2    0    0 -0.73841323115E+01  0.30683854011E+02 -0.19302400140E+02  0.36994688243E+02  0.00000000000E+00 0.  1.
</event>
<event>
 7    1  0.2688177E-009  0.8783795E+02  0.7561462E-02  0.1308173E+00
         -2   -1    0    0    0  501 -0.00000000000E+00  0.00000000000E+00  0.14340079052E+02  0.14340079052E+02  0.00000000000E+00 0.  1.
          2   -1    0    0  501    0  0.00000000000E+00 -0.00000000000E+00 -0.10733847574E+04  0.10733847574E+04  0.00000000000E+00 0. -1.
         25    2    1    2    0    0  0.57999663757E+02 -0.15334970103E+02 -0.58483550113E+03  0.60106429051E+03  0.12508635274E+03 0.  0.
          5    1    3    3  502    0  0.49807811991E+02  0.11872215938E+01 -0.70759724676E+02  0.86640860260E+02  0.41800000000E+01 0. -1.
         -5    1    3    3    0  502  0.81918517666E+01 -0.16522191697E+02 -0.51407577645E+03  0.51442343025E+03  0.41800000000E+01 0. -1.
        -11    1    1    2    0    0  0.14791275804E+02 -0.20784167079E+02 -0.73670994218E+02  0.77962675879E+02  0.00000000000E+00 0.  1.
         11    1    1    2    0    0 -0.72790939561E+02  0.36119137182E+02 -0.40053818304E+03  0.40869787010E+03  0.00000000000E+00 0. -1.
</event>
<event>
 7    1  0.2688177E-009  0.7376512E+02  0.7561462E-02  0.1347738E+00
         -4   -1    0    0    0  501 -0.00000000000E+00  0.00000000000E+00  0.10495865588E+03  0.10495865588E+03  0.00000000000E+00 0.  1.
          4   -1    0    0  501    0  0.00000000000E+00 -0.00000000000E+00 -0.11330350277E+03  0.11330350277E+03  0.00000000000E+00 0. -1.
         25    2    1    2    0    0 -0.20762892041E+01 -0.59466501226E+01  0.90802175449E+01  0.12556979812E+03  0.12508257363E+03 0.  0.
          5    1    3    3  502    0 -0.35631930128E+02 -0.97871592625E+01  0.56233865031E+02  0.67417675037E+02  0.41800000000E+01 0.  1.
         -5    1    3    3    0  502  0.33555640924E+02  0.38405091399E+01 -0.47153647486E+02  0.58152123087E+02  0.41800000000E+01 0.  1.
        -11    1    1    2    0    0 -0.15619460277E+01  0.41019644097E+02 -0.34400397798E+02  0.53557802847E+02  0.00000000000E+00 0. -1.
         11    1    1    2    0    0  0.36382352318E+01 -0.35072993974E+02  0.16975333367E+02  0.39134557680E+02  0.00000000000E+00 0.  1.
</event>
<event>
 7    1  0.2688177E-009  0.1702663E+03  0.7561462E-02  0.1177570E+00
         -2   -1    0    0    0  501 -0.00000000000E+00  0.00000000000E+00  0.86392250791E+02  0.86392250791E+02  0.00000000000E+00 0.  1.
          2   -1    0    0  501    0  0.00000000000E+00 -0.00000000000E+00 -0.38881447920E+03  0.38881447920E+03  0.00000000000E+00 0. -1.
         25    2    1    2    0    0  0.81431711295E+01  0.14556827869E+03 -0.18957470677E+03  0.26989133283E+03  0.12508527929E+03 0.  0.
          5    1    3    3  502    0  0.51287057656E+01 -0.16717479779E+02  0.27552497692E+01  0.18189050396E+02  0.41800000000E+01 0. -1.
         -5    1    3    3    0  502  0.30144653638E+01  0.16228575847E+03 -0.19232995654E+03  0.25170228244E+03  0.41800000000E+01 0. -1.
        -11    1    1    2    0    0  0.29326020437E+02 -0.60607395668E+02 -0.12288667491E+02  0.68441823712E+02  0.00000000000E+00 0.  1.
         11    1    1    2    0    0 -0.37469191567E+02 -0.84960883020E+02 -0.10055885415E+03  0.13687357345E+03  0.00000000000E+00 0. -1.
</event>
<event>
 7    1  0.2688177E-009  0.1773927E+03  0.7561462E-02  0.1170350E+00
          1   -1    0    0  501    0  0.00000000000E+00  0.00000000000E+00  0.20245916711E+03  0.20245916711E+03  0.00000000000E+00 0. -1.
         -1   -1    0    0    0  501 -0.00000000000E+00 -0.00000000000E+00 -0.25462797564E+03  0.25462797564E+03  0.00000000000E+00 0.  1.
         25    2    1    2    0    0  0.12212585369E+03  0.77958136984E+02 -0.16513338467E+03  0.25280357700E+03  0.12509363913E+03 0.  0.
          5    1    3    3  502    0  0.69639670228E+02 -0.20684802032E+02 -0.99096982997E+02  0.12294400816E+03  0.41800000000E+01 0. -1.
         -5    1    3    3    0  502  0.52486183465E+02  0.98642939016E+02 -0.66036401674E+02  0.12985956884E+03  0.41800000000E+01 0. -1.
        -11    1    1    2    0    0 -0.76496529160E+02  0.37816387437E+01  0.51606906533E+02  0.92354169191E+02  0.00000000000E+00 0. -1.
         11    1    1    2    0    0 -0.45629324533E+02 -0.81739775728E+02  0.61357669612E+02  0.11192939656E+03  0.00000000000E+00 0.  1.
</event>
<event>
 6    1  0.2688177E-009  0.9943444E+02  0.7561462E-02  0.1281490E+00
          1   -1    0    0  501    0  0.00000000000E+00  0.00000000000E+00  0.39503333773E+03  0.39503333773E+03  0.00000000000E+00 0. -1.
         -1   -1    0    0    0  501 -0.00000000000E+00 -0.00000000000E+00 -0.10476916128E+03  0.10476916128E+03  0.00000000000E+00 0.  1.
          5    1    1    2  502    0  0.13457521102E+02 -0.16710665506E+02  0.46257481987E+02  0.51162273754E+02  0.41800000000E+01 0. -1.
         -5    1    1    2    0  502  0.19422369936E+02 -0.54624023573E+02 -0.82614855051E+02  0.10101336090E+03  0.41800000000E+01 0. -1.
        -11    1    1    2    0    0  0.50973625163E+01 -0.19645797829E+02  0.50042664642E+02  0.54001932941E+02  0.00000000000E+00 0. -1.
         11    1    1    2    0    0 -0.37977253554E+02  0.90980486908E+02  0.27657888487E+03  0.29362493141E+03  0.00000000000E+00 0.  1.
</event>
<event>
 7    1  0.2688177E-009  0.3971139E+03  0.7561462E-02  0.1044784E+00
         -2   -1    0    0    0  501 -0.00000000000E+00  0.00000000000E+00  0.38905232917E+02  0.38905232917E+02  0.00000000000E+00 0.  1.
          2   -1    0    0  501    0  0.00000000000E+00 -0.00000000000E+00 -0.46598938856E+04  0.46598938856E+04  0.00000000000E+00 0. -1.
         25    2    1    2    0    0 -0.35713190388E+03 -0.16351062413E+03 -0.29144775580E+04  0.29434852598E+04  0.12508844073E+03 0.  0.
          5    1    3    3  502    0 -0.29464681766E+03 -0.12135403585E+03 -0.26270456966E+04  0.26463049925E+04  0.41800000000E+01 0. -1.
         -5    1    3    3    0  502 -0.62485086217E+02 -0.42156588284E+02 -0.28743186141E+03  0.29718026733E+03  0.41800000000E+01 0. -1.
        -11    1    1    2    0    0  0.20298971009E+03  0.13366153069E+03 -0.12241451460E+04  0.12480390882E+04  0.00000000000E+00 0. -1.
         11    1    1    2    0    0  0.15414219379E+03  0.29849093438E+02 -0.48236594863E+03  0.50727477040E+03  0.00000000000E+00 0.  1.
</event>
<event>
 7    1  0.2688177E-009  0.1116274E+03  0.7561462E-02  0.1257586E+00
         -1   -1    0    0    0  501 -0.00000000000E+00  0.00000000000E+00  0.61828120283E+02  0.61828120283E+02  0.00000000000E+00 0.  1.
          1   -1    0    0  501    0  0.00000000000E+00 -0.00000000000E+00 -0.24559426273E+03  0.24559426273E+03  0.00000000000E+00 0. -1.
         25    2    1    2    0    0  0.15201004802E+01  0.43011442406E+02 -0.57247342753E+02  0.14414272425E+03  0.12509025469E+03 0.  0.
          5    1    3    3  502    0 -0.61460428693E+02  0.17951516212E+02 -0.31876467095E+02  0.71646512712E+02  0.41800000000E+01 0.  1.
         -5    1    3    3    0  502  0.62980529173E+02  0.25059926194E+02 -0.25370875658E+02  0.72496211538E+02  0.41800000000E+01 0.  1.
        -11    1    1    2    0    0  0.21534018918E+02 -0.59208648273E+02 -0.11813221220E+03  0.13388277544E+03  0.00000000000E+00 0. -1.
         11    1    1    2    0    0 -0.23054119398E+02  0.16197205867E+02 -0.83865874941E+01  0.29396883320E+02  0.00000000000E+00 0.  1.
</event>
<event>
 7    1  0.2688177E-009  0.8329330E+02  0.7561462E-02  0.1319957E+00
          1   -1    0    0  501    0  0.00000000000E+00  0.00000000000E+00  0.13664003597E+04  0.13664003597E+04  0.00000000000E+00 0. -1.
         -1   -1    0    0    0  501 -0.00000000000E+00 -0.00000000000E+00 -0.17610210499E+02  0.17610210499E+02  0.00000000000E+00 0.  1.
         25    2    1    2    0    0 -0.73670819146E+02  0.99786033532E+01  0.10940401910E+04  0.11036747764E+04  0.12508840997E+03 0.  0.
          5    1    3    3  502    0 -0.38921004079E+02  0.73315973024E+01  0.10289774230E+04  0.10297478363E+04  0.41800000000E+01 0.  1.
         -5    1    3    3    0  502 -0.34749815068E+02  0.26470060509E+01  0.65062767993E+02  0.73926940063E+02  0.41800000000E+01 0.  1.
        -11    1    1    2    0    0  0.61925652256E+02 -0.29721218330E+02  0.24655715274E+03  0.25594641391E+03  0.00000000000E+00 0. -1.
         11    1    1    2    0    0  0.11745166890E+02  0.19742614976E+02  0.81928054285E+01  0.24389379905E+02  0.00000000000E+00 0.  1.
</event>
<event>
 7    1  0.2688177E-009  0.1880734E+03  0.7561462E-02  0.1160211E+00
          1   -1    0    0  501    0  0.00000000000E+00  0.00000000000E+00  0.19915301033E+04  0.19915301033E+04  0.00000000000E+00 0. -1.
         -1   -1    0    0    0  501 -0.00000000000E+00 -0.00000000000E+00 -0.25674151969E+02  0.25674151969E+02  0.00000000000E+00 0.  1.
         25    2    1    2    0    0 -0.15674379479E+03  0.67505755636E+02  0.14686678688E+04  0.14838322329E+04  0.12508853751E+03 0.  0.
          5    1    3    3  502    0 -0.29939230633E+02  0.61277215040E+02  0.27239178287E+03  0.28083092848E+03  0.41800000000E+01 0.  1.
         -5    1    3    3    0  502 -0.12680456416E+03  0.62285405959E+01  0.11962760859E+04  0.12030013044E+04  0.41800000000E+01 0.  1.
        -11    1    1    2    0    0  0.13239208771E+03 -0.29475259176E+02  0.27485558457E+03  0.30649967074E+03  0.00000000000E+00 0.  1.
         11    1    1    2    0    0  0.24351707082E+02 -0.38030496460E+02  0.22233249794E+03  0.22687235164E+03  0.00000000000E+00 0. -1.
</event>
<event>
 7    1  0.2688177E-009  0.2839735E+03  0.7561462E-02  0.1093538E+00
          2   -1    0    0  501    0  0.00000000000E+00  0.00000000000E+00  0.79965783279E+03  0.79965783279E+03  0.00000000000E+00 0. -1.
         -2   -1    0    0    0  501 -0.00000000000E+00 -0.00000000000E+00 -0.11933359329E+03  0.11933359329E+03  0.00000000000E+00 0.  1.
         25    2    1    2    0    0 -0.13042477414E+03  0.23902833410E+03  0.48570179800E+03  0.57069928270E+03  0.12508504500E+03 0.  0.
          5    1    3    3  502    0 -0.45205190705E+02  0.45404637346E+01  0.11617845761E+03  0.12481599053E+03  0.41800000000E+01 0.  1.
         -5    1    3    3    0  502 -0.85219583438E+02  0.23448787037E+03  0.36952334039E+03  0.44588329218E+03  0.41800000000E+01 0.  1.
        -11    1    1    2    0    0  0.68604870711E+02 -0.14270617207E+03  0.16784885079E+03  0.23074860030E+03  0.00000000000E+00 0.  1.
         11    1    1    2    0    0  0.61819903433E+02 -0.96322162035E+02  0.26773590705E+02  0.11754354308E+03  0.00000000000E+00 0. -1.
</event>
<event>
 7    1  0.2688177E-009  0.5557358E+02  0.7561462E-02  0.1417406E+00
          2   -1    0    0  501    0  0.00000000000E+00  0.00000000000E+00  0.21680169800E+03  0.21680169800E+03  0.00000000000E+00 0. -1.
         -2   -1    0    0    0  501 -0.00000000000E+00 -0.00000000000E+00 -0.62396119251E+02  0.62396119251E+02  0.00000000000E+00 0.  1.
         25    2    1    2    0    0 -0.34369039416E+02  0.23358182549E+02  0.77013085286E+02  0.15265644400E+03  0.12508452753E+03 0.  0.
          5    1    3    3  502    0 -0.18363846242E+02  0.23664331987E+02  0.11089798525E+03  0.11494810564E+03  0.41800000000E+01 0. -1.
         -5    1    3    3    0  502 -0.16005193174E+02 -0.30614943804E+00 -0.33884899969E+02  0.37708338361E+02  0.41800000000E+01 0. -1.
        -11    1    1    2    0    0  0.11055579325E+02 -0.36124397634E+02 -0.66825974347E+01  0.38364763092E+02  0.00000000000E+00 0.  1.
         11    1    1    2    0    0  0.23313460092E+02  0.12766215085E+02  0.84075090901E+02  0.88176610158E+02  0.00000000000E+00 0. -1.
</event>
<event>
 7    1  0.2688177E-009  0.8275046E+02  0.7561462E-02  0.1321422E+00
         -1   -1    0    0    0  501 -0.00000000000E+00  0.00000000000E+00  0.11098066077E+03  0.11098066077E+03  0.00000000000E+00 0.  1.
          1   -1    0    0  501    0  0.00000000000E+00 -0.00000000000E+00 -0.11041462578E+03  0.11041462578E+03  0.00000000000E+00 0. -1.
         25    2    1    2    0    0 -0.55662345574E+01 -0.25116113291E+02 -0.63157198041E+01  0.12785647250E+03  0.12508232141E+03 0.  0.
          5    1    3    3  502    0 -0.49308344923E+02 -0.38739727565E+02  0.29623876422E+02  0.69477520286E+02  0.41800000000E+01 0.  1.
         -5    1    3    3    0  502  0.43742110365E+02  0.13623614274E+02 -0.35939596226E+02  0.58378952218E+02  0.41800000000E+01 0.  1.
        -11    1    1    2    0    0 -0.56929629729E+01  0.38637822341E+02 -0.32239525864E+02  0.50642651694E+02  0.00000000000E+00 0. -1.
         11    1    1    2    0    0  0.11259197530E+02 -0.13521709050E+02  0.39121280652E+02  0.42896162351E+02  0.00000000000E+00 0.  1.
</event>
<event>
 7    1  0.2688177E-009  0.2342647E+03  0.7561462E-02  0.1123674E+00
          2   -1    0    0  501    0  0.00000000000E+00  0.00000000000E+00  0.12941047310E+04  0.12941047310E+04  0.00000000000E+00 0. -1.
         -2   -1    0    0    0  501 -0.00000000000E+00 -0.00000000000E+00 -0.50146921228E+02  0.50146921228E+02  0.00000000000E+00 0.  1.
         25    2    1    2    0    0 -0.13037269636E+03 -0.18638494787E+03  0.72438002224E+03  0.76948567591E+03  0.12508157360E+03 0.  0.
          5    1    3    3  502    0 -0.93566336757E+02 -0.14559900556E+03  0.67025097958E+03  0.69224820536E+03  0.41800000000E+01 0.  1.
         -5    1    3    3    0  502 -0.36806359603E+02 -0.40785942308E+02  0.54129042661E+02  0.77237470547E+02  0.41800000000E+01 0.  1.
        -11    1    1    2    0    0  0.56573247370E+02  0.23072087844E+02  0.84945745290E+02  0.10463571665E+03  0.00000000000E+00 0.  1.
         11    1    1    2    0    0  0.73799448990E+02  0.16331286003E+03  0.43463204229E+03  0.47013025972E+03  0.00000000000E+00 0. -1.
</event>
<event>
 7    1  0.2688177E-009  0.1623563E+03  0.7561462E-02  0.1186062E+00
         -2   -1    0    0    0  501 -0.00000000000E+00  0.00000000000E+00  0.44086091364E+02  0.44086091364E+02  0.00000000000E+00 0. -1.
          2   -1    0    0  501    0  0.00000000000E+00 -0.00000000000E+00 -0.71304531837E+03  0.71304531837E+03  0.00000000000E+00 0.  1.
         25    2    1    2    0    0  0.13128932592E+03 -0.47860446260E+02 -0.35939321009E+03  0.40538710787E+03  0.12509084040E+03 0.  0.
          5    1    3    3  502    0  0.65374664788E+02  0.33302527626E+02 -0.21390593443E+03  0.22617720116E+03  0.41800000000E+01 0.  1.
         -5    1    3    3    0  502  0.65914661130E+02 -0.81162973886E+02 -0.14548727567E+03  0.17920990671E+03  0.41800000000E+01 0.  1.
        -11    1    1    2    0    0 -0.75149624464E+02  0.50236871448E+02 -0.26510220431E+03  0.28008996419E+03  0.00000000000E+00 0.  1.
         11    1    1    2    0    0 -0.56139701454E+02 -0.23764251877E+01 -0.44463812601E+02  0.71654337671E+02  0.00000000000E+00 0. -1.
</event>
<event>
 7    1  0.2688177E-009  0.7873771E+02  0.7561462E-02  0.1332672E+00
          1   -1    0    0  501    0  0.00000000000E+00  0.00000000000E+00  0.74339071013E+02  0.74339071013E+02  0.00000000000E+00 0. -1.
         -1   -1    0    0    0  501 -0.00000000000E+00 -0.00000000000E+00 -0.16321866859E+03  0.16321866859E+03  0.00000000000E+00 0.  1.
         25    2    1    2    0    0  0.17793406897E+02 -0.34597768574E+01 -0.43973641045E+02  0.13382679149E+03  0.12508938256E+03 0.  0.
          5    1    3    3  502    0  0.22899264194E+02  0.35229739613E+02  0.28822338784E+02  0.51124460552E+02  0.41800000000E+01 0.  1.
         -5    1    3    3    0  502 -0.51058572969E+01 -0.38689516470E+02 -0.72795979829E+02  0.82702330938E+02  0.41800000000E+01 0.  1.
        -11    1    1    2    0    0 -0.30268121847E+02  0.32490186100E+02  0.49770478309E+01  0.44682685663E+02  0.00000000000E+00 0. -1.
         11    1    1    2    0    0  0.12474714950E+02 -0.29030409242E+02 -0.49883004359E+02  0.59048262445E+02  0.00000000000E+00 0.  1.
</event>
<event>
 7    1  0.2688177E-009  0.1253669E+03  0.7561462E-02  0.1234497E+00
         -1   -1    0    0    0  501 -0.00000000000E+00  0.00000000000E+00  0.95266892332E+03  0.95266892332E+03  0.00000000000E+00 0.  1.
          1   -1    0    0  501    0  0.00000000000E+00 -0.00000000000E+00 -0.19642459760E+02  0.19642459760E+02  0.00000000000E+00 0. -1.
         25    2    1    2    0    0 -0.52893957199E+02  0.36149933973E+02  0.32562592499E+03  0.35466088673E+03  0.12509002006E+03 0.  0.
          5    1    3    3  502    0 -0.73204060349E+02  0.68445638535E+02  0.20780700338E+03  0.23074848416E+03  0.41800000000E+01 0.  1.
         -5    1    3    3    0  502  0.20310103150E+02 -0.32295704562E+02  0.11781892160E+03  0.12391240257E+03  0.41800000000E+01 0.  1.
        -11    1    1    2    0    0  0.50950461323E+02 -0.65305041729E+02  0.44581935928E+03  0.45344856278E+03  0.00000000000E+00 0.  1.
         11    1    1    2    0    0  0.19434958762E+01  0.29155107756E+02  0.16158117930E+03  0.16420193357E+03  0.00000000000E+00 0. -1.
</event>
<event>
 7    1  0.2688177E-009  0.1658079E+03  0.7561462E-02  0.1182291E+00
          2   -1    0    0  501    0  0.00000000000E+00  0.00000000000E+00  0.91307973666E+03  0.91307973666E+03  0.00000000000E+00 0.  1.
         -2   -1    0    0    0  501 -0.00000000000E+00 -0.00000000000E+00 -0.43621920717E+02  0.43621920717E+02  0.00000000000E+00 0. -1.
         25    2    1    2    0    0  0.93231472642E+02  0.13298783243E+03  0.54232074040E+03  0.57977363419E+03  0.12509120823E+03 0.  0.
          5    1    3    3  502    0  0.17903918456E+02  0.65322684677E+02  0.39607534644E+03  0.40184668207E+03  0.41800000000E+01 0. -1.
         -5    1    3    3    0  502  0.75327554186E+02  0.67665147750E+02  0.14624539395E+03  0.17792695212E+03  0.41800000000E+01 0. -1.
        -11    1    1    2    0    0 -0.62840108844E+02 -0.89683129862E+02  0.11708042210E+03  0.16031147277E+03  0.00000000000E+00 0.  1.
         11    1    1    2    0    0 -0.30391363799E+02 -0.43304702565E+02  0.21005665344E+03  0.21661655042E+03  0.00000000000E+00 0. -1.
</event>
<event>
 7    1  0.2688177E-009  0.8999326E+02  0.7561462E-02  0.1302868E+00
         -2   -1    0    0    0  501 -0.00000000000E+00  0.00000000000E+00  0.76769360170E+02  0.76769360170E+02  0.00000000000E+00 0.  1.
          2   -1    0    0  501    0  0.00000000000E+00 -0.00000000000E+00 -0.16445630987E+03  0.16445630987E+03  0.00000000000E+00 0. -1.
         25    2    1    2    0    0  0.75003635419E+01 -0.45870668348E+01 -0.18962266917E+02  0.12682632318E+03  0.12509217421E+03 0.  0.
          5    1    3    3  502    0  0.58435562893E+02 -0.48268092980E+01 -0.40481184059E+02  0.71373747004E+02  0.41800000000E+01 0. -1.
         -5    1    3    3    0  502 -0.50935199351E+02  0.23974246320E+00  0.21518917142E+02  0.55452576174E+02  0.41800000000E+01 0. -1.
        -11    1    1    2    0    0 -0.37685273329E+02  0.10958253255E+02 -0.19583259855E+00  0.39246674900E+02  0.00000000000E+00 0.  1.
         11    1    1    2    0    0  0.30184909787E+02 -0.63711864201E+01 -0.68528850187E+02  0.75152671964E+02  0.00000000000E+00 0. -1.
</event>
<event>
 7    1  0.2688177E-009  0.1056176E+03  0.7561462E-02  0.1268907E+00
         -2   -1    0    0    0  501 -0.00000000000E+00  0.00000000000E+00  0.19660779339E+02  0.19660779339E+02  0.00000000000E+00 0.  1.
          2   -1    0    0  501    0  0.00000000000E+00 -0.00000000000E+00 -0.10735475289E+04  0.10735475289E+04  0.00000000000E+00 0. -1.
         25    2    1    2    0    0  0.58012015543E+02 -0.35237721655E+02 -0.84447670787E+03  0.85638504960E+03  0.12508937634E+03 0.  0.
          5    1    3    3  502    0  0.61311350273E+02 -0.58126037472E+02 -0.81147322371E+03  0.81587007734E+03  0.41800000000E+01 0. -1.
         -5    1    3    3    0  502 -0.32993347299E+01  0.22888315817E+02 -0.33003484162E+02  0.40514972263E+02  0.41800000000E+01 0. -1.
        -11    1    1    2    0    0  0.97064888165E+01  0.34062572681E+02 -0.35307858380E+02  0.50011195208E+02  0.00000000000E+00 0.  1.
         11    1    1    2    0    0 -0.67718504360E+02  0.11751489739E+01 -0.17410218330E+03  0.18681206342E+03  0.00000000000E+00 0. -1.
</event>
<event>
 7    1  0.2688177E-009  0.8273600E+02  0.7561462E-02  0.1321462E+00
         -1   -1    0    0    0  501 -0.00000000000E+00  0.00000000000E+00  0.64857313197E+02  0.64857313197E+02  0.00000000000E+00 0.  1.
          1   -1    0    0  501    0  0.00000000000E+00 -0.00000000000E+00 -0.27808530927E+03  0.27808530927E+03  0.00000000000E+00 0. -1.
         25    2    1    2    0    0  0.21972121634E+02  0.39021569465E+01 -0.20767063071E+02  0.12875542561E+03  0.12509471515E+03 0.  0.
          5    1    3    3  502    0 -0.41471663527E+02  0.14542929762E+02 -0.41949889513E+02  0.60898779232E+02  0.41800000000E+01 0. -1.
         -5    1    3    3    0  502  0.63443785161E+02 -0.10640772815E+02  0.21182826442E+02  0.67856646379E+02  0.41800000000E+01 0. -1.
        -11    1    1    2    0    0  0.13967124079E+01  0.21959919231E+02 -0.37958748079E+01  0.22329297431E+02  0.00000000000E+00 0.  1.
         11    1    1    2    0    0 -0.23368834042E+02 -0.25862076178E+02 -0.18866505819E+03  0.19185789942E+03  0.00000000000E+00 0. -1.
</event>
<event>
 7    1  0.2688177E-009  0.1540745E+03  0.7561462E-02  0.1195554E+00
          1   -1    0    0  501    0  0.00000000000E+00  0.00000000000E+00  0.36056682114E+03  0.36056682114E+03  0.00000000000E+00 0. -1.
         -1   -1    0    0    0  501 -0.00000000000E+00 -0.00000000000E+00 -0.16716550627E+03  0.16716550627E+03  0.00000000000E+00 0.  1.
         25    2    1    2    0    0  0.12381637509E+03 -0.74681982965E+02 -0.78166082878E+02  0.20655699628E+03  0.12509181779E+03 0.  0.
          5    1    3    3  502    0  0.67628867193E+02 -0.88605542116E+01 -0.96255882263E+02  0.11804592483E+03  0.41800000000E+01 0. -1.
         -5    1    3    3    0  502  0.56187507902E+02 -0.65821428753E+02  0.18089799385E+02  0.88511071449E+02  0.41800000000E+01 0. -1.
        -11    1    1    2    0    0 -0.39714743218E+01  0.21832970570E+02  0.11464347697E+03  0.11677147778E+03  0.00000000000E+00 0. -1.
         11    1    1    2    0    0 -0.11984490077E+03  0.52849012395E+02  0.15692392078E+03  0.20440385336E+03  0.00000000000E+00 0.  1.
</event>
<event>
 7    1  0.2688177E-009  0.1983636E+03  0.7561462E-02  0.1151127E+00
         -2   -1    0    0    0  501 -0.00000000000E+00  0.00000000000E+00  0.95565389842E+02  0.95565389842E+02  0.00000000000E+00 0.  1.
          2   -1    0    0  501    0  0.00000000000E+00 -0.00000000000E+00 -0.45386964396E+03  0.45386964396E+03  0.00000000000E+00 0. -1.
         25    2    1    2    0    0 -0.36879423630E+02 -0.16160573428E+03 -0.20155428168E+03  0.28939300756E+03  0.12509068358E+03 0.  0.
          5    1    3    3  502    0 -0.77010981512E+02 -0.58628278865E+02 -0.88029305319E+02  0.13089918774E+03  0.41800000000E+01 0.  1.
         -5    1    3    3    0  502  0.40131557882E+02 -0.10297745542E+03 -0.11352497636E+03  0.15849381982E+03  0.41800000000E+01 0.  1.
        -11    1    1    2    0    0 -0.30125207556E+02  0.36470768236E+02  0.16692982681E+01  0.47333197892E+02  0.00000000000E+00 0.  1.
         11    1    1    2    0    0  0.67004631186E+02  0.12513496605E+03 -0.15841927070E+03  0.21270882835E+03  0.00000000000E+00 0. -1.
</event>
<event>
 7    1  0.2688177E-009  0.1267049E+03  0.7561462E-02  0.1232429E+00
         -1   -1    0    0    0  501 -0.00000000000E+00  0.00000000000E+00  0.37150900959E+02  0.37150900959E+02  0.00000000000E+00 0.  1.
          1   -1    0    0  501    0  0.00000000000E+00 -0.00000000000E+00 -0.43879323137E+03  0.43879323137E+03  0.00000000000E+00 0. -1.
         25    2    1    2    0    0  0.15334281234E+02 -0.65117632497E+02 -0.19747738580E+03  0.24314376314E+03  0.12508447309E+03 0.  0.
          5    1    3    3  502    0  0.63803394282E+02 -0.67599779325E+02 -0.12548049737E+03  0.15621597520E+03  0.41800000000E+01 0. -1.
         -5    1    3    3    0  502 -0.48469113048E+02  0.24821468275E+01 -0.71996888425E+02  0.86927787936E+02  0.41800000000E+01 0. -1.
        -11    1    1    2    0    0  0.20376656762E+02  0.72391457084E+02 -0.13067943241E+03  0.15077415314E+03  0.00000000000E+00 0.  1.
         11    1    1    2    0    0 -0.35710937997E+02 -0.72738245863E+01 -0.73485512193E+02  0.82026216047E+02  0.00000000000E+00 0. -1.
</event>
<event>
 7    1  0.2688177E-009  0.2047554E+03  0.7561462E-02  0.1145788E+00
         -2   -1    0    0    0  501 -0.00000000000E+00  0.00000000000E+00  0.91991658172E+03  0.91991658172E+03  0.00000000000E+00 0.  1.
          2   -1    0    0  501    0  0.00000000000E+00 -0.00000000000E+00 -0.49344591516E+02  0.49344591516E+02  0.00000000000E+00 0. -1.
         25    2    1    2    0    0 -0.15456169844E+03 -0.95137065592E+02  0.39275367270E+03  0.45037229509E+03  0.12505749435E+03 0.  0.
          5    1    3    3  502    0 -0.16354862769E+03 -0.45745702631E+02  0.29568276054E+03  0.34100819669E+03  0.41800000000E+01 0. -1.
         -5    1    3    3    0  502  0.89869292453E+01 -0.49391362961E+02  0.97070912157E+02  0.10936409840E+03  0.41800000000E+01 0. -1.
        -11    1    1    2    0    0  0.54606223293E+02  0.52991280608E+01  0.66718187286E+02  0.86378451568E+02  0.00000000000E+00 0. -1.
         11    1    1    2    0    0  0.99955475147E+02  0.89837937531E+02  0.41110013022E+03  0.43251042658E+03  0.00000000000E+00 0.  1.
</event>
<event>
 6    1  0.2688177E-009  0.7385871E+02  0.7561462E-02  0.1347442E+00
         -1   -1    0    0    0  501 -0.00000000000E+00  0.00000000000E+00  0.66389627792E+02  0.66389627792E+02  0.00000000000E+00 0.  1.
          1   -1    0    0  501    0  0.00000000000E+00 -0.00000000000E+00 -0.23150893620E+03  0.23150893620E+03  0.00000000000E+00 0. -1.
          5    1    1    2  502    0 -0.12826212426E+02  0.17241315443E+02  0.13294452982E+02  0.25612293210E+02  0.41800000000E+01 0.  1.
         -5    1    1    2    0  502  0.35418106925E+02 -0.25235470613E+02 -0.17398055615E+03  0.17938221092E+03  0.41800000000E+01 0.  1.
        -11    1    1    2    0    0 -0.51958181014E+02  0.10902663980E+01  0.18335353130E+02  0.55109222726E+02  0.00000000000E+00 0.  1.
         11    1    1    2    0    0  0.29366286515E+02  0.69038887725E+01 -0.22768558364E+02  0.37794837132E+02  0.00000000000E+00 0. -1.
</event>
<event>
 7    1  0.2688177E-009  0.9887955E+02  0.7561462E-02  0.1282670E+00
         -1   -1    0    0    0  501 -0.00000000000E+00  0.00000000000E+00  0.42236724648E+02  0.42236724648E+02  0.00000000000E+00 0.  1.
          1   -1    0    0  501    0  0.00000000000E+00 -0.00000000000E+00 -0.29420787964E+03  0.29420787964E+03  0.00000000000E+00 0. -1.
         25    2    1    2    0    0 -0.37372402138E+01 -0.23616077802E+01 -0.18710691900E+03  0.22511388772E+03  0.12509084359E+03 0.  0.
          5    1    3    3  502    0  0.46554153648E+02 -0.39930160582E+02 -0.10503465997E+03  0.12170233828E+03  0.41800000000E+01 0.  1.
         -5    1    3    3    0  502 -0.50291393862E+02  0.37568552802E+02 -0.82072259031E+02  0.10341154945E+03  0.41800000000E+01 0.  1.
        -11    1    1    2    0    0 -0.30676457389E+02  0.18003183165E+02 -0.64349475410E+02  0.73525605251E+02  0.00000000000E+00 0. -1.
         11    1    1    2    0    0  0.34413697603E+02 -0.15641575385E+02 -0.51476057893E+00  0.37805111317E+02  0.00000000000E+00 0.  1.
</event>
<event>
 7    1  0.2688177E-009  0.7048201E+02  0.7561462E-02  0.1358462E+00
         -1   -1    0    0    0  501 -0.00000000000E+00  0.00000000000E+00  0.10721422362E+03  0.10721422362E+03  0.00000000000E+00 0.  1.
          1   -1    0    0  501    0  0.00000000000E+00 -0.00000000000E+00 -0.11956376741E+03  0.11956376741E+03  0.00000000000E+00 0. -1.
         25    2    1    2    0    0  0.49157068687E+00 -0.67569088136E+01 -0.43403416674E+02  0.13256943269E+03  0.12507957646E+03 0.  0.
          5    1    3    3  502    0 -0.42212991952E+02  0.18088344045E+02 -0.63996319602E+02  0.78880455136E+02  0.41800000000E+01 0.  1.
         -5    1    3    3    0  502  0.42704562639E+02 -0.24845252859E+02  0.20592902927E+02  0.53688977554E+02  0.41800000000E+01 0.  1.
        -11    1    1    2    0    0  0.13405718469E+02  0.21289323387E+02  0.56457841751E+02  0.61809679445E+02  0.00000000000E+00 0.  1.
         11    1    1    2    0    0 -0.13897289156E+02 -0.14532414573E+02 -0.25403968874E+02  0.32398878897E+02  0.00000000000E+00 0. -1.
</event>
<event>
 7    1  0.2688177E-009  0.1367057E+03  0.7561462E-02  0.1217832E+00
         -2   -1    0    0    0  501 -0.00000000000E+00  0.00000000000E+00  0.92142756349E+02  0.92142756349E+02  0.00000000000E+00 0. -1.
          2   -1    0    0  501    0  0.00000000000E+00 -0.00000000000E+00 -0.21999525531E+03  0.21999525531E+03  0.00000000000E+00 0.  1.
         25    2    1    2    0    0  0.75263256541E+02  0.42812027637E+02 -0.10276048910E+03  0.18358819097E+03  0.12508988069E+03 0.  0.
          5    1    3    3  502    0  0.25447527911E+02 -0.43938975403E+02 -0.45137203432E+02  0.68066509899E+02  0.41800000000E+01 0.  1.
         -5    1    3    3    0  502  0.49815728631E+02  0.86751003040E+02 -0.57623285664E+02  0.11552168107E+03  0.41800000000E+01 0.  1.
        -11    1    1    2    0    0  0.14120806938E+02  0.11094890223E+02 -0.15511476365E+02  0.23729721378E+02  0.00000000000E+00 0.  1.
         11    1    1    2    0    0 -0.89384063479E+02 -0.53906917860E+02 -0.95805335023E+01  0.10482009931E+03  0.00000000000E+00 0. -1.
</event>
<event>
 7    1  0.2688177E-009  0.9287803E+02  0.7561462E-02  0.1296028E+00
         -1   -1    0    0    0  501 -0.00000000000E+00  0.00000000000E+00  0.29037555874E+02  0.29037555874E+02  0.00000000000E+00 0. -1.
          1   -1    0    0  501    0  0.00000000000E+00 -0.00000000000E+00 -0.61061225748E+03  0.61061225748E+03  0.00000000000E+00 0.  1.
         25    2    1    2    0    0  0.62269277837E+02  0.43010404588E+02 -0.36347695169E+03  0.39177892016E+03  0.12509144657E+03 0.  0.
          5    1    3    3  502    0  0.24695547125E+02  0.48937948238E+01 -0.12030229211E+01  0.25548756129E+02  0.41800000000E+01 0.  1.
         -5    1    3    3    0  502  0.37573730712E+02  0.38116609764E+02 -0.36227392877E+03  0.36623016403E+03  0.41800000000E+01 0.  1.
        -11    1    1    2    0    0 -0.27202058976E+02 -0.61253097791E+02 -0.18344079368E+03  0.19530084174E+03  0.00000000000E+00 0.  1.
         11    1    1    2    0    0 -0.35067218862E+02  0.18242693203E+02 -0.34656956247E+02  0.52570051458E+02  0.00000000000E+00 0. -1.
</event>
<event>
 7    1  0.2688177E-009  0.7306417E+02  0.7561462E-02  0.1349973E+00
          1   -1    0    0  501    0  0.00000000000E+00  0.00000000000E+00  0.60073974707E+02  0.60073974707E+02  0.00000000000E+00 0. -1.
         -1   -1    0    0    0  501 -0.00000000000E+00 -0.00000000000E+00 -0.24612394282E+03  0.24612394282E+03  0.00000000000E+00 0.  1.
         25    2    1    2    0    0 -0.65510842490E+01  0.14021034534E+02 -0.17018854836E+03  0.21177713515E+03  0.12508359951E+03 0.  0.
          5    1    3    3  502    0  0.12730000128E+02  0.26597905776E+02  0.89650822081E+01  0.31102195966E+02  0.41800000000E+01 0. -1.
         -5    1    3    3    0  502 -0.19281084377E+02 -0.12576871242E+02 -0.17915363057E+03  0.18067493919E+03  0.41800000000E+01 0. -1.
        -11    1    1    2    0    0  0.44104639532E+02 -0.28709371390E+02 -0.11445626299E+02  0.53855822297E+02  0.00000000000E+00 0.  1.
         11    1    1    2    0    0 -0.37553555283E+02  0.14688336856E+02 -0.44157934513E+01  0.40564960074E+02  0.00000000000E+00 0. -1.
</event>
<event>
 7    1  0.2688177E-009  0.2106409E+03  0.7561462E-02  0.1141059E+00
          2   -1    0    0  501    0  0.00000000000E+00  0.00000000000E+00  0.86342723915E+02  0.86342723915E+02  0.00000000000E+00 0. -1.
         -2   -1    0    0    0  501 -0.00000000000E+00 -0.00000000000E+00 -0.61947357266E+03  0.61947357266E+03  0.00000000000E+00 0.  1.
         25    2    1    2    0    0  0.14704298678E+03 -0.11094919388E+03 -0.40776098231E+03  0.46459277290E+03  0.12508422103E+03 0.  0.
          5    1    3    3  502    0  0.63077795702E+02  0.20572366803E+02 -0.12776048690E+03  0.14402168239E+03  0.41800000000E+01 0. -1.
         -5    1    3    3    0  502  0.83965191083E+02 -0.13152156068E+03 -0.28000049542E+03  0.32057109051E+03  0.41800000000E+01 0. -1.
        -11    1    1    2    0    0 -0.51039427385E+02 -0.12330188247E+01 -0.62606044156E+02  0.80784034611E+02  0.00000000000E+00 0.  1.
         11    1    1    2    0    0 -0.96003559400E+02  0.11218221270E+03 -0.62763822275E+02  0.16043948906E+03  0.00000000000E+00 0. -1.
</event>
<event>
 7    1  0.2688177E-009  0.1015097E+03  0.7561462E-02  0.1277153E+00
          1   -1    0    0  501    0  0.00000000000E+00  0.00000000000E+00  0.58147583053E+03  0.58147583053E+03  0.00000000000E+00 0. -1.
         -1   -1    0    0    0  501 -0.00000000000E+00 -0.00000000000E+00 -0.34387642441E+02  0.34387642441E+02  0.00000000000E+00 0.  1.
         25    2    1    2    0    0  0.59960617165E+02  0.18922147215E+02  0.43719132747E+03  0.45906008046E+03  0.12508627978E+03 0.  0.
          5    1    3    3  502    0  0.77457888034E+02  0.52972189515E+02  0.23214456483E+03  0.25042833039E+03  0.41800000000E+01 0. -1.
         -5    1    3    3    0  502 -0.17497270870E+02 -0.34050042300E+02  0.20504676264E+03  0.20863175007E+03  0.41800000000E+01 0. -1.
        -11    1    1    2    0    0 -0.11850190912E+02  0.90636118656E+01 -0.14324785423E+02  0.20682735847E+02  0.00000000000E+00 0.  1.
         11    1    1    2    0    0 -0.48110426252E+02 -0.27985759081E+02  0.12422164605E+03  0.13612065667E+03  0.00000000000E+00 0. -1.
</event>
<event>
 7    1  0.2688177E-009  0.1446316E+03  0.7561462E-02  0.1207229E+00
         -2   -1    0    0    0  501 -0.00000000000E+00  0.00000000000E+00  0.37432441661E+02  0.37432441661E+02  0.00000000000E+00 0.  1.
          2   -1    0    0  501    0  0.00000000000E+00 -0.00000000000E+00 -0.70784459832E+03  0.70784459832E+03  0.00000000000E+00 0. -1.
         25    2    1    2    0    0  0.85998175147E+02  0.78453694035E+02 -0.43122470553E+03  0.46384648129E+03  0.12509253899E+03 0.  0.
          5    1    3    3  502    0 -0.69346428539E+01 -0.17154274677E+02 -0.88971230196E+01  0.20952078876E+02  0.41800000000E+01 0.  1.
         -5    1    3    3    0  502  0.92932818001E+02  0.95607968712E+02 -0.42232758251E+03  0.44289440242E+03  0.41800000000E+01 0.  1.
        -11    1    1    2    0    0 -0.45006259260E+02 -0.84229668235E+02 -0.10949019712E+03  0.14528696999E+03  0.00000000000E+00 0.  1.
         11    1    1    2    0    0 -0.40991915887E+02  0.57759741999E+01 -0.12969725401E+03  0.13614358869E+03  0.00000000000E+00 0. -1.
</event>
<event>
 7    1  0.2688177E-009  0.1192771E+03  0.7561462E-02  0.1244294E+00
         -1   -1    0    0    0  501 -0.00000000000E+00  0.00000000000E+00  0.77830250340E+01  0.77830250340E+01  0.00000000000E+00 0.  1.
          1   -1    0    0  501    0  0.00000000000E+00 -0.00000000000E+00 -0.32474218752E+04  0.32474218752E+04  0.00000000000E+00 0. -1.
         25    2    1    2    0    0  0.36681983757E+02 -0.82090428407E+02 -0.24630737682E+04  0.24678863898E+04  0.12508572794E+03 0.  0.
          5    1    3    3  502    0 -0.15705611025E+02 -0.33819212386E+02 -0.18919414956E+04  0.18923135312E+04  0.41800000000E+01 0.  1.
         -5    1    3    3    0  502  0.52387594782E+02 -0.48271216021E+02 -0.57113227258E+03  0.57557285860E+03  0.41800000000E+01 0.  1.
        -11    1    1    2    0    0  0.26512157714E+02  0.55733805977E+00 -0.15556281849E+03  0.15780683011E+03  0.00000000000E+00 0.  1.
         11    1    1    2    0    0 -0.63194141471E+02  0.81533090347E+02 -0.62100226348E+03  0.62951168026E+03  0.00000000000E+00 0. -1.
</event>
<event>
 7    1  0.2688177E-009  0.7793188E+02  0.7561462E-02  0.1335025E+00
          1   -1    0    0  501    0  0.00000000000E+00  0.00000000000E+00  0.15344670018E+04  0.15344670018E+04  0.00000000000E+00 0. -1.
         -1   -1    0    0    0  501 -0.00000000000E+00 -0.00000000000E+00 -0.10844766987E+02  0.10844766987E+02  0.00000000000E+00 0.  1.
         25    2    1    2    0    0 -0.31841690869E+02 -0.88829181235E+01  0.12095976498E+04  0.12164937681E+04  0.12505124488E+03 0.  0.
          5    1    3    3  502    0  0.12832433182E+02  0.11861632614E+02  0.10316835745E+04  0.10318400263E+04  0.41800000000E+01 0. -1.
         -5    1    3    3    0  502 -0.44674124052E+02 -0.20744550738E+02  0.17791407530E+03  0.18465374173E+03  0.41800000000E+01 0. -1.
        -11    1    1    2    0    0  0.43249855988E+02 -0.26881732839E+02  0.10802773846E+03  0.11942851368E+03  0.00000000000E+00 0.  1.
         11    1    1    2    0    0 -0.11408165118E+02  0.35764650962E+02  0.20599684657E+03  0.20938948705E+03  0.00000000000E+00 0. -1.
</event>
<event>
 7    1  0.2688177E-009  0.1757671E+03  0.7561462E-02  0.1171964E+00
         -2   -1    0    0    0  501 -0.00000000000E+00  0.00000000000E+00  0.53536673749E+03  0.53536673749E+03  0.00000000000E+00 0.  1.
          2   -1    0    0  501    0  0.00000000000E+00 -0.00000000000E+00 -0.10639211958E+03  0.10639211958E+03  0.00000000000E+00 0. -1.
         25    2    1    2    0    0 -0.68328631759E+02 -0.15790411938E+03  0.54305964148E+02  0.21954277755E+03  0.12508949035E+03 0.  0.
          5    1    3    3  502    0 -0.54548480393E+02 -0.14798057334E+03  0.88673636018E+02  0.18098141596E+03  0.41800000000E+01 0. -1.
         -5    1    3    3    0  502 -0.13780151365E+02 -0.99235460400E+01 -0.34367671870E+02  0.38561361587E+02  0.41800000000E+01 0. -1.
        -11    1    1    2    0    0  0.67566015341E+02  0.11510560590E+03  0.34558866538E+03  0.37046726249E+03  0.00000000000E+00 0.  1.
         11    1    1    2    0    0  0.76261641713E+00  0.42798513482E+02  0.29079988373E+02  0.51748817028E+02  0.00000000000E+00 0. -1.
</event>
<event>
 7    1  0.2688177E-009  0.7485388E+02  0.7561462E-02  0.1344324E+00
          4   -1    0    0  501    0  0.00000000000E+00  0.00000000000E+00  0.30629362500E+03  0.30629362500E+03  0.00000000000E+00 0. -1.
         -4   -1    0    0    0  501 -0.00000000000E+00 -0.00000000000E+00 -0.41773831008E+02  0.41773831008E+02  0.00000000000E+00 0.  1.
         25    2    1    2    0    0 -0.25628628701E+02  0.26321868731E+02  0.13869419471E+03  0.19035040283E+03  0.12509008286E+03 0.  0.
          5    1    3    3  502    0  0.17780099795E+02  0.21370444506E+02 -0.14048475144E+02  0.31427056830E+02  0.41800000000E+01 0.  1.
         -5    1    3    3    0  502 -0.43408728496E+02  0.49514242252E+01  0.15274266985E+03  0.15892334600E+03  0.41800000000E+01 0.  1.
        -11    1    1    2    0    0 -0.19554838736E+02  0.78333692449E+01  0.15257395792E+01  0.21120636188E+02  0.00000000000E+00 0.  1.
         11    1    1    2    0    0  0.45183467437E+02 -0.34155237976E+02  0.12429985970E+03  0.13659641698E+03  0.00000000000E+00 0. -1.
</event>
<event>
 7    1  0.2688177E-009  0.1298368E+03  0.7561462E-02  0.1227698E+00
         -2   -1    0    0    0  501 -0.00000000000E+00  0.00000000000E+00  0.42762850147E+03  0.42762850147E+03  0.00000000000E+00 0.  1.
          2   -1    0    0  501    0  0.00000000000E+00 -0.00000000000E+00 -0.48773287587E+02  0.48773287587E+02  0.00000000000E+00 0. -1.
         25    2    1    2    0    0  0.48699431656E+02 -0.46675308113E+02  0.29682338594E+03  0.32909303196E+03  0.12509149535E+03 0.  0.
          5    1    3    3  502    0  0.39539042702E+02 -0.89299114121E+02  0.21817856304E+03  0.23907535518E+03  0.41800000000E+01 0.  1.
         -5    1    3    3    0  502  0.91603889541E+01  0.42623806008E+02  0.78644822896E+02  0.90017676779E+02  0.41800000000E+01 0.  1.
        -11    1    1    2    0    0  0.26496432993E+02 -0.48960439134E+01  0.36564186455E+02  0.45419950886E+02  0.00000000000E+00 0.  1.
         11    1    1    2    0    0 -0.75195864649E+02  0.51571352027E+02  0.45467641491E+02  0.10188880622E+03  0.00000000000E+00 0. -1.
</event>
<event>
 7    1  0.2688177E-009  0.1127553E+03  0.7561462E-02  0.1255551E+00
         -1   -1    0    0    0  501 -0.00000000000E+00  0.00000000000E+00  0.21773406491E+03  0.21773406491E+03  0.00000000000E+00 0.  1.
          1   -1    0    0  501    0  0.00000000000E+00 -0.00000000000E+00 -0.82610145676E+02  0.82610145676E+02  0.00000000000E+00 0. -1.
         25    2    1    2    0    0 -0.42402316815E+02  0.60258981684E+02  0.44974598680E+02  0.15198273495E+03  0.12508771263E+03 0.  0.
          5    1    3    3  502    0 -0.61776395945E+02  0.14376029042E+02 -0.23011347602E+02  0.67601685078E+02  0.41800000000E+01 0.  1.
         -5    1    3    3    0  502  0.19374079130E+02  0.45882952642E+02  0.67985946281E+02  0.84381049869E+02  0.41800000000E+01 0.  1.
        -11    1    1    2    0    0  0.42205196263E+02  0.86279688709E+01  0.58245962297E+02  0.72445238369E+02  0.00000000000E+00 0.  1.
         11    1    1    2    0    0  0.19712055157E+00 -0.68886950555E+02  0.31903358259E+02  0.75916237271E+02  0.00000000000E+00 0. -1.
</event>
<event>
 7    1  0.2688177E-009  0.2080520E+03  0.7561462E-02  0.1143118E+00
         -2   -1    0    0    0  501 -0.00000000000E+00  0.00000000000E+00  0.24334063852E+03  0.24334063852E+03  0.00000000000E+00 0.  1.
          2   -1    0    0  501    0  0.00000000000E+00 -0.00000000000E+00 -0.37418537363E+03  0.37418537363E+03  0.00000000000E+00 0. -1.
         25    2    1    2    0    0 -0.16094419689E+03 -0.10399649387E+03 -0.27735295209E+03  0.35956493838E+03  0.12507589548E+03 0.  0.
          5    1    3    3  502    0  0.10856676877E+02  0.11557168182E+02 -0.44639577881E+01  0.16995143081E+02  0.41800000000E+01 0.  1.
         -5    1    3    3    0  502 -0.17180087377E+03 -0.11555366205E+03 -0.27288899430E+03  0.34256979530E+03  0.41800000000E+01 0.  1.
        -11    1    1    2    0    0  0.12266606231E+03  0.68938691540E+02  0.15033624414E+03  0.20591379831E+03  0.00000000000E+00 0.  1.
         11    1    1    2    0    0  0.38278134586E+02  0.35057802331E+02 -0.38280271614E+01  0.52047275468E+02  0.00000000000E+00 0. -1.
</event>
<event>
 7    1  0.2688177E-009  0.1201491E+03  0.7561462E-02  0.1242851E+00
          2   -1    0    0  501    0  0.00000000000E+00  0.00000000000E+00  0.51211941849E+03  0.51211941849E+03  0.00000000000E+00 0. -1.
         -2   -1    0    0    0  501 -0.00000000000E+00 -0.00000000000E+00 -0.40834997438E+02  0.40834997438E+02  0.00000000000E+00 0.  1.
         25    2    1    2    0    0 -0.69079504076E+02  0.20735775067E+02  0.13730240741E+03  0.19925260831E+03  0.12509076938E+03 0.  0.
          5    1    3    3  502    0  0.27908269338E+02  0.22188355273E+02  0.67030478163E+01  0.36518459129E+02  0.41800000000E+01 0.  1.
         -5    1    3    3    0  502 -0.96987773414E+02 -0.14525802062E+01  0.13059935960E+03  0.16273414918E+03  0.41800000000E+01 0.  1.
        -11    1    1    2    0    0  0.70619550208E+02  0.14457817480E+02  0.28084479957E+03  0.28994818641E+03  0.00000000000E+00 0. -1.
         11    1    1    2    0    0 -0.15400461323E+01 -0.35193592547E+02  0.53137214071E+02  0.63753621212E+02  0.00000000000E+00 0.  1.
</event>
<event>
 7    1  0.2688177E-009  0.9520055E+02  0.7561462E-02  0.1290725E+00
         -1   -1    0    0    0  501 -0.00000000000E+00  0.00000000000E+00  0.17843414470E+03  0.17843414470E+03  0.00000000000E+00 0.  1.
          1   -1    0    0  501    0  0.00000000000E+00 -0.00000000000E+00 -0.15284137258E+03  0.15284137258E+03  0.00000000000E+00 0. -1.
         25    2    1    2    0    0 -0.24278659184E+02  0.72063140235E+02 -0.83746952486E+02  0.16865199992E+03  0.12508955013E+03 0.  0.
          5    1    3    3  502    0  0.16213573307E+02  0.43483673381E+02  0.22197499514E+02  0.51613091312E+02  0.41800000000E+01 0. -1.
         -5    1    3    3    0  502 -0.40492232492E+02  0.28579466854E+02 -0.10594445200E+03  0.11703890860E+03  0.41800000000E+01 0. -1.
        -11    1    1    2    0    0  0.36275076022E+02 -0.21646425611E+02  0.69162305446E+00  0.42248399077E+02  0.00000000000E+00 0. -1.
         11    1    1    2    0    0 -0.11996416838E+02 -0.50416714624E+02  0.10864810156E+03  0.12037511829E+03  0.00000000000E+00 0.  1.
</event>
<event>
 7    1  0.2688177E-009  0.1245472E+03  0.7561462E-02  0.1235779E+00
          1   -1    0    0  501    0  0.00000000000E+00  0.00000000000E+00  0.96231916477E+03  0.96231916477E+03  0.00000000000E+00 0. -1.
         -1   -1    0    0    0  501 -0.00000000000E+00 -0.00000000000E+00 -0.19499353732E+02  0.19499353732E+02  0.00000000000E+00 0.  1.
         25    2    1    2    0    0 -0.52082159971E+02  0.64800768341E+02  0.42841268248E+03  0.45398820585E+03  0.12512463218E+03 0.  0.
          5    1    3    3  502    0 -0.67437237020E+02  0.21846835351E+01  0.32573256601E+03  0.33267360992E+03  0.41800000000E+01 0.  1.
         -5    1    3    3    0  502  0.15355077050E+02  0.62616084806E+02  0.10268011647E+03  0.12131459593E+03  0.41800000000E+01 0.  1.
        -11    1    1    2    0    0  0.74646046054E+02 -0.51591477307E+02  0.36216499129E+03  0.37335933581E+03  0.00000000000E+00 0.  1.
         11    1    1    2    0    0 -0.22563886083E+02 -0.13209291035E+02  0.15224213728E+03  0.15447097685E+03  0.00000000000E+00 0. -1.
</event>
<event>
 7    1  0.2688177E-009  0.9806808E+02  0.7561462E-02  0.1284412E+00
          2   -1    0    0  501    0  0.00000000000E+00  0.00000000000E+00  0.22541091456E+02  0.22541091456E+02  0.00000000000E+00 0. -1.
         -2   -1    0    0    0  501 -0.00000000000E+00 -0.00000000000E+00 -0.53787326741E+03  0.53787326741E+03  0.00000000000E+00 0.  1.
         25    2    1    2    0    0  0.22737376142E+01  0.12776379653E+01 -0.25138747721E+03  0.28080021736E+03  0.12508515551E+03 0.  0.
          5    1    3    3  502    0 -0.49591293219E+02  0.13560415901E+02 -0.20036311395E+03  0.20689618430E+03  0.41800000000E+01 0.  1.
         -5    1    3    3    0  502  0.51865030833E+02 -0.12282777936E+02 -0.51024363252E+02  0.73904033059E+02  0.41800000000E+01 0.  1.
        -11    1    1    2    0    0  0.58963561026E+01  0.44348879673E+02 -0.10724871708E+03  0.11620618512E+03  0.00000000000E+00 0. -1.
         11    1    1    2    0    0 -0.81700937168E+01 -0.45626517638E+02 -0.15669598166E+03  0.16340795639E+03  0.00000000000E+00 0.  1.
</event>
<event>
 7    1  0.2688177E-009  0.9279701E+02  0.7561462E-02  0.1296216E+00
          2   -1    0    0  501    0  0.00000000000E+00  0.00000000000E+00  0.69441879199E+02  0.69441879199E+02  0.00000000000E+00 0.  1.
         -2   -1    0    0    0  501 -0.00000000000E+00 -0.00000000000E+00 -0.25128242526E+03  0.25128242526E+03  0.00000000000E+00 0. -1.
         25    2    1    2    0    0  0.62255181613E+02  0.18183096010E+02 -0.14529088301E+03  0.20239629631E+03  0.12509391455E+03 0.  0.
          5    1    3    3  502    0  0.39796033857E+01  0.15407352806E+02 -0.14291282704E+03  0.14385677702E+03  0.41800000000E+01 0. -1.
         -5    1    3    3    0  502  0.58275578228E+02  0.27757432042E+01 -0.23780559665E+01  0.58539519286E+02  0.41800000000E+01 0. -1.
        -11    1    1    2    0    0 -0.84411905866E+02 -0.43381628748E+01 -0.36832273830E+02  0.92199815101E+02  0.00000000000E+00 0. -1.
         11    1    1    2    0    0  0.22156724253E+02 -0.13844933135E+02  0.28261077400E+00  0.26128193049E+02  0.00000000000E+00 0.  1.
</event>
<event>
 7    1  0.2688177E-009  0.1877593E+03  0.7561462E-02  0.1160498E+00
          2   -1    0    0  501    0  0.00000000000E+00  0.00000000000E+00  0.25397777734E+03  0.25397777734E+03  0.00000000000E+00 0. -1.
         -2   -1    0    0    0  501 -0.00000000000E+00 -0.00000000000E+00 -0.20945318656E+03  0.20945318656E+03  0.00000000000E+00 0.  1.
         25    2    1    2    0    0  0.78989559104E+01  0.15806029600E+03  0.15015155554E+03  0.25147277800E+03  0.12509043834E+03 0.  0.
          5    1    3    3  502    0 -0.57265244943E+02  0.77835247839E+02  0.56981086028E+02  0.11225841015E+03  0.41800000000E+01 0. -1.
         -5    1    3    3    0  502  0.65164200853E+02  0.80225048165E+02  0.93170469514E+02  0.13921436785E+03  0.41800000000E+01 0. -1.
        -11    1    1    2    0    0 -0.41778944950E+02 -0.79729542617E+02 -0.22414659973E+02  0.92761507043E+02  0.00000000000E+00 0.  1.
         11    1    1    2    0    0  0.33879989040E+02 -0.78330753387E+02 -0.83212304786E+02  0.11919667886E+03  0.00000000000E+00 0. -1.
</event>
<event>
 7    1  0.2688177E-009  0.8911031E+02  0.7561462E-02  0.1305021E+00
         -3   -1    0    0    0  501 -0.00000000000E+00  0.00000000000E+00  0.26370016707E+03  0.26370016707E+03  0.00000000000E+00 0. -1.
          3   -1    0    0  501    0  0.00000000000E+00 -0.00000000000E+00 -0.66347516257E+02  0.66347516257E+02  0.00000000000E+00 0.  1.
         25    2    1    2    0    0 -0.28182087133E+02 -0.57152990563E+02  0.58656595392E+02  0.15215702208E+03  0.12510183379E+03 0.  0.
          5    1    3    3  502    0 -0.23253259939E+02 -0.72349952960E+02 -0.14225157493E+02  0.77427755338E+02  0.41800000000E+01 0.  1.
         -5    1    3    3    0  502 -0.49288271939E+01  0.15196962396E+02  0.72881752885E+02  0.74729266737E+02  0.41800000000E+01 0.  1.
        -11    1    1    2    0    0  0.14815734222E+02 -0.95111101792E+01 -0.55199708374E+01  0.18450942399E+02  0.00000000000E+00 0.  1.
         11    1    1    2    0    0  0.13366352912E+02  0.66664100743E+02  0.14421602626E+03  0.15943971885E+03  0.00000000000E+00 0. -1.
</event>
<event>
 7    1  0.2688177E-009  0.1315488E+03  0.7561462E-02  0.1225176E+00
          4   -1    0    0  501    0  0.00000000000E+00  0.00000000000E+00  0.46432366642E+03  0.46432366642E+03  0.00000000000E+00 0. -1.
         -4   -1    0    0    0  501 -0.00000000000E+00 -0.00000000000E+00 -0.74435638573E+02  0.74435638573E+02  0.00000000000E+00 0.  1.
         25    2    1    2    0    0 -0.82927452196E+02  0.61864584849E+02  0.36414782578E+03  0.39868457000E+03  0.12506621506E+03 0.  0.
          5    1    3    3  502    0 -0.10306187645E+03  0.76587398266E+02  0.24242819898E+03  0.27436523835E+03  0.41800000000E+01 0.  1.
         -5    1    3    3    0  502  0.20134424254E+02 -0.14722813417E+02  0.12171962680E+03  0.12431933165E+03  0.41800000000E+01 0.  1.
        -11    1    1    2    0    0  0.67923537676E+02 -0.30277944528E+02  0.56584746418E+02  0.93446211387E+02  0.00000000000E+00 0. -1.
         11    1    1    2    0    0  0.15003914519E+02 -0.31586640321E+02 -0.30844544351E+02  0.46628523608E+02  0.00000000000E+00 0.  1.
</event>
<event>
 7    1  0.2688177E-009  0.1853827E+03  0.7561462E-02  0.1162693E+00
          1   -1    0    0  501    0  0.00000000000E+00  0.00000000000E+00  0.20840195090E+03  0.20840195090E+03  0.00000000000E+00 0. -1.
         -1   -1    0    0    0  501 -0.00000000000E+00 -0.00000000000E+00 -0.23394716731E+03  0.23394716731E+03  0.00000000000E+00 0.  1.
         25    2    1    2    0    0 -0.12048366897E+03 -0.10323978280E+03  0.94990587338E+02  0.22326089654E+03  0.12508976378E+03 0.  0.
          5    1    3    3  502    0 -0.81797783961E+02  0.11402080991E+01  0.72986171314E+02  0.10971158161E+03  0.41800000000E+01 0. -1.
         -5    1    3    3    0  502 -0.38685885009E+02 -0.10437999090E+03  0.22004416024E+02  0.11354931494E+03  0.41800000000E+01 0. -1.
        -11    1    1    2    0    0  0.12242841875E+03  0.63961328286E+02 -0.69413980846E+02  0.15459000605E+03  0.00000000000E+00 0. -1.
         11    1    1    2    0    0 -0.19447497825E+01  0.39278454510E+02 -0.51121822898E+02  0.64498215610E+02  0.00000000000E+00 0.  1.
</event>
<event>
 7    1  0.2688177E-009  0.1856212E+03  0.7561462E-02  0.1162471E+00
         -2   -1    0    0    0  501 -0.00000000000E+00  0.00000000000E+00  0.88151775037E+02  0.88151775037E+02  0.00000000000E+00 0.  1.
          2   -1    0    0  501    0  0.00000000000E+00 -0.00000000000E+00 -0.42635822306E+03  0.42635822306E+03  0.00000000000E+00 0. -1.
         25    2    1    2    0    0 -0.13543733870E+03 -0.83715822737E+02 -0.17293932814E+03  0.26628350153E+03  0.12508908936E+03 0.  0.
          5    1    3    3  502    0 -0.31952224198E+02 -0.78003499461E+02 -0.29783512089E+02  0.89498718157E+02  0.41800000000E+01 0.  1.
         -5    1    3    3    0  502 -0.10348511450E+03 -0.57123232762E+01 -0.14315581606E+03  0.17678478337E+03  0.41800000000E+01 0.  1.
        -11    1    1    2    0    0  0.11896066017E+03  0.24244223072E+02 -0.12657998931E+03  0.17539074865E+03  0.00000000000E+00 0. -1.
         11    1    1    2    0    0  0.16476678532E+02  0.59471599666E+02 -0.38687130570E+02  0.72835747913E+02  0.00000000000E+00 0.  1.
</event>
<event>
 7    1  0.2688177E-009  0.1368163E+03  0.7561462E-02  0.1217678E+00
         -2   -1    0    0    0  501 -0.00000000000E+00  0.00000000000E+00  0.11608905668E+03  0.11608905668E+03  0.00000000000E+00 0.  1.
          2   -1    0    0  501    0  0.00000000000E+00 -0.00000000000E+00 -0.26295383323E+03  0.26295383323E+03  0.00000000000E+00 0. -1.
         25    2    1    2    0    0  0.11128060993E+03  0.55430909462E+02 -0.13006279036E+02  0.17684144456E+03  0.12509106022E+03 0.  0.
          5    1    3    3  502    0  0.39849437535E+02  0.21418049092E+02 -0.67010331481E+02  0.80960283003E+02  0.41800000000E+01 0.  1.
         -5    1    3    3    0  502  0.71431172399E+02  0.34012860370E+02  0.54004052444E+02  0.95881161556E+02  0.41800000000E+01 0.  1.
        -11    1    1    2    0    0  0.94127437791E+01 -0.21702535548E+02 -0.36561940869E+02  0.43547391596E+02  0.00000000000E+00 0. -1.
         11    1    1    2    0    0 -0.12069335371E+03 -0.33728373914E+02 -0.97296556651E+02  0.15865405376E+03  0.00000000000E+00 0.  1.
</event>
<event>
 7    1  0.2688177E-009  0.1398551E+03  0.7561462E-02  0.1213524E+00
          1   -1    0    0  501    0  0.00000000000E+00  0.00000000000E+00  0.25586598522E+03  0.25586598522E+03  0.00000000000E+00 0. -1.
         -1   -1    0    0    0  501 -0.00000000000E+00 -0.00000000000E+00 -0.10067494516E+03  0.10067494516E+03  0.00000000000E+00 0.  1.
         25    2    1    2    0    0  0.10051452387E+03  0.37927833614E+02  0.32258303570E+02  0.16802917900E+03  0.12510602213E+03 0.  0.
          5    1    3    3  502    0  0.26278673200E+02  0.61089536335E+02  0.55541400132E+02  0.86745718300E+02  0.41800000000E+01 0.  1.
         -5    1    3    3    0  502  0.74235850666E+02 -0.23161702721E+02 -0.23283096562E+02  0.81283460695E+02  0.41800000000E+01 0.  1.
        -11    1    1    2    0    0 -0.54993936133E+00  0.19770803103E+02 -0.14728247569E+00  0.19778998477E+02  0.00000000000E+00 0.  1.
         11    1    1    2    0    0 -0.99964584505E+02 -0.57698636717E+02  0.12308001896E+03  0.16873275290E+03  0.00000000000E+00 0. -1.
</event>
<event>
 7    1  0.2688177E-009  0.8347592E+02  0.7561462E-02  0.1319467E+00
         -1   -1    0    0    0  501 -0.00000000000E+00  0.00000000000E+00  0.39017927592E+02  0.39017927592E+02  0.00000000000E+00 0.  1.
          1   -1    0    0  501    0  0.00000000000E+00 -0.00000000000E+00 -0.36808425567E+03  0.36808425567E+03  0.00000000000E+00 0. -1.
         25    2    1    2    0    0 -0.40961771821E+02  0.42064616336E+02 -0.17688945989E+03  0.22446862778E+03  0.12509590377E+03 0.  0.
          5    1    3    3  502    0  0.12035019858E+01  0.37664941077E+02  0.44657031805E+01  0.38177363820E+02  0.41800000000E+01 0.  1.
         -5    1    3    3    0  502 -0.42165273807E+02  0.43996752597E+01 -0.18135516307E+03  0.18629126396E+03  0.41800000000E+01 0.  1.
        -11    1    1    2    0    0  0.20967810421E+02  0.15124458044E+02 -0.93556713295E+01  0.27494124663E+02  0.00000000000E+00 0.  1.
         11    1    1    2    0    0  0.19993961400E+02 -0.57189074380E+02 -0.14282119686E+03  0.15513943082E+03  0.00000000000E+00 0. -1.
</event>
<event>
 7    1  0.2688177E-009  0.1162275E+03  0.7561462E-02  0.1249453E+00
          1   -1    0    0  501    0  0.00000000000E+00  0.00000000000E+00  0.10881651004E+04  0.10881651004E+04  0.00000000000E+00 0. -1.
         -1   -1    0    0    0  501 -0.00000000000E+00 -0.00000000000E+00 -0.15012780978E+02  0.15012780978E+02  0.00000000000E+00 0.  1.
         25    2    1    2    0    0 -0.82218727559E+01 -0.27246919262E+01  0.75114507260E+03  0.76153904063E+03  0.12509103554E+03 0.  0.
          5    1    3    3  502    0 -0.38737571480E+02  0.50488016430E+02  0.39993584211E+03  0.40498862880E+03  0.41800000000E+01 0.  1.
         -5    1    3    3    0  502  0.30515698724E+02 -0.53212708356E+02  0.35120923049E+03  0.35655041183E+03  0.41800000000E+01 0.  1.
        -11    1    1    2    0    0 -0.16786770583E+02  0.50530051299E+02  0.10139384412E+03  0.11452420432E+03  0.00000000000E+00 0. -1.
         11    1    1    2    0    0  0.25008643339E+02 -0.47805359373E+02  0.22061340275E+03  0.22711463647E+03  0.00000000000E+00 0.  1.
</event>
<event>
 7    1  0.2688177E-009  0.1219911E+03  0.7561462E-02  0.1239848E+00
         -2   -1    0    0    0  501 -0.00000000000E+00  0.00000000000E+00  0.36584800680E+02  0.36584800680E+02  0.00000000000E+00 0.  1.
          2   -1    0    0  501    0  0.00000000000E+00 -0.00000000000E+00 -0.46675773797E+03  0.46675773797E+03  0.00000000000E+00 0. -1.
         25    2    1    2    0    0  0.18793548113E+02  0.66969113432E+02 -0.22440830170E+03  0.26616788630E+03  0.12509275846E+03 0.  0.
          5    1    3    3  502    0 -0.15142348548E+02 -0.31010665244E+02 -0.30539570074E+02  0.46271911769E+02  0.41800000000E+01 0. -1.
         -5    1    3    3    0  502  0.33935896662E+02  0.97979778676E+02 -0.19386873163E+03  0.21989597453E+03  0.41800000000E+01 0. -1.
        -11    1    1    2    0    0  0.30799787643E+02 -0.34089197801E+02 -0.14509946248E+03  0.15219906155E+03  0.00000000000E+00 0.  1.
         11    1    1    2    0    0 -0.49593335756E+02 -0.32879915631E+02 -0.60665173113E+02  0.84975590802E+02  0.00000000000E+00 0. -1.
</event>
<event>
 7    1  0.2688177E-009  0.1988262E+03  0.7561462E-02  0.1150733E+00
          2   -1    0    0  501    0  0.00000000000E+00  0.00000000000E+00  0.27937603268E+04  0.27937603268E+04  0.00000000000E+00 0. -1.
         -2   -1    0    0    0  501 -0.00000000000E+00 -0.00000000000E+00 -0.19651460454E+02  0.19651460454E+02  0.00000000000E+00 0.  1.
         25    2    1    2    0    0  0.93460110330E+02  0.13658102356E+03  0.21707185647E+04  0.21806093639E+04  0.12509573397E+03 0.  0.
          5    1    3    3  502    0 -0.28216617474E+02  0.67625920846E+01  0.33853334639E+03  0.33980024892E+03  0.41800000000E+01 0.  1.
         -5    1    3    3    0  502  0.12167672780E+03  0.12981843147E+03  0.18321852183E+04  0.18408091150E+04  0.41800000000E+01 0.  1.
        -11    1    1    2    0    0 -0.99410492051E+02 -0.65539985558E+02  0.39489407929E+03  0.41245517271E+03  0.00000000000E+00 0. -1.
         11    1    1    2    0    0  0.59503817210E+01 -0.71041037998E+02  0.20849622239E+03  0.22034725066E+03  0.00000000000E+00 0.  1.
</event>
<event>
 7    1  0.2688177E-009  0.1113131E+03  0.7561462E-02  0.1258157E+00
          2   -1    0    0  501    0  0.00000000000E+00  0.00000000000E+00  0.16186444476E+03  0.16186444476E+03  0.00000000000E+00 0. -1.
         -2   -1    0    0    0  501 -0.00000000000E+00 -0.00000000000E+00 -0.87603637003E+02  0.87603637003E+02  0.00000000000E+00 0.  1.
         25    2    1    2    0    0 -0.36984076201E+01 -0.49913688259E+02  0.49941269890E+02  0.14368606634E+03  0.12508597334E+03 0.  0.
          5    1    3    3  502    0 -0.46709920787E+02  0.94025366459E+01 -0.10077898247E+02  0.48880065757E+02  0.41800000000E+01 0.  1.
         -5    1    3    3    0  502  0.43011513167E+02 -0.59316224905E+02  0.60019168137E+02  0.94806000579E+02  0.41800000000E+01 0.  1.
        -11    1    1    2    0    0  0.43888594435E+02  0.41383260650E+02  0.54423592082E+01  0.60567336554E+02  0.00000000000E+00 0.  1.
         11    1    1    2    0    0 -0.40190186815E+02  0.85304276089E+01  0.18877178658E+02  0.45214678872E+02  0.00000000000E+00 0. -1.
</event>
<event>
 7    1  0.2688177E-009  0.1172663E+03  0.7561462E-02  0.1247676E+00
          1   -1    0    0  501    0  0.00000000000E+00  0.00000000000E+00  0.22226937578E+03  0.22226937578E+03  0.00000000000E+00 0. -1.
         -1   -1    0    0    0  501 -0.00000000000E+00 -0.00000000000E+00 -0.11244304310E+03  0.11244304310E+03  0.00000000000E+00 0.  1.
         25    2    1    2    0    0 -0.53357359192E+02  0.64479951562E+02  0.14247497912E+03  0.20724705075E+03  0.12509016123E+03 0.  0.
          5    1    3    3  502    0 -0.80617533371E+02  0.65909734629E+02  0.14603013939E+03  0.17940332721E+03  0.41800000000E+01 0. -1.
         -5    1    3    3    0  502  0.27260174179E+02 -0.14297830674E+01 -0.35551602653E+01  0.27843723537E+02  0.41800000000E+01 0. -1.
        -11    1    1    2    0    0  0.76417203745E+01 -0.55611285114E+02 -0.52485159574E+02  0.76848571215E+02  0.00000000000E+00 0.  1.
         11    1    1    2    0    0  0.45715638818E+02 -0.88686664478E+01  0.19836513126E+02  0.50616796916E+02  0.00000000000E+00 0. -1.
</event>
<event>
 7    1  0.2688177E-009  0.1577638E+03  0.7561462E-02  0.1191245E+00
         -1   -1    0    0    0  501 -0.00000000000E+00  0.00000000000E+00  0.66574369873E+03  0.66574369873E+03  0.00000000000E+00 0.  1.
          1   -1    0    0  501    0  0.00000000000E+00 -0.00000000000E+00 -0.46350960459E+02  0.46350960459E+02  0.00000000000E+00 0. -1.
         25    2    1    2    0    0 -0.82962876925E+02  0.11029928858E+03  0.35762699873E+03  0.40322802944E+03  0.12508797503E+03 0.  0.
          5    1    3    3  502    0  0.22350942388E+02  0.51693145071E+02  0.61544129685E+02  0.83527828726E+02  0.41800000000E+01 0.  1.
         -5    1    3    3    0  502 -0.10531381931E+03  0.58606143512E+02  0.29608286905E+03  0.31970020072E+03  0.41800000000E+01 0.  1.
        -11    1    1    2    0    0  0.21679123624E+02 -0.37338559550E+02  0.17344095074E+02  0.46529238811E+02  0.00000000000E+00 0. -1.
         11    1    1    2    0    0  0.61283753301E+02 -0.72960729033E+02  0.24442164446E+03  0.26233739093E+03  0.00000000000E+00 0.  1.
</event>
<event>
 7    1  0.2688177E-009  0.7642726E+02  0.7561462E-02  0.1339507E+00
          2   -1    0    0  501    0  0.00000000000E+00  0.00000000000E+00  0.49168515466E+03  0.49168515466E+03  0.00000000000E+00 0. -1.
         -2   -1    0    0    0  501 -0.00000000000E+00 -0.00000000000E+00 -0.31277986103E+02  0.31277986103E+02  0.00000000000E+00 0.  1.
         25    2    1    2    0    0 -0.48645014252E+02 -0.29527352507E+02  0.21426879814E+03  0.25455446871E+03  0.12509459512E+03 0.  0.
          5    1    3    3  502    0 -0.30454878709E+02 -0.71544540802E+01  0.22214247649E+03  0.22437343450E+03  0.41800000000E+01 0. -1.
         -5    1    3    3    0  502 -0.18190135543E+02 -0.22372898426E+02 -0.78736783507E+01  0.30181034207E+02  0.41800000000E+01 0. -1.
        -11    1    1    2    0    0 -0.10147547714E+02  0.31739804348E+02  0.31506025776E+02  0.45858669462E+02  0.00000000000E+00 0.  1.
         11    1    1    2    0    0  0.58792561966E+02 -0.22124518413E+01  0.21463234465E+03  0.22255000259E+03  0.00000000000E+00 0. -1.
</event>
<event>
 7    1  0.2688177E-009  0.1085525E+03  0.7561462E-02  0.1263274E+00
          1   -1    0    0  501    0  0.00000000000E+00  0.00000000000E+00  0.53557467323E+03  0.53557467323E+03  0.00000000000E+00 0. -1.
         -1   -1    0    0    0  501 -0.00000000000E+00 -0.00000000000E+00 -0.38208912851E+02  0.38208912851E+02  0.00000000000E+00 0.  1.
         25    2    1    2    0    0  0.82030784897E+02  0.38490864789E+02  0.22506243888E+03  0.27296846777E+03  0.12509231256E+03 0.  0.
          5    1    3    3  502    0  0.14987680660E+02  0.41453226237E+01  0.18840128450E+03  0.18908815583E+03  0.41800000000E+01 0.  1.
         -5    1    3    3    0  502  0.67043104236E+02  0.34345542165E+02  0.36661154374E+02  0.83880311947E+02  0.41800000000E+01 0.  1.
        -11    1    1    2    0    0 -0.26348466992E+02  0.28256006260E+02  0.11177608832E+03  0.11826469263E+03  0.00000000000E+00 0.  1.
         11    1    1    2    0    0 -0.55682317905E+02 -0.66746871049E+02  0.16052723318E+03  0.18255042567E+03  0.00000000000E+00 0. -1.
</event>
<event>
 7    1  0.2688177E-009  0.1124827E+03  0.7561462E-02  0.1256040E+00
          1   -1    0    0  501    0  0.00000000000E+00  0.00000000000E+00  0.54130161665E+03  0.54130161665E+03  0.00000000000E+00 0. -1.
         -1   -1    0    0    0  501 -0.00000000000E+00 -0.00000000000E+00 -0.31223637650E+02  0.31223637650E+02  0.00000000000E+00 0.  1.
         25    2    1    2    0    0 -0.56177847682E+02 -0.43217253927E+02  0.30033040070E+03  0.33296867405E+03  0.12508439833E+03 0.  0.
          5    1    3    3  502    0 -0.74798031825E+02 -0.75396625144E+02  0.22664952601E+03  0.25033353089E+03  0.41800000000E+01 0. -1.
         -5    1    3    3    0  502  0.18620184143E+02  0.32179371217E+02  0.73680874694E+02  0.82635143160E+02  0.41800000000E+01 0. -1.
        -11    1    1    2    0    0  0.23830258107E+02 -0.38659609488E+01  0.21435851543E+01  0.24236786355E+02  0.00000000000E+00 0.  1.
         11    1    1    2    0    0  0.32347589575E+02  0.47083214876E+02  0.20760399315E+03  0.21531979390E+03  0.00000000000E+00 0. -1.
</event>
<event>
 7    1  0.2688177E-009  0.1214709E+03  0.7561462E-02  0.1240690E+00
          1   -1    0    0  501    0  0.00000000000E+00  0.00000000000E+00  0.12749427639E+04  0.12749427639E+04  0.00000000000E+00 0.  1.
         -1   -1    0    0    0  501 -0.00000000000E+00 -0.00000000000E+00 -0.15623079814E+02  0.15623079814E+02  0.00000000000E+00 0. -1.
         25    2    1    2    0    0  0.77614570131E+02  0.30104650870E+02  0.85461866320E+03  0.86772751658E+03  0.12509065529E+03 0.  0.
          5    1    3    3  502    0  0.10687973769E+03  0.16633388590E+01  0.54463614760E+03  0.55504238640E+03  0.41800000000E+01 0. -1.
         -5    1    3    3    0  502 -0.29265167555E+02  0.28441312011E+02  0.30998251560E+03  0.31268513019E+03  0.41800000000E+01 0. -1.
        -11    1    1    2    0    0 -0.81595387783E+02 -0.19893552575E+02  0.40310739426E+03  0.41176344185E+03  0.00000000000E+00 0.  1.
         11    1    1    2    0    0  0.39808176525E+01 -0.10211098294E+02  0.15936265990E+01  0.11074885250E+02  0.00000000000E+00 0. -1.
</event>
<event>
 7    1  0.2688177E-009  0.1496626E+03  0.7561462E-02  0.1200888E+00
         -2   -1    0    0    0  501 -0.00000000000E+00  0.00000000000E+00  0.16271499210E+02  0.16271499210E+02  0.00000000000E+00 0.  1.
          2   -1    0    0  501    0  0.00000000000E+00 -0.00000000000E+00 -0.17992756326E+04  0.17992756326E+04  0.00000000000E+00 0. -1.
         25    2    1    2    0    0  0.45213275362E+02 -0.10061014596E+03 -0.13379297789E+04  0.13482836274E+04  0.12508399081E+03 0.  0.
          5    1    3    3  502    0  0.11732067981E+02 -0.11937923910E+03 -0.11611224486E+04  0.11673096664E+04  0.41800000000E+01 0. -1.
         -5    1    3    3    0  502  0.33481207381E+02  0.18769093134E+02 -0.17680733033E+03  0.18097396101E+03  0.41800000000E+01 0. -1.
        -11    1    1    2    0    0 -0.47835582625E+02  0.85538411037E+01 -0.12206564105E+03  0.13138276861E+03  0.00000000000E+00 0.  1.
         11    1    1    2    0    0  0.26223072631E+01  0.92056304860E+02 -0.32300871342E+03  0.33588073583E+03  0.00000000000E+00 0. -1.
</event>
<event>
 7    1  0.2688177E-009  0.9916923E+02  0.7561462E-02  0.1282053E+00
         -2   -1    0    0    0  501 -0.00000000000E+00  0.00000000000E+00  0.68016199372E+01  0.68016199372E+01  0.00000000000E+00 0. -1.
          2   -1    0    0  501    0  0.00000000000E+00 -0.00000000000E+00 -0.31385896304E+04  0.31385896304E+04  0.00000000000E+00 0.  1.
         25    2    1    2    0    0 -0.16055382361E+02  0.17313674119E+02 -0.27219286458E+04  0.27249041271E+04  0.12509760421E+03 0.  0.
          5    1    3    3  502    0  0.42319436635E+02  0.17205390018E+02 -0.20259115414E+04  0.20264308541E+04  0.41800000000E+01 0. -1.
         -5    1    3    3    0  502 -0.58374818996E+02  0.10828410088E+00 -0.69601710435E+03  0.69847327305E+03  0.41800000000E+01 0. -1.
        -11    1    1    2    0    0  0.10046829249E+02  0.37487470003E+02 -0.16924578866E+03  0.17363866552E+03  0.00000000000E+00 0. -1.
         11    1    1    2    0    0  0.60085531120E+01 -0.54801144121E+02 -0.24061357601E+03  0.24684845770E+03  0.00000000000E+00 0.  1.
</event>
<event>
 7    1  0.2688177E-009  0.9256562E+02  0.7561462E-02  0.1296755E+00
          2   -1    0    0  501    0  0.00000000000E+00  0.00000000000E+00  0.16850881766E+03  0.16850881766E+03  0.00000000000E+00 0. -1.
         -2   -1    0    0    0  501 -0.00000000000E+00 -0.00000000000E+00 -0.10529651689E+03  0.10529651689E+03  0.00000000000E+00 0.  1.
         25    2    1    2    0    0 -0.23198055602E+02  0.41280515858E+02 -0.24628028975E+02  0.13599930309E+03  0.12508812836E+03 0.  0.
          5    1    3    3  502    0 -0.56287299131E+02  0.33822508485E+02 -0.58380487472E+02  0.87965765166E+02  0.41800000000E+01 0. -1.
         -5    1    3    3    0  502  0.33089243529E+02  0.74580073733E+01  0.33752458497E+02  0.48033537928E+02  0.41800000000E+01 0. -1.
        -11    1    1    2    0    0 -0.22576586520E+02  0.13319078046E+01  0.68816573730E+02  0.72437539006E+02  0.00000000000E+00 0. -1.
         11    1    1    2    0    0  0.45774642122E+02 -0.42612423663E+02  0.19023756017E+02  0.65368492447E+02  0.00000000000E+00 0.  1.
</event>
<event>
 7    1  0.2688177E-009  0.7848245E+02  0.7561462E-02  0.1333414E+00
          1   -1    0    0  501    0  0.00000000000E+00  0.00000000000E+00  0.33335979147E+02  0.33335979147E+02  0.00000000000E+00 0. -1.
         -1   -1    0    0    0  501 -0.00000000000E+00 -0.00000000000E+00 -0.44034021358E+03  0.44034021358E+03  0.00000000000E+00 0.  1.
         25    2    1    2    0    0 -0.52661547754E+02  0.20955404938E+02 -0.23023061096E+03  0.26807911269E+03  0.12509160175E+03 0.  0.
          5    1    3    3  502    0 -0.79688563754E+01  0.17143062084E+02  0.11276852408E+02  0.22405960140E+02  0.41800000000E+01 0.  1.
         -5    1    3    3    0  502 -0.44692691378E+02  0.38123428534E+01 -0.24150746336E+03  0.24567315255E+03  0.41800000000E+01 0.  1.
        -11    1    1    2    0    0  0.58020004353E+02 -0.41492350963E+02 -0.16821216547E+03  0.18271088830E+03  0.00000000000E+00 0.  1.
         11    1    1    2    0    0 -0.53584565993E+01  0.20536946025E+02 -0.85614580144E+01  0.22886191743E+02  0.00000000000E+00 0. -1.
</event>
<event>
 7    1  0.2688177E-009  0.1185773E+03  0.7561462E-02  0.1245463E+00
          1   -1    0    0  501    0  0.00000000000E+00  0.00000000000E+00  0.94604379208E+03  0.94604379208E+03  0.00000000000E+00 0. -1.
         -1   -1    0    0    0  501 -0.00000000000E+00 -0.00000000000E+00 -0.26751827458E+02  0.26751827458E+02  0.00000000000E+00 0.  1.
         25    2    1    2    0    0  0.93438440722E+02 -0.45157550148E+02  0.65618347838E+03  0.67601262584E+03  0.12508543663E+03 0.  0.
          5    1    3    3  502    0  0.11140180985E+02  0.45183109101E+01  0.43031883888E+03  0.43050701999E+03  0.41800000000E+01 0. -1.
         -5    1    3    3    0  502  0.82298259738E+02 -0.49675861058E+02  0.22586463950E+03  0.24550560585E+03  0.41800000000E+01 0. -1.
        -11    1    1    2    0    0 -0.85169520997E+02  0.29741314559E+01  0.11878316435E+03  0.14619210956E+03  0.00000000000E+00 0.  1.
         11    1    1    2    0    0 -0.82689197256E+01  0.42183418692E+02  0.14432532189E+03  0.15059088413E+03  0.00000000000E+00 0. -1.
</event>
<event>
 7    1  0.2688177E-009  0.7817056E+02  0.7561462E-02  0.1334325E+00
         -1   -1    0    0    0  501 -0.00000000000E+00  0.00000000000E+00  0.14351569253E+03  0.14351569253E+03  0.00000000000E+00 0.  1.
          1   -1    0    0  501    0  0.00000000000E+00 -0.00000000000E+00 -0.10079705580E+03  0.10079705580E+03  0.00000000000E+00 0. -1.
         25    2    1    2    0    0  0.12001535215E+02 -0.16467594259E+02 -0.24204090574E+02  0.12903746247E+03  0.12509840211E+03 0.  0.
          5    1    3    3  502    0  0.49763505792E+01  0.29064112417E+02 -0.62337595927E+02  0.69086431096E+02  0.41800000000E+01 0. -1.
         -5    1    3    3    0  502  0.70251846358E+01 -0.45531706676E+02  0.38133505353E+02  0.59951031372E+02  0.41800000000E+01 0. -1.
        -11    1    1    2    0    0 -0.43488051809E+02 -0.24675577627E+01  0.57763806781E+01  0.43939345298E+02  0.00000000000E+00 0. -1.
         11    1    1    2    0    0  0.31486516594E+02  0.18935152022E+02  0.61146346631E+02  0.71335940561E+02  0.00000000000E+00 0.  1.
</event>
<event>
 7    1  0.2688177E-009  0.6035236E+02  0.7561462E-02  0.1396359E+00
          1   -1    0    0  501    0  0.00000000000E+00  0.00000000000E+00  0.16709988026E+03  0.16709988026E+03  0.00000000000E+00 0. -1.
         -1   -1    0    0    0  501 -0.00000000000E+00 -0.00000000000E+00 -0.73918292432E+02  0.73918292432E+02  0.00000000000E+00 0.  1.
         25    2    1    2    0    0 -0.16881231559E+02  0.17488548235E+02  0.46338874709E+02  0.13559302171E+03  0.12508937177E+03 0.  0.
          5    1    3    3  502    0  0.62952574687E+01 -0.19080743622E+02  0.78730039353E+02  0.81360903021E+02  0.41800000000E+01 0. -1.
         -5    1    3    3    0  502 -0.23176489028E+02  0.36569291858E+02 -0.32391164645E+02  0.54232118690E+02  0.41800000000E+01 0. -1.
        -11    1    1    2    0    0 -0.15229780416E+02 -0.19226608846E+02 -0.19739195272E+02  0.31484036101E+02  0.00000000000E+00 0.  1.
         11    1    1    2    0    0  0.32111011975E+02  0.17380606101E+01  0.66581908395E+02  0.73941114884E+02  0.00000000000E+00 0. -1.
</event>
<event>
 7    1  0.2688177E-009  0.1909740E+03  0.7561462E-02  0.1157586E+00
         -2   -1    0    0    0  501 -0.00000000000E+00  0.00000000000E+00  0.11770595223E+03  0.11770595223E+03  0.00000000000E+00 0.  1.
          2   -1    0    0  501    0  0.00000000000E+00 -0.00000000000E+00 -0.35789139912E+03  0.35789139912E+03  0.00000000000E+00 0. -1.
         25    2    1    2    0    0 -0.81864755032E+02 -0.15103519252E+03 -0.94198792973E+02  0.23245163400E+03  0.12508749760E+03 0.  0.
          5    1    3    3  502    0  0.14248782073E+02 -0.22416480601E+02  0.21561196996E+02  0.34465693218E+02  0.41800000000E+01 0. -1.
         -5    1    3    3    0  502 -0.96113537104E+02 -0.12861871191E+03 -0.11575998997E+03  0.19798594078E+03  0.41800000000E+01 0. -1.
        -11    1    1    2    0    0  0.36588908112E+02 -0.18456223959E+00 -0.27696486497E+02  0.45889842278E+02  0.00000000000E+00 0. -1.
         11    1    1    2    0    0  0.45275846920E+02  0.15121975476E+03 -0.11829016743E+03  0.19725587508E+03  0.00000000000E+00 0.  1.
</event>
<event>
 7    1  0.2688177E-009  0.1046992E+03  0.7561462E-02  0.1270713E+00
          3   -1    0    0  501    0  0.00000000000E+00  0.00000000000E+00  0.90672718104E+02  0.90672718104E+02  0.00000000000E+00 0. -1.
         -3   -1    0    0    0  501 -0.00000000000E+00 -0.00000000000E+00 -0.13274396515E+03  0.13274396515E+03  0.00000000000E+00 0.  1.
         25    2    1    2    0    0 -0.16169366469E+02  0.84229264334E+01 -0.14759323469E+02  0.12728287263E+03  0.12510274951E+03 0.  0.
          5    1    3    3  502    0 -0.88446041898E+01 -0.57514542300E+02  0.31895378674E+01  0.58427691646E+02  0.41800000000E+01 0.  1.
         -5    1    3    3    0  502 -0.73247622792E+01  0.65937468733E+02 -0.17948861336E+02  0.68855180986E+02  0.41800000000E+01 0.  1.
        -11    1    1    2    0    0  0.71460710341E+01  0.37300066702E+02 -0.31499150503E+02  0.49341238225E+02  0.00000000000E+00 0.  1.
         11    1    1    2    0    0  0.90232954349E+01 -0.45722993136E+02  0.41872269297E+01  0.46792572393E+02  0.00000000000E+00 0. -1.
</event>
<event>
 7    1  0.2688177E-009  0.1056742E+03  0.7561462E-02  0.1268797E+00
          1   -1    0    0  501    0  0.00000000000E+00  0.00000000000E+00  0.44603938536E+03  0.44603938536E+03  0.00000000000E+00 0. -1.
         -1   -1    0    0    0  501 -0.00000000000E+00 -0.00000000000E+00 -0.35783475589E+02  0.35783475589E+02  0.00000000000E+00 0.  1.
         25    2    1    2    0    0  0.39923778423E+02 -0.26831111490E+02  0.14584635794E+03  0.19807332293E+03  0.12509222399E+03 0.  0.
          5    1    3    3  502    0  0.16154198448E+02 -0.76239129854E+02  0.97216171627E+02  0.12466683390E+03  0.41800000000E+01 0. -1.
         -5    1    3    3    0  502  0.23769579975E+02  0.49408018364E+02  0.48630186318E+02  0.73406489033E+02  0.41800000000E+01 0. -1.
        -11    1    1    2    0    0  0.18879480801E+01 -0.17370625268E+02  0.63133319472E+01  0.18578512600E+02  0.00000000000E+00 0.  1.
         11    1    1    2    0    0 -0.41811726503E+02  0.44201736758E+02  0.25809621988E+03  0.26517102542E+03  0.00000000000E+00 0. -1.
</event>
<event>
 7    1  0.2688177E-009  0.1260994E+03  0.7561462E-02  0.1233361E+00
         -2   -1    0    0    0  501 -0.00000000000E+00  0.00000000000E+00  0.13633800579E+03  0.13633800579E+03  0.00000000000E+00 0.  1.
          2   -1    0    0  501    0  0.00000000000E+00 -0.00000000000E+00 -0.35685363880E+03  0.35685363880E+03  0.00000000000E+00 0. -1.
         25    2    1    2    0    0  0.92035485955E+02 -0.18257516660E+02  0.72958104495E+02  0.17255304645E+03  0.12509117170E+03 0.  0.
          5    1    3    3  502    0  0.19047962940E+02 -0.65204591813E+02  0.43679597912E+02  0.80869298003E+02  0.41800000000E+01 0.  1.
         -5    1    3    3    0  502  0.72987523015E+02  0.46947075153E+02  0.29278506583E+02  0.91683748445E+02  0.41800000000E+01 0.  1.
        -11    1    1    2    0    0 -0.45541321928E+02 -0.39876581598E+01 -0.36366636970E+02  0.58416142504E+02  0.00000000000E+00 0.  1.
         11    1    1    2    0    0 -0.46494164027E+02  0.22245174820E+02 -0.25710710053E+03  0.26222245563E+03  0.00000000000E+00 0. -1.
</event>
<event>
 7    1  0.2688177E-009  0.1100438E+03  0.7561462E-02  0.1260489E+00
         -1   -1    0    0    0  501 -0.00000000000E+00  0.00000000000E+00  0.22092434532E+03  0.22092434532E+03  0.00000000000E+00 0.  1.
          1   -1    0    0  501    0  0.00000000000E+00 -0.00000000000E+00 -0.78385898424E+02  0.78385898424E+02  0.00000000000E+00 0. -1.
         25    2    1    2    0    0  0.24450211585E+02  0.25653369732E+02  0.66869034290E+01  0.13018990289E+03  0.12509511546E+03 0.  0.
          5    1    3    3  502    0  0.63891734293E+02  0.51917747401E+02  0.52111608233E+01  0.82596820782E+02  0.41800000000E+01 0. -1.
         -5    1    3    3    0  502 -0.39441522708E+02 -0.26264377669E+02  0.14757426056E+01  0.47593082104E+02  0.41800000000E+01 0. -1.
        -11    1    1    2    0    0 -0.49530853616E+02  0.57855268883E+01  0.11140242457E+03  0.12205440583E+03  0.00000000000E+00 0.  1.
         11    1    1    2    0    0  0.25080642031E+02 -0.31438896621E+02  0.24449118894E+02  0.47065935029E+02  0.00000000000E+00 0. -1.
</event>
<event>
 7    1  0.2688177E-009  0.8767773E+02  0.7561462E-02  0.1308575E+00
         -1   -1    0    0    0  501 -0.00000000000E+00  0.00000000000E+00  0.16303812553E+02  0.16303812553E+02  0.00000000000E+00 0.  1.
          1   -1    0    0  501    0  0.00000000000E+00 -0.00000000000E+00 -0.87783820921E+03  0.87783820921E+03  0.00000000000E+00 0. -1.
         25    2    1    2    0    0 -0.46055245560E+02  0.47050626320E+01 -0.57122648878E+03  0.58659156372E+03  0.12508692133E+03 0.  0.
          5    1    3    3  502    0 -0.22963786821E+02 -0.40645314910E+02 -0.80006862554E+02  0.92725118415E+02  0.41800000000E+01 0.  1.
         -5    1    3    3    0  502 -0.23091458739E+02  0.45350377542E+02 -0.49121962623E+03  0.49386644531E+03  0.41800000000E+01 0.  1.
        -11    1    1    2    0    0  0.37305682561E+02 -0.31756361125E+02 -0.26498908290E+03  0.26947985914E+03  0.00000000000E+00 0. -1.
         11    1    1    2    0    0  0.87495629996E+01  0.27051298493E+02 -0.25318824974E+02  0.38070598904E+02  0.00000000000E+00 0.  1.
</event>
<event>
 7    1  0.2688177E-009  0.9127081E+02  0.7561462E-02  0.1299803E+00
          1   -1    0    0  501    0  0.00000000000E+00  0.00000000000E+00  0.10303765563E+04  0.10303765563E+04  0.00000000000E+00 0. -1.
         -1   -1    0    0    0  501 -0.00000000000E+00 -0.00000000000E+00 -0.14361540818E+02  0.14361540818E+02  0.00000000000E+00 0.  1.
         25    2    1    2    0    0 -0.10292738625E+02  0.19592400044E+02  0.77737839187E+03  0.78768904672E+03  0.12508823910E+03 0.  0.
          5    1    3    3  502    0 -0.37780564850E+02 -0.36261534603E+02  0.52869067940E+03  0.53129424696E+03  0.41800000000E+01 0. -1.
         -5    1    3    3    0  502  0.27487826224E+02  0.55853934647E+02  0.24868771248E+03  0.25639479976E+03  0.41800000000E+01 0. -1.
        -11    1    1    2    0    0 -0.19042264769E+02  0.13539044202E+02  0.12256516367E+02  0.26384384755E+02  0.00000000000E+00 0.  1.
         11    1    1    2    0    0  0.29335003394E+02 -0.33131444247E+02  0.22638010719E+03  0.23066466560E+03  0.00000000000E+00 0. -1.
</event>
<event>
 7    1  0.2688177E-009  0.1036054E+03  0.7561462E-02  0.1272892E+00
          1   -1    0    0  501    0  0.00000000000E+00  0.00000000000E+00  0.12365526347E+04  0.12365526347E+04  0.00000000000E+00 0.  1.
         -1   -1    0    0    0  501 -0.00000000000E+00 -0.00000000000E+00 -0.32612839469E+02  0.32612839469E+02  0.00000000000E+00 0. -1.
         25    2    1    2    0    0 -0.75742352892E+02  0.15766778852E+02  0.10986247469E+04  0.11084273953E+04  0.12509780571E+03 0.  0.
          5    1    3    3  502    0 -0.91318244487E+02 -0.10064159580E+01  0.44025021098E+03  0.44964180779E+03  0.41800000000E+01 0. -1.
         -5    1    3    3    0  502  0.15575891596E+02  0.16773194810E+02  0.65837453588E+03  0.65878558754E+03  0.41800000000E+01 0. -1.
        -11    1    1    2    0    0  0.42086963342E+02 -0.34127542970E+02  0.10949929680E+03  0.12217240962E+03  0.00000000000E+00 0.  1.
         11    1    1    2    0    0  0.33655389550E+02  0.18360764118E+02 -0.41842484504E+01  0.38565669187E+02  0.00000000000E+00 0. -1.
</event>
<event>
 7    1  0.2688177E-009  0.1076633E+03  0.7561462E-02  0.1264959E+00
          1   -1    0    0  501    0  0.00000000000E+00  0.00000000000E+00  0.14710131865E+02  0.14710131865E+02  0.00000000000E+00 0. -1.
         -1   -1    0    0    0  501 -0.00000000000E+00 -0.00000000000E+00 -0.11170446237E+04  0.11170446237E+04  0.00000000000E+00 0.  1.
         25    2    1    2    0    0 -0.29625728043E+02  0.34252234530E+02 -0.80662414572E+03  0.81751873396E+03  0.12507385256E+03 0.  0.
          5    1    3    3  502    0 -0.60742787330E+02 -0.10688772850E+02 -0.61815178351E+03  0.62123508911E+03  0.41800000000E+01 0.  1.
         -5    1    3    3    0  502  0.31117059286E+02  0.44941007380E+02 -0.18847236220E+03  0.19628364485E+03  0.41800000000E+01 0.  1.
        -11    1    1    2    0    0  0.43417587238E+02  0.16232254615E+02 -0.19842659515E+03  0.20376870868E+03  0.00000000000E+00 0.  1.
         11    1    1    2    0    0 -0.13791859195E+02 -0.50484489145E+02 -0.97283751006E+02  0.11046731297E+03  0.00000000000E+00 0. -1.
</event>
<event>
 6    1  0.2688177E-009  0.1070985E+03  0.7561462E-02  0.1266039E+00
         -1   -1    0    0    0  501 -0.00000000000E+00  0.00000000000E+00  0.49088939676E+03  0.49088939676E+03  0.00000000000E+00 0.  1.
          1   -1    0    0  501    0  0.00000000000E+00 -0.00000000000E+00 -0.30379705399E+02  0.30379705399E+02  0.00000000000E+00 0. -1.
          5    1    1    2  502    0  0.72843103240E+02  0.40610953386E+02  0.86867624740E+02  0.12049408223E+03  0.41800000000E+01 0. -1.
         -5    1    1    2    0  502 -0.22026020322E+02 -0.10327277215E+02  0.15398973035E+03  0.15595546698E+03  0.41800000000E+01 0. -1.
        -11    1    1    2    0    0  0.99935808595E+01 -0.42777471054E+02  0.68036303614E+02  0.80985938888E+02  0.00000000000E+00 0. -1.
         11    1    1    2    0    0 -0.60810663777E+02  0.12493794883E+02  0.15161603266E+03  0.16383361407E+03  0.00000000000E+00 0.  1.
</event>
<event>
 7    1  0.2688177E-009  0.7206389E+02  0.7561462E-02  0.1353212E+00
          2   -1    0    0  501    0  0.00000000000E+00  0.00000000000E+00  0.86060160824E+03  0.86060160824E+03  0.00000000000E+00 0.  1.
         -2   -1    0    0    0  501 -0.00000000000E+00 -0.00000000000E+00 -0.12654350201E+02  0.12654350201E+02  0.00000000000E+00 0. -1.
         25    2    1    2    0    0 -0.31823074620E+02  0.51052558357E+01  0.68895113569E+03  0.70095581616E+03  0.12508643865E+03 0.  0.
          5    1    3    3  502    0 -0.65260116164E+01  0.38553703701E+02  0.61164452674E+03  0.61290739626E+03  0.41800000000E+01 0. -1.
         -5    1    3    3    0  502 -0.25297063004E+02 -0.33448447865E+02  0.77306608947E+02  0.88048419907E+02  0.41800000000E+01 0. -1.
        -11    1    1    2    0    0  0.44733281936E+02 -0.14123181735E+02  0.13986025542E+03  0.14751753056E+03  0.00000000000E+00 0.  1.
         11    1    1    2    0    0 -0.12910207316E+02  0.90179258991E+01  0.19135866935E+02  0.24782611723E+02  0.00000000000E+00 0. -1.
</event>
<event>
 7    1  0.2688177E-009  0.1296915E+03  0.7561462E-02  0.1227914E+00
          1   -1    0    0  501    0  0.00000000000E+00  0.00000000000E+00  0.24217224030E+03  0.24217224030E+03  0.00000000000E+00 0. -1.
         -1   -1    0    0    0  501 -0.00000000000E+00 -0.00000000000E+00 -0.18045305572E+03  0.18045305572E+03  0.00000000000E+00 0.  1.
         25    2    1    2    0    0  0.71339501654E+02  0.56043356999E+02  0.18728060047E+03  0.24279969260E+03  0.12508990790E+03 0.  0.
          5    1    3    3  502    0 -0.32774506416E+02 -0.52094564040E+01  0.35547047158E+02  0.48809544850E+02  0.41800000000E+01 0. -1.
         -5    1    3    3    0  502  0.10411400807E+03  0.61252813403E+02  0.15173355331E+03  0.19399014775E+03  0.41800000000E+01 0. -1.
        -11    1    1    2    0    0 -0.75635601746E+02 -0.34558876669E+02 -0.13285484445E+03  0.15673375483E+03  0.00000000000E+00 0.  1.
         11    1    1    2    0    0  0.42961000918E+01 -0.21484480330E+02  0.72934285656E+01  0.23091848590E+02  0.00000000000E+00 0. -1.
</event>
<event>
 7    1  0.2688177E-009  0.9701403E+02  0.7561462E-02  0.1286703E+00
          2   -1    0    0  501    0  0.00000000000E+00  0.00000000000E+00  0.98563368618E+03  0.98563368618E+03  0.00000000000E+00 0. -1.
         -2   -1    0    0    0  501 -0.00000000000E+00 -0.00000000000E+00 -0.13139568097E+02  0.13139568097E+02  0.00000000000E+00 0.  1.
         25    2    1    2    0    0  0.32284267165E+02  0.36561949124E+01  0.62383413676E+03  0.63708101583E+03  0.12509016301E+03 0.  0.
          5    1    3    3  502    0  0.36165850673E+01 -0.48951686225E+02  0.12056501356E+03  0.13024109246E+03  0.41800000000E+01 0.  1.
         -5    1    3    3    0  502  0.28667682097E+02  0.52607881137E+02  0.50326912320E+03  0.50683992337E+03  0.41800000000E+01 0.  1.
        -11    1    1    2    0    0 -0.21061602527E+01 -0.38531132693E+02  0.76815615603E+02  0.85963497475E+02  0.00000000000E+00 0.  1.
         11    1    1    2    0    0 -0.30178106912E+02  0.34874937781E+02  0.27184436572E+03  0.27572874096E+03  0.00000000000E+00 0. -1.
</event>
<event>
 7    1  0.2688177E-009  0.1049671E+03  0.7561462E-02  0.1270185E+00
         -2   -1    0    0    0  501 -0.00000000000E+00  0.00000000000E+00  0.17369521124E+03  0.17369521124E+03  0.00000000000E+00 0.  1.
          2   -1    0    0  501    0  0.00000000000E+00 -0.00000000000E+00 -0.10749894970E+03  0.10749894970E+03  0.00000000000E+00 0. -1.
         25    2    1    2    0    0 -0.79990075023E+02 -0.18459750097E+02  0.46877882483E+02  0.15679129215E+03  0.12508716541E+03 0.  0.
          5    1    3    3  502    0  0.92629349493E+01 -0.14509322092E+02  0.63410187778E+02  0.65838033882E+02  0.41800000000E+01 0.  1.
         -5    1    3    3    0  502 -0.89253009973E+02 -0.39504280055E+01 -0.16532305295E+02  0.90953258265E+02  0.41800000000E+01 0.  1.
        -11    1    1    2    0    0  0.23243641921E+02 -0.22847902599E+02  0.39651900484E+02  0.51328030889E+02  0.00000000000E+00 0.  1.
         11    1    1    2    0    0  0.56746433102E+02  0.41307652696E+02 -0.20333521435E+02  0.73074837906E+02  0.00000000000E+00 0. -1.
</event>
<event>
 7    1  0.2688177E-009  0.1422516E+03  0.7561462E-02  0.1210331E+00
         -2   -1    0    0    0  501 -0.00000000000E+00  0.00000000000E+00  0.46839018510E+03  0.46839018510E+03  0.00000000000E+00 0.  1.
          2   -1    0    0  501    0  0.00000000000E+00 -0.00000000000E+00 -0.49177020478E+02  0.49177020478E+02  0.00000000000E+00 0. -1.
         25    2    1    2    0    0 -0.44153154041E+02  0.92308603849E+02  0.16853675655E+03  0.23350148113E+03  0.12509166250E+03 0.  0.
          5    1    3    3  502    0 -0.79748139732E+02  0.22325811637E+02  0.83177650969E+02  0.11744871935E+03  0.41800000000E+01 0. -1.
         -5    1    3    3    0  502  0.35594985691E+02  0.69982792212E+02  0.85359105580E+02  0.11605276178E+03  0.41800000000E+01 0. -1.
        -11    1    1    2    0    0  0.38924073554E+02 -0.10351485235E+03  0.24781634229E+03  0.27137307837E+03  0.00000000000E+00 0.  1.
         11    1    1    2    0    0  0.52290804873E+01  0.11206248496E+02  0.28600657830E+01  0.12692646075E+02  0.00000000000E+00 0. -1.
</event>
<event>
 7    1  0.2688177E-009  0.1943193E+03  0.7561462E-02  0.1154622E+00
         -1   -1    0    0    0  501 -0.00000000000E+00  0.00000000000E+00  0.44031839216E+02  0.44031839216E+02  0.00000000000E+00 0.  1.
          1   -1    0    0  501    0  0.00000000000E+00 -0.00000000000E+00 -0.21384490390E+04  0.21384490390E+04  0.00000000000E+00 0. -1.
         25    2    1    2    0    0  0.28962005411E+02  0.18349695401E+03 -0.18453474812E+04  0.18588881842E+04  0.12509206747E+03 0.  0.
          5    1    3    3  502    0  0.28352870860E+02  0.11108357185E+03 -0.15687010177E+04  0.15728902697E+04  0.41800000000E+01 0.  1.
         -5    1    3    3    0  502  0.60913455155E+00  0.72413382168E+02 -0.27664646345E+03  0.28599791450E+03  0.41800000000E+01 0.  1.
        -11    1    1    2    0    0  0.26390722638E+02 -0.76323730735E+02 -0.65705774356E+02  0.10411066659E+03  0.00000000000E+00 0.  1.
         11    1    1    2    0    0 -0.55352728049E+02 -0.10717322328E+03 -0.18336394424E+03  0.21948202737E+03  0.00000000000E+00 0. -1.
</event>
<event>
 7    1  0.2688177E-009  0.1289640E+03  0.7561462E-02  0.1229001E+00
         -2   -1    0    0    0  501 -0.00000000000E+00  0.00000000000E+00  0.14170780461E+03  0.14170780461E+03  0.00000000000E+00 0.  1.
          2   -1    0    0  501    0  0.00000000000E+00 -0.00000000000E+00 -0.18430601253E+03  0.18430601253E+03  0.00000000000E+00 0. -1.
         25    2    1    2    0    0  0.72901803309E+02 -0.79355196901E+02  0.31151781968E+02  0.16802091347E+03  0.12509465874E+03 0.  0.
          5    1    3    3  502    0  0.47620027534E+02  0.15513662012E+02 -0.23606548812E+02  0.55525510157E+02  0.41800000000E+01 0.  1.
         -5    1    3    3    0  502  0.25281775775E+02 -0.94868858913E+02  0.54758330780E+02  0.11249540332E+03  0.41800000000E+01 0.  1.
        -11    1    1    2    0    0 -0.33749268966E+02  0.23236156293E+02  0.16978753059E+02  0.44353243066E+02  0.00000000000E+00 0.  1.
         11    1    1    2    0    0 -0.39152534343E+02  0.56119040608E+02 -0.90728742952E+02  0.11363966060E+03  0.00000000000E+00 0. -1.
</event>
<event>
 7    1  0.2688177E-009  0.1279068E+03  0.7561462E-02  0.1230595E+00
          2   -1    0    0  501    0  0.00000000000E+00  0.00000000000E+00  0.14651897349E+03  0.14651897349E+03  0.00000000000E+00 0. -1.
         -2   -1    0    0    0  501 -0.00000000000E+00 -0.00000000000E+00 -0.14236341976E+03  0.14236341976E+03  0.00000000000E+00 0.  1.
         25    2    1    2    0    0 -0.76050151469E+02  0.65049915360E+01 -0.53458408459E+02  0.15599776117E+03  0.12510619329E+03 0.  0.
          5    1    3    3  502    0  0.27309829673E+01  0.47510699709E+02 -0.46736194395E+02  0.66831647603E+02  0.41800000000E+01 0. -1.
         -5    1    3    3    0  502 -0.78781134437E+02 -0.41005708173E+02 -0.67222140643E+01  0.89166113562E+02  0.41800000000E+01 0. -1.
        -11    1    1    2    0    0  0.11858053190E+02 -0.43467211558E+02  0.15329041332E+02  0.47591925936E+02  0.00000000000E+00 0. -1.
         11    1    1    2    0    0  0.64192098279E+02  0.36962220023E+02  0.42284920854E+02  0.85292706148E+02  0.00000000000E+00 0.  1.
</event>
<event>
 7    1  0.2688177E-009  0.8414479E+02  0.7561462E-02  0.1317684E+00
         -1   -1    0    0    0  501 -0.00000000000E+00  0.00000000000E+00  0.25440272937E+02  0.25440272937E+02  0.00000000000E+00 0.  1.
          1   -1    0    0  501    0  0.00000000000E+00 -0.00000000000E+00 -0.58083261706E+03  0.58083261706E+03  0.00000000000E+00 0. -1.
         25    2    1    2    0    0  0.48279718027E+01 -0.17680911703E+02 -0.44075493780E+03  0.45852892667E+03  0.12509171613E+03 0.  0.
          5    1    3    3  502    0 -0.17337754140E+02  0.24957093255E+02 -0.37865603466E+03  0.37989645854E+03  0.41800000000E+01 0.  1.
         -5    1    3    3    0  502  0.22165725943E+02 -0.42638004958E+02 -0.62098903135E+02  0.78632468128E+02  0.41800000000E+01 0.  1.
        -11    1    1    2    0    0 -0.36141176476E+02  0.37690017226E+02 -0.86865683351E+02  0.10135269597E+03  0.00000000000E+00 0. -1.
         11    1    1    2    0    0  0.31313204673E+02 -0.20009105524E+02 -0.27771722973E+02  0.46391267364E+02  0.00000000000E+00 0.  1.
</event>
<event>
 7    1  0.2688177E-009  0.1058554E+03  0.7561462E-02  0.1268443E+00
         -2   -1    0    0    0  501 -0.00000000000E+00  0.00000000000E+00  0.33190998134E+02  0.33190998134E+02  0.00000000000E+00 0. -1.
          2   -1    0    0  501    0  0.00000000000E+00 -0.00000000000E+00 -0.49135724495E+03  0.49135724495E+03  0.00000000000E+00 0.  1.
         25    2    1    2    0    0 -0.37471884052E+02 -0.49485767155E+02 -0.30356389116E+03  0.33414276367E+03  0.12508943702E+03 0.  0.
          5    1    3    3  502    0 -0.70963868539E+02 -0.79984468139E+01 -0.95537339817E+02  0.11935116878E+03  0.41800000000E+01 0.  1.
         -5    1    3    3    0  502  0.33491984487E+02 -0.41487320341E+02 -0.20802655134E+03  0.21479159490E+03  0.41800000000E+01 0.  1.
        -11    1    1    2    0    0 -0.15489738840E+02  0.22326132803E+02 -0.11674667785E+03  0.11986732250E+03  0.00000000000E+00 0.  1.
         11    1    1    2    0    0  0.52961622893E+02  0.27159634352E+02 -0.37855677806E+02  0.70538156906E+02  0.00000000000E+00 0. -1.
</event>
<event>
 7    1  0.2688177E-009  0.1288158E+03  0.7561462E-02  0.1229224E+00
         -2   -1    0    0    0  501 -0.00000000000E+00  0.00000000000E+00  0.19400354095E+03  0.19400354095E+03  0.00000000000E+00 0.  1.
          2   -1    0    0  501    0  0.00000000000E+00 -0.00000000000E+00 -0.14683411725E+03  0.14683411725E+03  0.00000000000E+00 0. -1.
         25    2    1    2    0    0 -0.43971888608E+02  0.12078272714E+03  0.33772049749E+02  0.18252283557E+03  0.12510811323E+03 0.  0.
          5    1    3    3  502    0 -0.30146384905E+02  0.73254502666E+02 -0.43645006414E+02  0.90539415000E+02  0.41800000000E+01 0. -1.
         -5    1    3    3    0  502 -0.13825503703E+02  0.47528224476E+02  0.77417056164E+02  0.91983420569E+02  0.41800000000E+01 0. -1.
        -11    1    1    2    0    0  0.19626615405E+02 -0.46884696847E+02 -0.39380916351E+02  0.64298020213E+02  0.00000000000E+00 0. -1.
         11    1    1    2    0    0  0.24345273204E+02 -0.73898030295E+02  0.52778290311E+02  0.94016802419E+02  0.00000000000E+00 0.  1.
</event>
<event>
 7    1  0.2688177E-009  0.1164653E+03  0.7561462E-02  0.1249045E+00
          2   -1    0    0  501    0  0.00000000000E+00  0.00000000000E+00  0.13306673137E+04  0.13306673137E+04  0.00000000000E+00 0.  1.
         -2   -1    0    0    0  501 -0.00000000000E+00 -0.00000000000E+00 -0.12268107886E+02  0.12268107886E+02  0.00000000000E+00 0. -1.
         25    2    1    2    0    0 -0.43205449059E+02 -0.25020735870E+02  0.96376961499E+03  0.97313657956E+03  0.12510069400E+03 0.  0.
          5    1    3    3  502    0  0.40960528487E+02  0.13809674665E+01  0.44515367124E+03  0.44705585265E+03  0.41800000000E+01 0.  1.
         -5    1    3    3    0  502 -0.84165977546E+02 -0.26401703337E+02  0.51861594375E+03  0.52608072691E+03  0.41800000000E+01 0.  1.
        -11    1    1    2    0    0  0.34600282785E+02 -0.31175958614E+02  0.19016788384E+03  0.19578800783E+03  0.00000000000E+00 0. -1.
         11    1    1    2    0    0  0.86051662735E+01  0.56196694484E+02  0.16446170702E+03  0.17401083424E+03  0.00000000000E+00 0.  1.
</event>
<event>
 6    1  0.2688177E-009  0.1245369E+03  0.7561462E-02  0.1235795E+00
          1   -1    0    0  501    0  0.00000000000E+00  0.00000000000E+00  0.93146202935E+02  0.93146202935E+02  0.00000000000E+00 0. -1.
         -1   -1    0    0    0  501 -0.00000000000E+00 -0.00000000000E+00 -0.17981570293E+03  0.17981570293E+03  0.00000000000E+00 0.  1.
          5    1    1    2  502    0  0.31978948664E+02 -0.30663571297E+02 -0.13839020606E+02  0.46603633482E+02  0.41800000000E+01 0.  1.
         -5    1    1    2    0  502 -0.13799344753E+02  0.97368819298E+02 -0.21596910175E+02  0.10077205871E+03  0.41800000000E+01 0.  1.
        -11    1    1    2    0    0 -0.43391694399E+02 -0.10652966962E+02 -0.45641769969E+02  0.63870932464E+02  0.00000000000E+00 0.  1.
         11    1    1    2    0    0  0.25212090488E+02 -0.56052281039E+02 -0.55917992475E+01  0.61715281213E+02  0.00000000000E+00 0. -1.
</event>
<event>
 7    1  0.2688177E-009  0.1176183E+03  0.7561462E-02  0.1247079E+00
          1   -1    0    0  501    0  0.00000000000E+00  0.00000000000E+00  0.19065883942E+03  0.19065883942E+03  0.00000000000E+00 0. -1.
         -1   -1    0    0    0  501 -0.00000000000E+00 -0.00000000000E+00 -0.92367218374E+02  0.92367218374E+02  0.00000000000E+00 0.  1.
         25    2    1    2    0    0 -0.36461188581E+02 -0.61510251717E+02  0.32525679120E+02  0.14771444306E+03  0.12509479425E+03 0.  0.
          5    1    3    3  502    0 -0.63442572981E+02  0.10910479941E+02  0.20742117369E+01  0.64542802800E+02  0.41800000000E+01 0. -1.
         -5    1    3    3    0  502  0.26981384400E+02 -0.72420731658E+02  0.30451467383E+02  0.83171640262E+02  0.41800000000E+01 0. -1.
        -11    1    1    2    0    0  0.27718507113E+01  0.59517768538E+02  0.79095833297E+02  0.99026252949E+02  0.00000000000E+00 0. -1.
         11    1    1    2    0    0  0.33689337869E+02  0.19924831795E+01 -0.13329891376E+02  0.36285361778E+02  0.00000000000E+00 0.  1.
</event>
<event>
 7    1  0.2688177E-009  0.3067617E+03  0.7561462E-02  0.1081909E+00
          3   -1    0    0  501    0  0.00000000000E+00  0.00000000000E+00  0.95227506390E+03  0.95227506390E+03  0.00000000000E+00 0. -1.
         -3   -1    0    0    0  501 -0.00000000000E+00 -0.00000000000E+00 -0.10651833257E+03  0.10651833257E+03  0.00000000000E+00 0.  1.
         25    2    1    2    0    0 -0.24423906660E+02 -0.29007676043E+03  0.54346342503E+03  0.62907840800E+03  0.12508435119E+03 0.  0.
          5    1    3    3  502    0  0.46952844308E+02 -0.17603310984E+03  0.31321693035E+03  0.36237348580E+03  0.41800000000E+01 0. -1.
         -5    1    3    3    0  502 -0.71376750968E+02 -0.11404365059E+03  0.23024649467E+03  0.26670492220E+03  0.41800000000E+01 0. -1.
        -11    1    1    2    0    0  0.41121417580E+02  0.14721271344E+03  0.10451769576E+03  0.18516614893E+03  0.00000000000E+00 0.  1.
         11    1    1    2    0    0 -0.16697510920E+02  0.14286404699E+03  0.19777561055E+03  0.24454883954E+03  0.00000000000E+00 0. -1.
</event>
<event>
 7    1  0.2688177E-009  0.1301483E+03  0.7561462E-02  0.1227236E+00
         -1   -1    0    0    0  501 -0.00000000000E+00  0.00000000000E+00  0.25755688132E+02  0.25755688132E+02  0.00000000000E+00 0.  1.
          1   -1    0    0  501    0  0.00000000000E+00 -0.00000000000E+00 -0.89191285613E+03  0.89191285613E+03  0.00000000000E+00 0. -1.
         25    2    1    2    0    0  0.22611558071E+02  0.85174668836E+02 -0.61895567883E+03  0.63758944548E+03  0.12509261311E+03 0.  0.
          5    1    3    3  502    0 -0.40638927599E+02  0.63168641444E+02 -0.20787498534E+03  0.22106849985E+03  0.41800000000E+01 0.  1.
         -5    1    3    3    0  502  0.63250485670E+02  0.22006027392E+02 -0.41108069350E+03  0.41652094562E+03  0.41800000000E+01 0.  1.
        -11    1    1    2    0    0 -0.50703754006E+02 -0.39195816316E+02 -0.70180034204E+02  0.95039044018E+02  0.00000000000E+00 0.  1.
         11    1    1    2    0    0  0.28092195936E+02 -0.45978852520E+02 -0.17702145497E+03  0.18504005477E+03  0.00000000000E+00 0. -1.
</event>
<event>
 7    1  0.2688177E-009  0.2166821E+03  0.7561462E-02  0.1136381E+00
         -2   -1    0    0    0  501 -0.00000000000E+00  0.00000000000E+00  0.44819791502E+03  0.44819791502E+03  0.00000000000E+00 0.  1.
          2   -1    0    0  501    0  0.00000000000E+00 -0.00000000000E+00 -0.12424372218E+03  0.12424372218E+03  0.00000000000E+00 0. -1.
         25    2    1    2    0    0  0.19306295493E+03  0.59016989418E+02  0.23429105674E+03  0.33361306957E+03  0.12509624819E+03 0.  0.
          5    1    3    3  502    0  0.83874637922E+02 -0.31386710033E+02  0.12849797215E+03  0.15668210395E+03  0.41800000000E+01 0.  1.
         -5    1    3    3    0  502  0.10918831701E+03  0.90403699450E+02  0.10579308459E+03  0.17693096562E+03  0.41800000000E+01 0.  1.
        -11    1    1    2    0    0 -0.54021941892E+02 -0.15491443747E+02  0.73084618522E+02  0.92193907064E+02  0.00000000000E+00 0.  1.
         11    1    1    2    0    0 -0.13904101304E+03 -0.43525545671E+02  0.16578517584E+02  0.14663466056E+03  0.00000000000E+00 0. -1.
</event>
<event>
 7    1  0.2688177E-009  0.1076254E+03  0.7561462E-02  0.1265032E+00
          1   -1    0    0  501    0  0.00000000000E+00  0.00000000000E+00  0.91339946378E+03  0.91339946378E+03  0.00000000000E+00 0. -1.
         -1   -1    0    0    0  501 -0.00000000000E+00 -0.00000000000E+00 -0.17520832484E+02  0.17520832484E+02  0.00000000000E+00 0.  1.
         25    2    1    2    0    0 -0.18885119503E+02 -0.54666950437E+02  0.38443879751E+03  0.40839467397E+03  0.12509155644E+03 0.  0.
          5    1    3    3  502    0 -0.43493286321E+02  0.85784288550E+01  0.28168071613E+03  0.28517845928E+03  0.41800000000E+01 0.  1.
         -5    1    3    3    0  502  0.24608166817E+02 -0.63245379292E+02  0.10275808138E+03  0.12321621470E+03  0.41800000000E+01 0.  1.
        -11    1    1    2    0    0 -0.32787053068E+02  0.95934629617E+01  0.10719987323E+03  0.11251150253E+03  0.00000000000E+00 0.  1.
         11    1    1    2    0    0  0.51672172571E+02  0.45073487475E+02  0.40423996056E+03  0.41001411976E+03  0.00000000000E+00 0. -1.
</event>
<event>
 7    1  0.2688177E-009  0.1197928E+03  0.7561462E-02  0.1243439E+00
         -2   -1    0    0    0  501 -0.00000000000E+00  0.00000000000E+00  0.24589364870E+02  0.24589364870E+02  0.00000000000E+00 0. -1.
          2   -1    0    0  501    0  0.00000000000E+00 -0.00000000000E+00 -0.69682101539E+03  0.69682101539E+03  0.00000000000E+00 0.  1.
         25    2    1    2    0    0 -0.41161807888E+02 -0.47770248029E+02 -0.37258244633E+03  0.39804676857E+03  0.12508900683E+03 0.  0.
          5    1    3    3  502    0 -0.52062555127E+02 -0.84614528926E+02 -0.23579952621E+03  0.25590822009E+03  0.41800000000E+01 0. -1.
         -5    1    3    3    0  502  0.10900747239E+02  0.36844280898E+02 -0.13678292012E+03  0.14213854847E+03  0.41800000000E+01 0. -1.
        -11    1    1    2    0    0  0.30975113162E+02 -0.17406876067E+02 -0.20461646186E+03  0.20767848573E+03  0.00000000000E+00 0.  1.
         11    1    1    2    0    0  0.10186694727E+02  0.65177124096E+02 -0.95032742328E+02  0.11568512596E+03  0.00000000000E+00 0. -1.
</event>
<event>
 7    1  0.2688177E-009  0.9275277E+02  0.7561462E-02  0.1296319E+00
         -1   -1    0    0    0  501 -0.00000000000E+00  0.00000000000E+00  0.31765980570E+03  0.31765980570E+03  0.00000000000E+00 0.  1.
          1   -1    0    0  501    0  0.00000000000E+00 -0.00000000000E+00 -0.45695305706E+02  0.45695305706E+02  0.00000000000E+00 0. -1.
         25    2    1    2    0    0 -0.18475649237E+02  0.17499424778E+02  0.87324303795E+02  0.15466178212E+03  0.12508858194E+03 0.  0.
          5    1    3    3  502    0 -0.51425373686E+02  0.25011810769E+02  0.10244772715E+03  0.11740174161E+03  0.41800000000E+01 0.  1.
         -5    1    3    3    0  502  0.32949724449E+02 -0.75123859919E+01 -0.15123423350E+02  0.37260040505E+02  0.41800000000E+01 0.  1.
        -11    1    1    2    0    0 -0.22257061316E+01 -0.52985344160E+02  0.77143868743E+02  0.93613978380E+02  0.00000000000E+00 0. -1.
         11    1    1    2    0    0  0.20701355369E+02  0.35485919382E+02  0.10749632745E+03  0.11507935090E+03  0.00000000000E+00 0.  1.
</event>
<event>
 7    1  0.2688177E-009  0.1071720E+03  0.7561462E-02  0.1265898E+00
         -1   -1    0    0    0  501 -0.00000000000E+00  0.00000000000E+00  0.10938636256E+02  0.10938636256E+02  0.00000000000E+00 0.  1.
          1   -1    0    0  501    0  0.00000000000E+00 -0.00000000000E+00 -0.13938877350E+04  0.13938877350E+04  0.00000000000E+00 0. -1.
         25    2    1    2    0    0 -0.22710913027E+02 -0.56533572696E+01 -0.11016048660E+04  0.11089312328E+04  0.12508977664E+03 0.  0.
          5    1    3    3  502    0 -0.50284781272E+02  0.43307866019E+02 -0.44883034869E+03  0.45372930784E+03  0.41800000000E+01 0. -1.
         -5    1    3    3    0  502  0.27573868245E+02 -0.48961223289E+02 -0.65277451734E+03  0.65520192497E+03  0.41800000000E+01 0. -1.
        -11    1    1    2    0    0  0.83273410688E+01 -0.41436045955E+02 -0.13831869863E+03  0.14463178387E+03  0.00000000000E+00 0.  1.
         11    1    1    2    0    0  0.14383571958E+02  0.47089403225E+02 -0.14302553404E+03  0.15126335453E+03  0.00000000000E+00 0. -1.
</event>
<event>
 7    1  0.2688177E-009  0.1712748E+03  0.7561462E-02  0.1176525E+00
          1   -1    0    0  501    0  0.00000000000E+00  0.00000000000E+00  0.16809679027E+03  0.16809679027E+03  0.00000000000E+00 0. -1.
         -1   -1    0    0    0  501 -0.00000000000E+00 -0.00000000000E+00 -0.22701441096E+03  0.22701441096E+03  0.00000000000E+00 0.  1.
         25    2    1    2    0    0  0.15238305882E+03  0.55022609170E+02 -0.26209733217E+02  0.20635819944E+03  0.12509465307E+03 0.  0.
          5    1    3    3  502    0  0.62187047580E+02  0.64334026064E+02  0.35761760418E+02  0.96449321950E+02  0.41800000000E+01 0.  1.
         -5    1    3    3    0  502  0.90196011243E+02 -0.93114168946E+01 -0.61971493635E+02  0.10990887749E+03  0.41800000000E+01 0.  1.
        -11    1    1    2    0    0 -0.44523364840E+02 -0.19910793034E+02  0.31837008080E+02  0.58244010674E+02  0.00000000000E+00 0. -1.
         11    1    1    2    0    0 -0.10785969398E+03 -0.35111816135E+02 -0.64544895550E+02  0.13050899111E+03  0.00000000000E+00 0.  1.
</event>
<event>
 7    1  0.2688177E-009  0.1106513E+03  0.7561462E-02  0.1259369E+00
         -2   -1    0    0    0  501 -0.00000000000E+00  0.00000000000E+00  0.85103108460E+02  0.85103108460E+02  0.00000000000E+00 0.  1.
          2   -1    0    0  501    0  0.00000000000E+00 -0.00000000000E+00 -0.26071338729E+03  0.26071338729E+03  0.00000000000E+00 0. -1.
         25    2    1    2    0    0  0.69433747499E+02 -0.65039199988E+01 -0.18080526108E+03  0.23064185439E+03  0.12506708717E+03 0.  0.
          5    1    3    3  502    0  0.51668502273E+02  0.34570902287E+02 -0.17445587779E+03  0.18524877087E+03  0.41800000000E+01 0.  1.
         -5    1    3    3    0  502  0.17765245226E+02 -0.41074822285E+02 -0.63493832954E+01  0.45393083525E+02  0.41800000000E+01 0.  1.
        -11    1    1    2    0    0 -0.47616693636E+02  0.47720358305E+02  0.10548610136E+02  0.68233828013E+02  0.00000000000E+00 0.  1.
         11    1    1    2    0    0 -0.21817053863E+02 -0.41216438306E+02 -0.53536278805E+01  0.46940813344E+02  0.00000000000E+00 0. -1.
</event>
<event>
 7    1  0.2688177E-009  0.1456767E+03  0.7561462E-02  0.1205888E+00
          1   -1    0    0  501    0  0.00000000000E+00  0.00000000000E+00  0.31724191649E+03  0.31724191649E+03  0.00000000000E+00 0. -1.
         -1   -1    0    0    0  501 -0.00000000000E+00 -0.00000000000E+00 -0.90560872209E+02  0.90560872209E+02  0.00000000000E+00 0.  1.
         25    2    1    2    0    0  0.12802695750E+03 -0.16047738459E+02  0.12311945588E+03  0.21783914652E+03  0.12508821522E+03 0.  0.
          5    1    3    3  502    0  0.61553470620E+02  0.17553465901E+02  0.12790239011E+03  0.14308545596E+03  0.41800000000E+01 0.  1.
         -5    1    3    3    0  502  0.66473486885E+02 -0.33601204360E+02 -0.47829342379E+01  0.74753690564E+02  0.41800000000E+01 0.  1.
        -11    1    1    2    0    0 -0.10576801266E+03 -0.22464199175E+02  0.46727639912E+02  0.11779212655E+03  0.00000000000E+00 0. -1.
         11    1    1    2    0    0 -0.22258944849E+02  0.38511937634E+02  0.56833948498E+02  0.72171515627E+02  0.00000000000E+00 0.  1.
</event>
<event>
 7    1  0.2688177E-009  0.1875177E+03  0.7561462E-02  0.1160719E+00
          1   -1    0    0  501    0  0.00000000000E+00  0.00000000000E+00  0.92217971175E+03  0.92217971175E+03  0.00000000000E+00 0. -1.
         -1   -1    0    0    0  501 -0.00000000000E+00 -0.00000000000E+00 -0.44739822343E+02  0.44739822343E+02  0.00000000000E+00 0.  1.
         25    2    1    2    0    0 -0.68309043086E+02 -0.15455759605E+03  0.52642607857E+03  0.56685403561E+03  0.12507959713E+03 0.  0.
          5    1    3    3  502    0 -0.54002428881E+02 -0.16007263201E+03  0.33929090314E+03  0.37904524690E+03  0.41800000000E+01 0.  1.
         -5    1    3    3    0  502 -0.14306614205E+02  0.55150359572E+01  0.18713517543E+03  0.18780878871E+03  0.41800000000E+01 0.  1.
        -11    1    1    2    0    0  0.75791038291E+02  0.63742772505E+02  0.20988106096E+03  0.23207214887E+03  0.00000000000E+00 0. -1.
         11    1    1    2    0    0 -0.74819952052E+01  0.90814823546E+02  0.14113274988E+03  0.16799334962E+03  0.00000000000E+00 0.  1.
</event>
<event>
 7    1  0.2688177E-009  0.1153070E+03  0.7561462E-02  0.1251046E+00
          2   -1    0    0  501    0  0.00000000000E+00  0.00000000000E+00  0.14066054631E+03  0.14066054631E+03  0.00000000000E+00 0. -1.
         -2   -1    0    0    0  501 -0.00000000000E+00 -0.00000000000E+00 -0.13211016456E+03  0.13211016456E+03  0.00000000000E+00 0.  1.
         25    2    1    2    0    0 -0.55373232415E+02 -0.37555711929E+02 -0.40387629014E+02  0.14749622730E+03  0.12508936855E+03 0.  0.
          5    1    3    3  502    0  0.35672110924E+02 -0.27303430833E+02  0.45833579402E+01  0.45348168684E+02  0.41800000000E+01 0.  1.
         -5    1    3    3    0  502 -0.91045343339E+02 -0.10252281097E+02 -0.44970986954E+02  0.10214805862E+03  0.41800000000E+01 0.  1.
        -11    1    1    2    0    0  0.23231611307E+02 -0.18141620625E+02 -0.16289968665E+02  0.33677726199E+02  0.00000000000E+00 0.  1.
         11    1    1    2    0    0  0.32141621108E+02  0.55697332554E+02  0.65227979424E+02  0.91596757371E+02  0.00000000000E+00 0. -1.
</event>
<event>
 7    1  0.2688177E-009  0.9251455E+02  0.7561462E-02  0.1296874E+00
         -1   -1    0    0    0  501 -0.00000000000E+00  0.00000000000E+00  0.12483603418E+03  0.12483603418E+03  0.00000000000E+00 0.  1.
          1   -1    0    0  501    0  0.00000000000E+00 -0.00000000000E+00 -0.14139778756E+03  0.14139778756E+03  0.00000000000E+00 0. -1.
         25    2    1    2    0    0 -0.22292053528E+00 -0.70222960268E+02 -0.37925934286E+02  0.14837854580E+03  0.12508598051E+03 0.  0.
          5    1    3    3  502    0  0.14405491518E+02 -0.19064787057E+02  0.44208157360E+02  0.50426360850E+02  0.41800000000E+01 0. -1.
         -5    1    3    3    0  502 -0.14628412054E+02 -0.51158173211E+02 -0.82134091646E+02  0.97952184947E+02  0.41800000000E+01 0. -1.
        -11    1    1    2    0    0  0.40220291297E+02  0.43779499267E+02  0.33710837937E+02  0.68342790274E+02  0.00000000000E+00 0.  1.
         11    1    1    2    0    0 -0.39997370761E+02  0.26443461002E+02 -0.12346657021E+02  0.49512485669E+02  0.00000000000E+00 0. -1.
</event>
<event>
 7    1  0.2688177E-009  0.8505218E+02  0.7561462E-02  0.1315296E+00
          1   -1    0    0  501    0  0.00000000000E+00  0.00000000000E+00  0.27843405128E+03  0.27843405128E+03  0.00000000000E+00 0. -1.
         -1   -1    0    0    0  501 -0.00000000000E+00 -0.00000000000E+00 -0.45665650059E+02  0.45665650059E+02  0.00000000000E+00 0.  1.
         25    2    1    2    0    0  0.23473660010E+02 -0.15650021401E+00  0.10174816105E+03  0.16293668719E+03  0.12507852953E+03 0.  0.
          5    1    3    3  502    0  0.18572605739E+02  0.36009705050E+02  0.11645031812E+03  0.12336851111E+03  0.41800000000E+01 0.  1.
         -5    1    3    3    0  502  0.49010542709E+01 -0.36166205264E+02 -0.14702157075E+02  0.39568176086E+02  0.41800000000E+01 0.  1.
        -11    1    1    2    0    0 -0.47022118475E+02  0.29119689022E+02  0.90558700352E+02  0.10611274251E+03  0.00000000000E+00 0.  1.
         11    1    1    2    0    0  0.23548458465E+02 -0.28963188808E+02  0.40461539822E+02  0.55050271632E+02  0.00000000000E+00 0. -1.
</event>
<event>
 7    1  0.2688177E-009  0.9763175E+02  0.7561462E-02  0.1285356E+00
         -4   -1    0    0    0  501 -0.00000000000E+00  0.00000000000E+00  0.62446810718E+03  0.62446810718E+03  0.00000000000E+00 0.  1.
          4   -1    0    0  501    0  0.00000000000E+00 -0.00000000000E+00 -0.22635512609E+02  0.22635512609E+02  0.00000000000E+00 0. -1.
         25    2    1    2    0    0  0.11348627695E+02  0.47258859973E+02  0.30935707210E+03  0.33721392227E+03  0.12509692289E+03 0.  0.
          5    1    3    3  502    0  0.33432560686E+01 -0.25619413882E+02  0.84911571750E+01  0.27515520692E+02  0.41800000000E+01 0. -1.
         -5    1    3    3    0  502  0.80053716267E+01  0.72878273855E+02  0.30086591492E+03  0.30969840158E+03  0.41800000000E+01 0. -1.
        -11    1    1    2    0    0 -0.43965806361E+02 -0.81241814990E+01  0.19319515549E+03  0.19830119152E+03  0.00000000000E+00 0.  1.
         11    1    1    2    0    0  0.32617178665E+02 -0.39134678474E+02  0.99280366979E+02  0.11158850600E+03  0.00000000000E+00 0. -1.
</event>
<event>
 7    1  0.2688177E-009  0.1132620E+03  0.7561462E-02  0.1254646E+00
         -3   -1    0    0    0  501 -0.00000000000E+00  0.00000000000E+00  0.94516648606E+03  0.94516648606E+03  0.00000000000E+00 0.  1.
          3   -1    0    0  501    0  0.00000000000E+00 -0.00000000000E+00 -0.18319027852E+02  0.18319027852E+02  0.00000000000E+00 0. -1.
         25    2    1    2    0    0  0.33166107151E+02  0.30662095668E+02  0.72972057976E+03  0.74174096693E+03  0.12508949885E+03 0.  0.
          5    1    3    3  502    0 -0.49167569021E+01  0.69919076917E+02  0.27923011797E+03  0.28792322413E+03  0.41800000000E+01 0.  1.
         -5    1    3    3    0  502  0.38082864053E+02 -0.39256981249E+02  0.45049046179E+03  0.45381774280E+03  0.41800000000E+01 0.  1.
        -11    1    1    2    0    0  0.26507208999E+02 -0.32267948014E+02  0.85811182151E+02  0.95432759471E+02  0.00000000000E+00 0. -1.
         11    1    1    2    0    0 -0.59673316150E+02  0.16058523465E+01  0.11131569630E+03  0.12631178751E+03  0.00000000000E+00 0.  1.
</event>
<event>
 7    1  0.2688177E-009  0.1181370E+03  0.7561462E-02  0.1246202E+00
          1   -1    0    0  501    0  0.00000000000E+00  0.00000000000E+00  0.83105089108E+03  0.83105089108E+03  0.00000000000E+00 0. -1.
         -1   -1    0    0    0  501 -0.00000000000E+00 -0.00000000000E+00 -0.18902440920E+02  0.18902440920E+02  0.00000000000E+00 0.  1.
         25    2    1    2    0    0 -0.57639536094E+02  0.23496623395E+02  0.46605943350E+03  0.48656282640E+03  0.12513025632E+03 0.  0.
          5    1    3    3  502    0 -0.36911247628E+01 -0.40986741275E+02  0.67145382682E+02  0.78863883862E+02  0.41800000000E+01 0. -1.
         -5    1    3    3    0  502 -0.53948411331E+02  0.64483364670E+02  0.39891405082E+03  0.40769894254E+03  0.41800000000E+01 0. -1.
        -11    1    1    2    0    0  0.30860303299E+02  0.34839728040E+02  0.15147434493E+03  0.15846337792E+03  0.00000000000E+00 0. -1.
         11    1    1    2    0    0  0.26779232795E+02 -0.58336351435E+02  0.19461467172E+03  0.20492712767E+03  0.00000000000E+00 0.  1.
</event>
<event>
 7    1  0.2688177E-009  0.9031730E+02  0.7561462E-02  0.1302085E+00
          2   -1    0    0  501    0  0.00000000000E+00  0.00000000000E+00  0.66710193733E+02  0.66710193733E+02  0.00000000000E+00 0. -1.
         -2   -1    0    0    0  501 -0.00000000000E+00 -0.00000000000E+00 -0.23855567111E+03  0.23855567111E+03  0.00000000000E+00 0.  1.
         25    2    1    2    0    0  0.27654214831E+01  0.15257518946E+02 -0.16875945296E+03  0.21063379644E+03  0.12508558590E+03 0.  0.
          5    1    3    3  502    0  0.30922438572E+02 -0.32894329401E+02 -0.16206956537E+02  0.48149475118E+02  0.41800000000E+01 0.  1.
         -5    1    3    3    0  502 -0.28157017089E+02  0.48151848347E+02 -0.15255249643E+03  0.16248432133E+03  0.41800000000E+01 0.  1.
        -11    1    1    2    0    0 -0.35642272782E+02 -0.26714233749E+02  0.23930314625E+02  0.50563641601E+02  0.00000000000E+00 0. -1.
         11    1    1    2    0    0  0.32876851299E+02  0.11456714802E+02 -0.27016339039E+02  0.44068426798E+02  0.00000000000E+00 0.  1.
</event>
<event>
 7    1  0.2688177E-009  0.1288680E+03  0.7561462E-02  0.1229145E+00
          1   -1    0    0  501    0  0.00000000000E+00  0.00000000000E+00  0.25295405251E+03  0.25295405251E+03  0.00000000000E+00 0.  1.
         -1   -1    0    0    0  501 -0.00000000000E+00 -0.00000000000E+00 -0.67682657119E+02  0.67682657119E+02  0.00000000000E+00 0. -1.
         25    2    1    2    0    0  0.28167914122E+02  0.66449639059E+02  0.86627723126E+02  0.16843334875E+03  0.12512571534E+03 0.  0.
          5    1    3    3  502    0  0.77081363840E+02  0.51570445958E+02  0.50412792974E+02  0.10564075749E+03  0.41800000000E+01 0.  1.
         -5    1    3    3    0  502 -0.48913449718E+02  0.14879193101E+02  0.36214930152E+02  0.62792591255E+02  0.41800000000E+01 0.  1.
        -11    1    1    2    0    0  0.70403554383E+01 -0.76629731857E+02  0.80296966085E+02  0.11121728810E+03  0.00000000000E+00 0.  1.
         11    1    1    2    0    0 -0.35208269561E+02  0.10180092798E+02  0.18346706183E+02  0.40986072788E+02  0.00000000000E+00 0. -1.
</event>
<event>
 7    1  0.2688177E-009  0.1424611E+03  0.7561462E-02  0.1210055E+00
          2   -1    0    0  501    0  0.00000000000E+00  0.00000000000E+00  0.34328495167E+03  0.34328495167E+03  0.00000000000E+00 0. -1.
         -2   -1    0    0    0  501 -0.00000000000E+00 -0.00000000000E+00 -0.11385662569E+03  0.11385662569E+03  0.00000000000E+00 0.  1.
         25    2    1    2    0    0 -0.11348711503E+03  0.51790663765E+02 -0.39779095849E+01  0.17670615616E+03  0.12509054213E+03 0.  0.
          5    1    3    3  502    0 -0.54416856429E+02  0.64663205917E+01  0.57880988144E+02  0.79816594478E+02  0.41800000000E+01 0.  1.
         -5    1    3    3    0  502 -0.59070258600E+02  0.45324343173E+02 -0.61858897728E+02  0.96889561684E+02  0.41800000000E+01 0.  1.
        -11    1    1    2    0    0  0.11102250203E+03 -0.77623397355E+01  0.17069884414E+03  0.20377523221E+03  0.00000000000E+00 0.  1.
         11    1    1    2    0    0  0.24646129984E+01 -0.44028324029E+02  0.62707391428E+02  0.76660188976E+02  0.00000000000E+00 0. -1.
</event>
<event>
 7    1  0.2688177E-009  0.1306753E+03  0.7561462E-02  0.1226457E+00
          4   -1    0    0  501    0  0.00000000000E+00  0.00000000000E+00  0.70810170563E+02  0.70810170563E+02  0.00000000000E+00 0. -1.
         -4   -1    0    0    0  501 -0.00000000000E+00 -0.00000000000E+00 -0.52235692130E+03  0.52235692130E+03  0.00000000000E+00 0.  1.
         25    2    1    2    0    0  0.10765820881E+03  0.34428170403E+02 -0.40925215874E+03  0.44261687199E+03  0.12508707804E+03 0.  0.
          5    1    3    3  502    0  0.71167876718E+02 -0.12998346711E+02 -0.35306938908E+03  0.36042931290E+03  0.41800000000E+01 0. -1.
         -5    1    3    3    0  502  0.36490332096E+02  0.47426517114E+02 -0.56182769660E+02  0.82187559087E+02  0.41800000000E+01 0. -1.
        -11    1    1    2    0    0  0.27248161485E+01 -0.16917729605E+02 -0.34493051278E+02  0.38514994282E+02  0.00000000000E+00 0.  1.
         11    1    1    2    0    0 -0.11038302496E+03 -0.17510440798E+02 -0.78015407226E+01  0.11203522560E+03  0.00000000000E+00 0. -1.
</event>
<event>
 7    1  0.2688177E-009  0.9748505E+02  0.7561462E-02  0.1285675E+00
         -1   -1    0    0    0  501 -0.00000000000E+00  0.00000000000E+00  0.16354074520E+03  0.16354074520E+03  0.00000000000E+00 0.  1.
          1   -1    0    0  501    0  0.00000000000E+00 -0.00000000000E+00 -0.82506853911E+02  0.82506853911E+02  0.00000000000E+00 0. -1.
         25    2    1    2    0    0 -0.29215964994E+02 -0.91982307212E+00  0.80422215772E+02  0.15155828691E+03  0.12509101829E+03 0.  0.
          5    1    3    3  502    0  0.27882682940E+01  0.59298171913E+02  0.30001556031E+02  0.66645430425E+02  0.41800000000E+01 0. -1.
         -5    1    3    3    0  502 -0.32004233288E+02 -0.60217994985E+02  0.50420659742E+02  0.84912856489E+02  0.41800000000E+01 0. -1.
        -11    1    1    2    0    0  0.20834075487E+02 -0.29201178910E+02  0.33520930622E+02  0.49096031825E+02  0.00000000000E+00 0.  1.
         11    1    1    2    0    0  0.83818895073E+01  0.30121001983E+02 -0.32909255100E+02  0.45393280377E+02  0.00000000000E+00 0. -1.
</event>
<event>
 7    1  0.2688177E-009  0.1100171E+03  0.7561462E-02  0.1260538E+00
         -1   -1    0    0    0  501 -0.00000000000E+00  0.00000000000E+00  0.39182362891E+02  0.39182362891E+02  0.00000000000E+00 0.  1.
          1   -1    0    0  501    0  0.00000000000E+00 -0.00000000000E+00 -0.48036204511E+03  0.48036204511E+03  0.00000000000E+00 0. -1.
         25    2    1    2    0    0 -0.74272178390E+02  0.23368245865E+02 -0.30489215536E+03  0.33862708857E+03  0.12508655930E+03 0.  0.
          5    1    3    3  502    0 -0.62410238619E+02 -0.39837913866E+02 -0.10459291562E+03  0.12821562956E+03  0.41800000000E+01 0. -1.
         -5    1    3    3    0  502 -0.11861939771E+02  0.63206159731E+02 -0.20029923974E+03  0.21041145901E+03  0.41800000000E+01 0. -1.
        -11    1    1    2    0    0  0.31408955800E+02 -0.22359496053E+02 -0.13236204210E+03  0.13786290203E+03  0.00000000000E+00 0. -1.
         11    1    1    2    0    0  0.42863222590E+02 -0.10087498123E+01 -0.39254847631E+01  0.43054417399E+02  0.00000000000E+00 0.  1.
</event>
<event>
 7    1  0.2688177E-009  0.1115929E+03  0.7561462E-02  0.1257648E+00
         -4   -1    0    0    0  501 -0.00000000000E+00  0.00000000000E+00  0.11456474539E+03  0.11456474539E+03  0.00000000000E+00 0.  1.
          4   -1    0    0  501    0  0.00000000000E+00 -0.00000000000E+00 -0.13839788511E+03  0.13839788511E+03  0.00000000000E+00 0. -1.
         25    2    1    2    0    0 -0.57087110640E+01  0.50666241339E+02  0.34319480674E+02  0.13937626523E+03  0.12509300205E+03 0.  0.
          5    1    3    3  502    0 -0.22135829521E-01 -0.41887539776E+02  0.75153796098E+01  0.42761195133E+02  0.41800000000E+01 0. -1.
         -5    1    3    3    0  502 -0.56865752344E+01  0.92553781115E+02  0.26804101064E+02  0.96615070100E+02  0.41800000000E+01 0. -1.
        -11    1    1    2    0    0  0.27009702737E+02  0.60538765942E+01  0.25798292490E+01  0.27799801847E+02  0.00000000000E+00 0.  1.
         11    1    1    2    0    0 -0.21300991673E+02 -0.56720117934E+02 -0.60732449637E+02  0.85786563421E+02  0.00000000000E+00 0. -1.
</event>
<event>
 7    1  0.2688177E-009  0.3076926E+03  0.7561462E-02  0.1081457E+00
          2   -1    0    0  501    0  0.00000000000E+00  0.00000000000E+00  0.27229016912E+03  0.27229016912E+03  0.00000000000E+00 0. -1.
         -2   -1    0    0    0  501 -0.00000000000E+00 -0.00000000000E+00 -0.42235120942E+03  0.42235120942E+03  0.00000000000E+00 0.  1.
         25    2    1    2    0    0 -0.28648196087E+02 -0.29371041028E+03 -0.20565274072E+03  0.38082409450E+03  0.12508963562E+03 0.  0.
          5    1    3    3  502    0 -0.49268987819E+02 -0.34887649432E+02 -0.45766387536E+02  0.75872365666E+02  0.41800000000E+01 0. -1.
         -5    1    3    3    0  502  0.20620791732E+02 -0.25882276085E+03 -0.15988635318E+03  0.30495172883E+03  0.41800000000E+01 0. -1.
        -11    1    1    2    0    0  0.13687731299E+02  0.17697491091E+03  0.78215944156E+02  0.19397218100E+03  0.00000000000E+00 0. -1.
         11    1    1    2    0    0  0.14960464788E+02  0.11673549937E+03 -0.22624243744E+02  0.11984510305E+03  0.00000000000E+00 0.  1.
</event>
<event>
 7    1  0.2744605E-009  0.8207534E+02  0.7561462E-02  0.1323263E+00
         -1   -1    0    0    0  501 -0.00000000000E+00  0.00000000000E+00  0.80067077685E+02  0.80067077685E+02  0.00000000000E+00 0.  1.
          1   -1    0    0  501    0  0.00000000000E+00 -0.00000000000E+00 -0.17705022968E+03  0.17705022968E+03  0.00000000000E+00 0. -1.
         25    2    1    2    0    0 -0.62345098521E+00  0.37969487048E+02 -0.21513614637E+02  0.13248518471E+03  0.12508963952E+03 0.  0.
          5    1    3    3  502    0  0.45408705501E+02 -0.21818022257E+02 -0.25874318876E+02  0.56788461925E+02  0.41800000000E+01 0.  1.
         -5    1    3    3    0  502 -0.46032156486E+02  0.59787509305E+02  0.43607042398E+01  0.75696722790E+02  0.41800000000E+01 0.  1.
        -11    1    1    2    0    0  0.13528234132E+01 -0.27586155011E+02 -0.96925923253E+02  0.10078422832E+03  0.00000000000E+00 0. -1.
         11    1    1    2    0    0 -0.72937242797E+00 -0.10383332037E+02  0.21456385896E+02  0.23847894331E+02  0.00000000000E+00 0.  1.
</event>
<event>
 7    1  0.2688177E-009  0.1094067E+03  0.7561462E-02  0.1261673E+00
          2   -1    0    0  501    0  0.00000000000E+00  0.00000000000E+00  0.18724421920E+04  0.18724421920E+04  0.00000000000E+00 0.  1.
         -2   -1    0    0    0  501 -0.00000000000E+00 -0.00000000000E+00 -0.82504417464E+01  0.82504417464E+01  0.00000000000E+00 0. -1.
         25    2    1    2    0    0  0.20242766909E+02  0.37680825686E+01  0.14629185946E+04  0.14684013228E+04  0.12509061684E+03 0.  0.
          5    1    3    3  502    0  0.72166619755E+02  0.36983030606E+01  0.98382882263E+03  0.98648787275E+03  0.41800000000E+01 0.  1.
         -5    1    3    3    0  502 -0.51923852846E+02  0.69779507997E-01  0.47908977195E+03  0.48191345006E+03  0.41800000000E+01 0.  1.
        -11    1    1    2    0    0  0.72981897803E+01  0.41072733160E+02  0.16029313934E+03  0.16563249531E+03  0.00000000000E+00 0. -1.
         11    1    1    2    0    0 -0.27540956689E+02 -0.44840815729E+02  0.24098001629E+03  0.24665881558E+03  0.00000000000E+00 0.  1.
</event>
<event>
 7    1  0.2688177E-009  0.8213313E+02  0.7561462E-02  0.1323105E+00
         -1   -1    0    0    0  501 -0.00000000000E+00  0.00000000000E+00  0.35589897945E+02  0.35589897945E+02  0.00000000000E+00 0.  1.
          1   -1    0    0  501    0  0.00000000000E+00 -0.00000000000E+00 -0.44794149510E+03  0.44794149510E+03  0.00000000000E+00 0. -1.
         25    2    1    2    0    0  0.14499458838E+02  0.26242479348E+01 -0.35192609917E+03  0.37378724135E+03  0.12509117288E+03 0.  0.
          5    1    3    3  502    0 -0.78219325858E+01  0.55525714417E+02 -0.94169447498E+02  0.10967973757E+03  0.41800000000E+01 0.  1.
         -5    1    3    3    0  502  0.22321391423E+02 -0.52901466482E+02 -0.25775665167E+03  0.26410750378E+03  0.41800000000E+01 0.  1.
        -11    1    1    2    0    0 -0.26432422210E+02 -0.17270887861E+02 -0.77871133973E+02  0.84028983200E+02  0.00000000000E+00 0. -1.
         11    1    1    2    0    0  0.11932963373E+02  0.14646639926E+02  0.17445635986E+02  0.25715168499E+02  0.00000000000E+00 0.  1.
</event>
<event>
 7    1  0.2688177E-009  0.1370167E+03  0.7561462E-02  0.1217401E+00
         -1   -1    0    0    0  501 -0.00000000000E+00  0.00000000000E+00  0.60134194783E+03  0.60134194783E+03  0.00000000000E+00 0.  1.
          1   -1    0    0  501    0  0.00000000000E+00 -0.00000000000E+00 -0.41413226914E+02  0.41413226914E+02  0.00000000000E+00 0. -1.
         25    2    1    2    0    0  0.85433390742E+02 -0.76009316567E+02  0.30228702512E+03  0.34655631068E+03  0.12509016933E+03 0.  0.
          5    1    3    3  502    0 -0.14763206963E+00 -0.35722648295E+02  0.72379938023E+01  0.36687741151E+02  0.41800000000E+01 0. -1.
         -5    1    3    3    0  502  0.85581022811E+02 -0.40286668272E+02  0.29504903131E+03  0.30986856953E+03  0.41800000000E+01 0. -1.
        -11    1    1    2    0    0 -0.49506475087E+02  0.91677307220E+02  0.21063724956E+03  0.23499717155E+03  0.00000000000E+00 0.  1.
         11    1    1    2    0    0 -0.35926915655E+02 -0.15667990653E+02  0.47004446238E+02  0.61201692507E+02  0.00000000000E+00 0. -1.
</event>
<event>
 7    1  0.3161110E-009  0.1213282E+03  0.7561462E-02  0.1240922E+00
         -1   -1    0    0    0  501 -0.00000000000E+00  0.00000000000E+00  0.62990236829E+02  0.62990236829E+02  0.00000000000E+00 0.  1.
          1   -1    0    0  501    0  0.00000000000E+00 -0.00000000000E+00 -0.32585566717E+03  0.32585566717E+03  0.00000000000E+00 0. -1.
         25    2    1    2    0    0 -0.38837006837E+02 -0.76245248400E+02 -0.19251183560E+03  0.24501241619E+03  0.12509446925E+03 0.  0.
          5    1    3    3  502    0 -0.14443576228E+02 -0.10636047557E+03 -0.16652357411E+03  0.19816341941E+03  0.41800000000E+01 0.  1.
         -5    1    3    3    0  502 -0.24393430609E+02  0.30115227167E+02 -0.25988261491E+02  0.46848996783E+02  0.41800000000E+01 0.  1.
        -11    1    1    2    0    0  0.12172297782E+02 -0.30929590524E+01  0.18116921683E+02  0.22044366180E+02  0.00000000000E+00 0.  1.
         11    1    1    2    0    0  0.26664709055E+02  0.79338207452E+02 -0.88470516415E+02  0.12178912162E+03  0.00000000000E+00 0. -1.
</event>
<event>
 7    1  0.2688177E-009  0.1016141E+03  0.7561462E-02  0.1276938E+00
         -2   -1    0    0    0  501 -0.00000000000E+00  0.00000000000E+00  0.22690095253E+02  0.22690095253E+02  0.00000000000E+00 0.  1.
          2   -1    0    0  501    0  0.00000000000E+00 -0.00000000000E+00 -0.96148057019E+03  0.96148057019E+03  0.00000000000E+00 0. -1.
         25    2    1    2    0    0  0.67471729673E+02  0.41205114843E+01 -0.74637390996E+03  0.75979678870E+03  0.12509090186E+03 0.  0.
          5    1    3    3  502    0  0.11415513621E+02  0.35636983644E+02 -0.63027210084E+02  0.73418050679E+02  0.41800000000E+01 0. -1.
         -5    1    3    3    0  502  0.56056216052E+02 -0.31516472160E+02 -0.68334669987E+03  0.68637873802E+03  0.41800000000E+01 0. -1.
        -11    1    1    2    0    0 -0.14269305182E+02 -0.36264992940E+02 -0.13222166436E+03  0.13784531660E+03  0.00000000000E+00 0. -1.
         11    1    1    2    0    0 -0.53202424490E+02  0.32144481455E+02 -0.60194900621E+02  0.86528560143E+02  0.00000000000E+00 0.  1.
</event>
<event>
 7    1  0.2688177E-009  0.1511129E+03  0.7561462E-02  0.1199112E+00
          1   -1    0    0  501    0  0.00000000000E+00  0.00000000000E+00  0.31845267006E+02  0.31845267006E+02  0.00000000000E+00 0. -1.
         -1   -1    0    0    0  501 -0.00000000000E+00 -0.00000000000E+00 -0.83415741870E+03  0.83415741870E+03  0.00000000000E+00 0.  1.
         25    2    1    2    0    0 -0.12035644341E+03 -0.94248420941E+01 -0.47600225339E+03  0.50675583753E+03  0.12509529375E+03 0.  0.
          5    1    3    3  502    0  0.15963779075E+02  0.27529636759E+02 -0.10305579512E+03  0.10793837339E+03  0.41800000000E+01 0.  1.
         -5    1    3    3    0  502 -0.13632022248E+03 -0.36954478853E+02 -0.37294645827E+03  0.39881746414E+03  0.41800000000E+01 0.  1.
        -11    1    1    2    0    0  0.66653101923E+02 -0.17270959922E+02 -0.26372784008E+03  0.27256796526E+03  0.00000000000E+00 0.  1.
         11    1    1    2    0    0  0.53703341486E+02  0.26695802016E+02 -0.62582058218E+02  0.86678882912E+02  0.00000000000E+00 0. -1.
</event>
<event>
 7    1  0.2688177E-009  0.1488270E+03  0.7561462E-02  0.1201922E+00
         -1   -1    0    0    0  501 -0.00000000000E+00  0.00000000000E+00  0.13179894405E+02  0.13179894405E+02  0.00000000000E+00 0.  1.
          1   -1    0    0  501    0  0.00000000000E+00 -0.00000000000E+00 -0.26269380929E+04  0.26269380929E+04  0.00000000000E+00 0. -1.
         25    2    1    2    0    0  0.10346585854E+03  0.74688832990E+01 -0.21556695145E+04  0.21617858018E+04  0.12508328931E+03 0.  0.
          5    1    3    3  502    0  0.90331059530E+01  0.55150883225E+02 -0.83606227294E+03  0.83793843065E+03  0.41800000000E+01 0. -1.
         -5    1    3    3    0  502  0.94432752589E+02 -0.47681999926E+02 -0.13196072415E+04  0.13238473712E+04  0.41800000000E+01 0. -1.
        -11    1    1    2    0    0 -0.11445282023E+03 -0.22976486938E+02 -0.36114891477E+03  0.37954697423E+03  0.00000000000E+00 0.  1.
         11    1    1    2    0    0  0.10986961683E+02  0.15507603638E+02 -0.96939769226E+02  0.98785211217E+02  0.00000000000E+00 0. -1.
</event>
<event>
 7    1  0.2688177E-009  0.1206218E+03  0.7561462E-02  0.1242075E+00
         -1   -1    0    0    0  501 -0.00000000000E+00  0.00000000000E+00  0.26738554871E+02  0.26738554871E+02  0.00000000000E+00 0.  1.
          1   -1    0    0  501    0  0.00000000000E+00 -0.00000000000E+00 -0.63349960272E+03  0.63349960272E+03  0.00000000000E+00 0. -1.
         25    2    1    2    0    0 -0.18593589629E+02 -0.60799740164E+02 -0.25356264016E+03  0.28979516203E+03  0.12507954856E+03 0.  0.
          5    1    3    3  502    0 -0.16190884302E+02  0.32369029610E+02 -0.12975320666E+03  0.13477116105E+03  0.41800000000E+01 0.  1.
         -5    1    3    3    0  502 -0.24027053270E+01 -0.93168769774E+02 -0.12380943350E+03  0.15502400097E+03  0.41800000000E+01 0.  1.
        -11    1    1    2    0    0  0.55839355317E+02  0.31372090890E+02 -0.21350084901E+03  0.22290099645E+03  0.00000000000E+00 0.  1.
         11    1    1    2    0    0 -0.37245765688E+02  0.29427649275E+02 -0.13969755868E+03  0.14754199912E+03  0.00000000000E+00 0. -1.
</event>
<event>
 7    1  0.2688177E-009  0.1038868E+03  0.7561462E-02  0.1272329E+00
         -3   -1    0    0    0  501 -0.00000000000E+00  0.00000000000E+00  0.64594628851E+02  0.64594628851E+02  0.00000000000E+00 0.  1.
          3   -1    0    0  501    0  0.00000000000E+00 -0.00000000000E+00 -0.27407458897E+03  0.27407458897E+03  0.00000000000E+00 0. -1.
         25    2    1    2    0    0 -0.23085946498E+02  0.69355594527E+02 -0.82352155250E+02  0.16665127738E+03  0.12509041275E+03 0.  0.
          5    1    3    3  502    0 -0.35302217644E+02  0.96892608740E+02 -0.88103314517E+02  0.13569852847E+03  0.41800000000E+01 0. -1.
         -5    1    3    3    0  502  0.12216271146E+02 -0.27537014214E+02  0.57511592667E+01  0.30952748915E+02  0.41800000000E+01 0. -1.
        -11    1    1    2    0    0  0.27394387213E+01 -0.27256062240E+02  0.83987445203E+01  0.28651987066E+02  0.00000000000E+00 0.  1.
         11    1    1    2    0    0  0.20346507777E+02 -0.42099532287E+02 -0.13552654939E+03  0.14336595338E+03  0.00000000000E+00 0. -1.
</event>
<event>
 7    1  0.2688177E-009  0.1309465E+03  0.7561462E-02  0.1226058E+00
          2   -1    0    0  501    0  0.00000000000E+00  0.00000000000E+00  0.47907998196E+03  0.47907998196E+03  0.00000000000E+00 0. -1.
         -2   -1    0    0    0  501 -0.00000000000E+00 -0.00000000000E+00 -0.39491796642E+02  0.39491796642E+02  0.00000000000E+00 0.  1.
         25    2    1    2    0    0 -0.59163624405E+02 -0.56810971186E+02  0.26770129206E+03  0.30665811730E+03  0.12508956088E+03 0.  0.
          5    1    3    3  502    0  0.36323211117E+02 -0.31538213443E+02  0.11525807026E+03  0.12496371367E+03  0.41800000000E+01 0.  1.
         -5    1    3    3    0  502 -0.95486835522E+02 -0.25272757743E+02  0.15244322179E+03  0.18169440364E+03  0.41800000000E+01 0.  1.
        -11    1    1    2    0    0  0.27780541542E+02  0.73943017142E+02  0.76152177829E+02  0.10972001850E+03  0.00000000000E+00 0.  1.
         11    1    1    2    0    0  0.31383082863E+02 -0.17132045956E+02  0.95734715435E+02  0.10219364280E+03  0.00000000000E+00 0. -1.
</event>
<event>
 7    1  0.2688177E-009  0.1067218E+03  0.7561462E-02  0.1266764E+00
         -3   -1    0    0    0  501 -0.00000000000E+00  0.00000000000E+00  0.77823606270E+03  0.77823606270E+03  0.00000000000E+00 0.  1.
          3   -1    0    0  501    0  0.00000000000E+00 -0.00000000000E+00 -0.26906603557E+02  0.26906603557E+02  0.00000000000E+00 0. -1.
         25    2    1    2    0    0 -0.67812469277E+01  0.92940755270E+02  0.46322893632E+03  0.48878462540E+03  0.12508154656E+03 0.  0.
          5    1    3    3  502    0  0.45817749128E+01  0.90826184319E+02  0.46710761789E+03  0.47589640418E+03  0.41800000000E+01 0. -1.
         -5    1    3    3    0  502 -0.11363021841E+02  0.21145709507E+01 -0.38786815710E+01  0.12888221226E+02  0.41800000000E+01 0. -1.
        -11    1    1    2    0    0  0.31208820461E+02 -0.33161390693E+02  0.42079882396E+02  0.62003103227E+02  0.00000000000E+00 0.  1.
         11    1    1    2    0    0 -0.24427573533E+02 -0.59779364577E+02  0.24602064043E+03  0.25435493763E+03  0.00000000000E+00 0. -1.
</event>
<event>
 7    1  0.2688177E-009  0.2553335E+03  0.7561462E-02  0.1109980E+00
          1   -1    0    0  501    0  0.00000000000E+00  0.00000000000E+00  0.39390062409E+03  0.39390062409E+03  0.00000000000E+00 0. -1.
         -1   -1    0    0    0  501 -0.00000000000E+00 -0.00000000000E+00 -0.25806483220E+03  0.25806483220E+03  0.00000000000E+00 0.  1.
         25    2    1    2    0    0 -0.17225446796E+03 -0.16476681177E+03 -0.11620112575E+03  0.29320924346E+03  0.12509698171E+03 0.  0.
          5    1    3    3  502    0  0.16807299566E+02 -0.26104418023E+02  0.38298069028E+00  0.31329619105E+02  0.41800000000E+01 0. -1.
         -5    1    3    3    0  502 -0.18906176752E+03 -0.13866239375E+03 -0.11658410644E+03  0.26187962436E+03  0.41800000000E+01 0. -1.
        -11    1    1    2    0    0  0.93619618655E+02  0.12654233495E+03  0.20803303479E+03  0.26087418250E+03  0.00000000000E+00 0. -1.
         11    1    1    2    0    0  0.78634849301E+02  0.38224476827E+02  0.44003882857E+02  0.97882030321E+02  0.00000000000E+00 0.  1.
</event>
<event>
 7    1  0.2688177E-009  0.2168477E+03  0.7561462E-02  0.1136255E+00
         -2   -1    0    0    0  501 -0.00000000000E+00  0.00000000000E+00  0.59630580995E+02  0.59630580995E+02  0.00000000000E+00 0.  1.
          2   -1    0    0  501    0  0.00000000000E+00 -0.00000000000E+00 -0.85337302563E+03  0.85337302563E+03  0.00000000000E+00 0. -1.
         25    2    1    2    0    0 -0.77634131730E+01 -0.19616827785E+03 -0.36563826773E+03  0.43345239032E+03  0.12508944010E+03 0.  0.
          5    1    3    3  502    0  0.43377986768E+02 -0.11160772817E+03 -0.12436038083E+03  0.17268732276E+03  0.41800000000E+01 0. -1.
         -5    1    3    3    0  502 -0.51141399941E+02 -0.84560549682E+02 -0.24127788690E+03  0.26076506755E+03  0.41800000000E+01 0. -1.
        -11    1    1    2    0    0  0.38778927952E+02  0.39848187750E+02 -0.90389217316E+02  0.10612207088E+03  0.00000000000E+00 0.  1.
         11    1    1    2    0    0 -0.31015514779E+02  0.15632009010E+03 -0.33771495959E+03  0.37342914543E+03  0.00000000000E+00 0. -1.
</event>
<event>
 7    1  0.2688177E-009  0.1311222E+03  0.7561462E-02  0.1225800E+00
         -1   -1    0    0    0  501 -0.00000000000E+00  0.00000000000E+00  0.10892509181E+04  0.10892509181E+04  0.00000000000E+00 0.  1.
          1   -1    0    0  501    0  0.00000000000E+00 -0.00000000000E+00 -0.22598400490E+02  0.22598400490E+02  0.00000000000E+00 0. -1.
         25    2    1    2    0    0 -0.75922592018E+02  0.34795997531E+02  0.83927989779E+03  0.85264815486E+03  0.12507248991E+03 0.  0.
          5    1    3    3  502    0 -0.44231526769E+02  0.80645230754E+02  0.59301229442E+03  0.60011760092E+03  0.41800000000E+01 0.  1.
         -5    1    3    3    0  502 -0.31691065249E+02 -0.45849233223E+02  0.24626760337E+03  0.25253055394E+03  0.41800000000E+01 0.  1.
        -11    1    1    2    0    0  0.30246707608E+02  0.24854717897E+02  0.13261914543E+03  0.13827674446E+03  0.00000000000E+00 0.  1.
         11    1    1    2    0    0  0.45675884410E+02 -0.59650715429E+02  0.94753474408E+02  0.12092441929E+03  0.00000000000E+00 0. -1.
</event>
<event>
 7    1  0.2688177E-009  0.1831660E+03  0.7561462E-02  0.1164774E+00
          1   -1    0    0  501    0  0.00000000000E+00  0.00000000000E+00  0.33815851767E+03  0.33815851767E+03  0.00000000000E+00 0. -1.
         -1   -1    0    0    0  501 -0.00000000000E+00 -0.00000000000E+00 -0.11912637885E+03  0.11912637885E+03  0.00000000000E+00 0.  1.
         25    2    1    2    0    0  0.16002873350E+03 -0.68727539392E+01  0.17638212636E+03  0.26909660056E+03  0.12508355463E+03 0.  0.
          5    1    3    3  502    0  0.64947179806E+01  0.40419001905E+02  0.24036083823E+02  0.47655878988E+02  0.41800000000E+01 0. -1.
         -5    1    3    3    0  502  0.15353401552E+03 -0.47291755844E+02  0.15234604254E+03  0.22144072157E+03  0.41800000000E+01 0. -1.
        -11    1    1    2    0    0 -0.68443570771E+02 -0.15543385354E+02  0.59975671631E+02  0.92321180646E+02  0.00000000000E+00 0.  1.
         11    1    1    2    0    0 -0.91585162728E+02  0.22416139293E+02 -0.17325659171E+02  0.95867115313E+02  0.00000000000E+00 0. -1.
</event>
<event>
 7    1  0.2688177E-009  0.1685667E+03  0.7561462E-02  0.1179351E+00
         -1   -1    0    0    0  501 -0.00000000000E+00  0.00000000000E+00  0.20559193056E+03  0.20559193056E+03  0.00000000000E+00 0.  1.
          1   -1    0    0  501    0  0.00000000000E+00 -0.00000000000E+00 -0.18630705645E+03  0.18630705645E+03  0.00000000000E+00 0. -1.
         25    2    1    2    0    0 -0.13891905967E+03 -0.83911708077E+02  0.15966184758E+02  0.20552817128E+03  0.12508888935E+03 0.  0.
          5    1    3    3  502    0 -0.11070778830E+03 -0.44181167687E+02 -0.44904331109E+02  0.12744434597E+03  0.41800000000E+01 0. -1.
         -5    1    3    3    0  502 -0.28211271373E+02 -0.39730540390E+02  0.60870515867E+02  0.78083825303E+02  0.41800000000E+01 0. -1.
        -11    1    1    2    0    0  0.33372157397E+02  0.45948201043E+02  0.38740208387E+02  0.68744031118E+02  0.00000000000E+00 0.  1.
         11    1    1    2    0    0  0.10554690227E+03  0.37963507034E+02 -0.35421519036E+02  0.11762678461E+03  0.00000000000E+00 0. -1.
</event>
<event>
 7    1  0.2688177E-009  0.1264201E+03  0.7561462E-02  0.1232866E+00
          1   -1    0    0  501    0  0.00000000000E+00  0.00000000000E+00  0.64838207712E+02  0.64838207712E+02  0.00000000000E+00 0. -1.
         -1   -1    0    0    0  501 -0.00000000000E+00 -0.00000000000E+00 -0.29940596427E+03  0.29940596427E+03  0.00000000000E+00 0.  1.
         25    2    1    2    0    0  0.83489739534E+02 -0.79975137114E+01 -0.98421026774E+02  0.17992031202E+03  0.12510045297E+03 0.  0.
          5    1    3    3  502    0  0.10659488481E+03 -0.66693892644E+01 -0.35304651195E+02  0.11256483029E+03  0.41800000000E+01 0. -1.
         -5    1    3    3    0  502 -0.23105145280E+02 -0.13281244470E+01 -0.63116375579E+02  0.67355481731E+02  0.41800000000E+01 0. -1.
        -11    1    1    2    0    0 -0.52202047150E+02  0.48501676232E+02 -0.63410528225E+02  0.95385331229E+02  0.00000000000E+00 0.  1.
         11    1    1    2    0    0 -0.31287692383E+02 -0.40504162521E+02 -0.72736201565E+02  0.88938528739E+02  0.00000000000E+00 0. -1.
</event>
<event>
 7    1  0.2688177E-009  0.1545106E+03  0.7561462E-02  0.1195037E+00
         -2   -1    0    0    0  501 -0.00000000000E+00  0.00000000000E+00  0.21849282864E+02  0.21849282864E+02  0.00000000000E+00 0. -1.
          2   -1    0    0  501    0  0.00000000000E+00 -0.00000000000E+00 -0.13093397507E+04  0.13093397507E+04  0.00000000000E+00 0.  1.
         25    2    1    2    0    0  0.48949090673E+02 -0.11178928981E+03 -0.73466941889E+03  0.75516883855E+03  0.12509180977E+03 0.  0.
          5    1    3    3  502    0  0.66721114927E+02 -0.52042714227E+02 -0.60860398026E+03  0.61447247983E+03  0.41800000000E+01 0. -1.
         -5    1    3    3    0  502 -0.17772024254E+02 -0.59746575582E+02 -0.12606543863E+03  0.14069635872E+03  0.41800000000E+01 0. -1.
        -11    1    1    2    0    0  0.24277580027E+02  0.77036890116E+02 -0.27492494049E+03  0.28654459729E+03  0.00000000000E+00 0.  1.
         11    1    1    2    0    0 -0.73226670700E+02  0.34752399693E+02 -0.27789610850E+03  0.28947559778E+03  0.00000000000E+00 0. -1.
</event>
<event>
 7    1  0.2688177E-009  0.1129556E+03  0.7561462E-02  0.1255192E+00
         -1   -1    0    0    0  501 -0.00000000000E+00  0.00000000000E+00  0.32803240377E+02  0.32803240377E+02  0.00000000000E+00 0.  1.
          1   -1    0    0  501    0  0.00000000000E+00 -0.00000000000E+00 -0.59628117316E+03  0.59628117316E+03  0.00000000000E+00 0. -1.
         25    2    1    2    0    0 -0.58369942407E+02 -0.28287818885E+02 -0.44142475383E+03  0.46336794193E+03  0.12508711142E+03 0.  0.
          5    1    3    3  502    0  0.27508791661E+02  0.10205414433E+02 -0.33593876043E+02  0.44798493390E+02  0.41800000000E+01 0.  1.
         -5    1    3    3    0  502 -0.85878734068E+02 -0.38493233317E+02 -0.40783087779E+03  0.41856944854E+03  0.41800000000E+01 0.  1.
        -11    1    1    2    0    0 -0.17201887912E+02  0.19478337011E+02 -0.55542006565E+01  0.26573665637E+02  0.00000000000E+00 0.  1.
         11    1    1    2    0    0  0.75571830319E+02  0.88094818733E+01 -0.11649897830E+03  0.13914280597E+03  0.00000000000E+00 0. -1.
</event>
<event>
 7    1  0.2688177E-009  0.1010027E+03  0.7561462E-02  0.1278201E+00
         -1   -1    0    0    0  501 -0.00000000000E+00  0.00000000000E+00  0.20471082816E+03  0.20471082816E+03  0.00000000000E+00 0.  1.
          1   -1    0    0  501    0  0.00000000000E+00 -0.00000000000E+00 -0.84045956819E+02  0.84045956819E+02  0.00000000000E+00 0. -1.
         25    2    1    2    0    0 -0.42443347263E+01  0.57852465430E+02  0.82980965442E+02  0.16093088388E+03  0.12509191271E+03 0.  0.
          5    1    3    3  502    0 -0.32175934783E+02 -0.29179070282E+02  0.12377290181E+02  0.45358335881E+02  0.41800000000E+01 0. -1.
         -5    1    3    3    0  502  0.27931600057E+02  0.87031535713E+02  0.70603675261E+02  0.11557254800E+03  0.41800000000E+01 0. -1.
        -11    1    1    2    0    0  0.11630763788E+02 -0.36853303704E+01  0.65403266162E+02  0.66531522986E+02  0.00000000000E+00 0.  1.
         11    1    1    2    0    0 -0.73864290613E+01 -0.54167135060E+02 -0.27719360263E+02  0.61294378113E+02  0.00000000000E+00 0. -1.
</event>
<event>
 7    1  0.2688177E-009  0.7383782E+02  0.7561462E-02  0.1347508E+00
         -1   -1    0    0    0  501 -0.00000000000E+00  0.00000000000E+00  0.36533323908E+03  0.36533323908E+03  0.00000000000E+00 0. -1.
          1   -1    0    0  501    0  0.00000000000E+00 -0.00000000000E+00 -0.39292976908E+02  0.39292976908E+02  0.00000000000E+00 0.  1.
         25    2    1    2    0    0 -0.42539391563E+02 -0.23811419020E+00  0.23063882061E+03  0.26580451698E+03  0.12509244239E+03 0.  0.
          5    1    3    3  502    0 -0.33765040121E+02  0.45565763216E+02  0.20433075279E+03  0.21209631220E+03  0.41800000000E+01 0. -1.
         -5    1    3    3    0  502 -0.87743514414E+01 -0.45803877406E+02  0.26308067814E+02  0.53708204781E+02  0.41800000000E+01 0. -1.
        -11    1    1    2    0    0  0.21679366672E+02 -0.54696911987E+01 -0.14607215983E+02  0.26707362653E+02  0.00000000000E+00 0.  1.
         11    1    1    2    0    0  0.20860024891E+02  0.57078053889E+01  0.11000865755E+03  0.11211433636E+03  0.00000000000E+00 0. -1.
</event>
<event>
 7    1  0.2688177E-009  0.1352591E+03  0.7561462E-02  0.1219854E+00
          2   -1    0    0  501    0  0.00000000000E+00  0.00000000000E+00  0.29750059928E+03  0.29750059928E+03  0.00000000000E+00 0. -1.
         -2   -1    0    0    0  501 -0.00000000000E+00 -0.00000000000E+00 -0.10273327173E+03  0.10273327173E+03  0.00000000000E+00 0.  1.
         25    2    1    2    0    0 -0.35126368977E+02  0.10035779685E+03  0.20343513559E+03  0.26142233200E+03  0.12510088764E+03 0.  0.
          5    1    3    3  502    0 -0.82238290609E+02  0.61856723422E+02  0.12137728632E+03  0.15918325512E+03  0.41800000000E+01 0. -1.
         -5    1    3    3    0  502  0.47111921632E+02  0.38501073429E+02  0.82057849270E+02  0.10223907688E+03  0.41800000000E+01 0. -1.
        -11    1    1    2    0    0  0.12593078596E+02 -0.46156821070E+02 -0.48301261012E+02  0.67985657128E+02  0.00000000000E+00 0.  1.
         11    1    1    2    0    0  0.22533290381E+02 -0.54200975781E+02  0.39633452972E+02  0.70825881890E+02  0.00000000000E+00 0. -1.
</event>
<event>
 7    1  0.2688177E-009  0.1343308E+03  0.7561462E-02  0.1221168E+00
          1   -1    0    0  501    0  0.00000000000E+00  0.00000000000E+00  0.38331042417E+03  0.38331042417E+03  0.00000000000E+00 0. -1.
         -1   -1    0    0    0  501 -0.00000000000E+00 -0.00000000000E+00 -0.67199232740E+02  0.67199232740E+02  0.00000000000E+00 0.  1.
         25    2    1    2    0    0  0.69399374618E+02 -0.95509819067E+02  0.15796875881E+03  0.23353858737E+03  0.12509094409E+03 0.  0.
          5    1    3    3  502    0  0.47412460205E+01 -0.18631418533E+02 -0.20678597077E+02  0.28542703927E+02  0.41800000000E+01 0. -1.
         -5    1    3    3    0  502  0.64658128597E+02 -0.76878400534E+02  0.17864735588E+03  0.20499588344E+03  0.41800000000E+01 0. -1.
        -11    1    1    2    0    0  0.90504101426E+01 -0.12203235725E+02  0.18744350265E+02  0.24128397227E+02  0.00000000000E+00 0. -1.
         11    1    1    2    0    0 -0.78449784760E+02  0.10771305479E+03  0.13939808236E+03  0.19284267232E+03  0.00000000000E+00 0.  1.
</event>
<event>
 7    1  0.2688177E-009  0.1277612E+03  0.7561462E-02  0.1230816E+00
         -2   -1    0    0    0  501 -0.00000000000E+00  0.00000000000E+00  0.35212020330E+02  0.35212020330E+02  0.00000000000E+00 0.  1.
          2   -1    0    0  501    0  0.00000000000E+00 -0.00000000000E+00 -0.48374637648E+03  0.48374637648E+03  0.00000000000E+00 0. -1.
         25    2    1    2    0    0  0.69899851982E+02 -0.72050178231E+01 -0.25649639006E+03  0.29389735087E+03  0.12508938063E+03 0.  0.
          5    1    3    3  502    0  0.44543105667E+02 -0.65209382296E+02 -0.12533444845E+03  0.14819766588E+03  0.41800000000E+01 0.  1.
         -5    1    3    3    0  502  0.25356746316E+02  0.58004364472E+02 -0.13116194160E+03  0.14569968499E+03  0.41800000000E+01 0.  1.
        -11    1    1    2    0    0  0.15255718389E+02  0.21793579258E+02 -0.22760065206E+02  0.35010250051E+02  0.00000000000E+00 0.  1.
         11    1    1    2    0    0 -0.85155570372E+02 -0.14588561435E+02 -0.16927790089E+03  0.19005079589E+03  0.00000000000E+00 0. -1.
</event>
<event>
 7    1  0.2688177E-009  0.1386878E+03  0.7561462E-02  0.1215106E+00
          1   -1    0    0  501    0  0.00000000000E+00  0.00000000000E+00  0.12636407831E+03  0.12636407831E+03  0.00000000000E+00 0. -1.
         -1   -1    0    0    0  501 -0.00000000000E+00 -0.00000000000E+00 -0.21664153863E+03  0.21664153863E+03  0.00000000000E+00 0.  1.
         25    2    1    2    0    0  0.96790022135E+02 -0.64645385586E+02 -0.82355655425E+00  0.17087327498E+03  0.12509861548E+03 0.  0.
          5    1    3    3  502    0  0.11960192493E+03 -0.39971515688E+02 -0.25814732412E+02  0.12878748123E+03  0.41800000000E+01 0. -1.
         -5    1    3    3    0  502 -0.22811902794E+02 -0.24673869898E+02  0.24991175858E+02  0.42085793751E+02  0.41800000000E+01 0. -1.
        -11    1    1    2    0    0 -0.73856012195E+02  0.56547179649E+02 -0.10727030992E+03  0.14198314496E+03  0.00000000000E+00 0.  1.
         11    1    1    2    0    0 -0.22934009940E+02  0.80982059374E+01  0.17816406151E+02  0.30149196995E+02  0.00000000000E+00 0. -1.
</event>
<event>
 6    1  0.2688177E-009  0.1059151E+03  0.7561462E-02  0.1268327E+00
         -1   -1    0    0    0  501 -0.00000000000E+00  0.00000000000E+00  0.47159448372E+02  0.47159448372E+02  0.00000000000E+00 0.  1.
          1   -1    0    0  501    0  0.00000000000E+00 -0.00000000000E+00 -0.36758081342E+03  0.36758081342E+03  0.00000000000E+00 0. -1.
          5    1    1    2  502    0  0.63679067848E+02  0.10516744274E+02 -0.12348240743E+02  0.65845098842E+02  0.41800000000E+01 0. -1.
         -5    1    1    2    0  502 -0.19007105955E+02  0.40421819022E+02 -0.12157227279E+03  0.12958581497E+03  0.41800000000E+01 0. -1.
        -11    1    1    2    0    0 -0.60468441838E+02 -0.59062894877E+02 -0.99699248190E+02  0.13070882946E+03  0.00000000000E+00 0.  1.
         11    1    1    2    0    0  0.15796479945E+02  0.81243315812E+01 -0.86801603327E+02  0.88600518522E+02  0.00000000000E+00 0. -1.
</event>
<event>
 7    1  0.2688177E-009  0.7336675E+02  0.7561462E-02  0.1349005E+00
          1   -1    0    0  501    0  0.00000000000E+00  0.00000000000E+00  0.28169776373E+03  0.28169776373E+03  0.00000000000E+00 0. -1.
         -1   -1    0    0    0  501 -0.00000000000E+00 -0.00000000000E+00 -0.54301297851E+02  0.54301297851E+02  0.00000000000E+00 0.  1.
         25    2    1    2    0    0  0.34401876064E+01 -0.10025279632E+02  0.50598950235E+02  0.13535339900E+03  0.12509175726E+03 0.  0.
          5    1    3    3  502    0 -0.15790298365E+02 -0.37206387118E+02 -0.28364881060E+02  0.49554895241E+02  0.41800000000E+01 0.  1.
         -5    1    3    3    0  502  0.19230485972E+02  0.27181107486E+02  0.78963831295E+02  0.85798503761E+02  0.41800000000E+01 0.  1.
        -11    1    1    2    0    0 -0.24592730316E+02  0.33102053936E+02  0.31172723975E+02  0.51694168716E+02  0.00000000000E+00 0.  1.
         11    1    1    2    0    0  0.21152542710E+02 -0.23076774304E+02  0.14562479167E+03  0.14895149386E+03  0.00000000000E+00 0. -1.
</event>
<event>
 7    1  0.2688177E-009  0.1498273E+03  0.7561462E-02  0.1200685E+00
         -1   -1    0    0    0  501 -0.00000000000E+00  0.00000000000E+00  0.18644905846E+03  0.18644905846E+03  0.00000000000E+00 0.  1.
          1   -1    0    0  501    0  0.00000000000E+00 -0.00000000000E+00 -0.14525723668E+03  0.14525723668E+03  0.00000000000E+00 0. -1.
         25    2    1    2    0    0  0.12286882694E+03  0.14054888166E+02  0.10124683698E+02  0.17619383407E+03  0.12508984543E+03 0.  0.
          5    1    3    3  502    0  0.26277071544E+02  0.62355109769E+02  0.55480737530E+01  0.68021303469E+02  0.41800000000E+01 0.  1.
         -5    1    3    3    0  502  0.96591755399E+02 -0.48300221603E+02  0.45766099453E+01  0.10817253060E+03  0.41800000000E+01 0.  1.
        -11    1    1    2    0    0 -0.30306672986E+02 -0.57811745118E+01  0.51804041140E+02  0.60295730235E+02  0.00000000000E+00 0.  1.
         11    1    1    2    0    0 -0.92562153956E+02 -0.82737136543E+01 -0.20736903055E+02  0.95216730836E+02  0.00000000000E+00 0. -1.
</event>
<event>
 7    1  0.2688177E-009  0.6101876E+02  0.7561462E-02  0.1393606E+00
          2   -1    0    0  501    0  0.00000000000E+00  0.00000000000E+00  0.18021854773E+02  0.18021854773E+02  0.00000000000E+00 0. -1.
         -2   -1    0    0    0  501 -0.00000000000E+00 -0.00000000000E+00 -0.10705682842E+04  0.10705682842E+04  0.00000000000E+00 0.  1.
         25    2    1    2    0    0  0.19852161424E+02 -0.28119134645E+02 -0.84617447908E+03  0.85606278942E+03  0.12508979310E+03 0.  0.
          5    1    3    3  502    0  0.23741749761E+02  0.88193714169E+01 -0.31966481842E+02  0.40997321318E+02  0.41800000000E+01 0. -1.
         -5    1    3    3    0  502 -0.38895883366E+01 -0.36938506062E+02 -0.81420799724E+03  0.81506546811E+03  0.41800000000E+01 0. -1.
        -11    1    1    2    0    0 -0.33842883792E+02  0.29548562775E+02 -0.21249221205E+03  0.21718977537E+03  0.00000000000E+00 0.  1.
         11    1    1    2    0    0  0.13990722368E+02 -0.14294281297E+01  0.61202617302E+01  0.15337574150E+02  0.00000000000E+00 0. -1.
</event>
<event>
 7    1  0.2883848E-009  0.1701580E+03  0.7561462E-02  0.1177683E+00
          1   -1    0    0  501    0  0.00000000000E+00  0.00000000000E+00  0.48819753471E+03  0.48819753471E+03  0.00000000000E+00 0. -1.
         -1   -1    0    0    0  501 -0.00000000000E+00 -0.00000000000E+00 -0.81775420298E+02  0.81775420298E+02  0.00000000000E+00 0.  1.
         25    2    1    2    0    0 -0.13190928606E+03  0.18770680684E+02  0.35684423096E+03  0.40092091683E+03  0.12508948068E+03 0.  0.
          5    1    3    3  502    0 -0.30817017049E+02 -0.49029284040E+02  0.83846345951E+02  0.10198647637E+03  0.41800000000E+01 0.  1.
         -5    1    3    3    0  502 -0.10109226901E+03  0.67799964724E+02  0.27299788501E+03  0.29893444046E+03  0.41800000000E+01 0.  1.
        -11    1    1    2    0    0  0.83410540727E+02 -0.55010851866E+02  0.20988704380E+02  0.10209817745E+03  0.00000000000E+00 0. -1.
         11    1    1    2    0    0  0.48498745336E+02  0.36240171182E+02  0.28589179070E+02  0.66953860728E+02  0.00000000000E+00 0.  1.
</event>
<event>
 7    1  0.2688177E-009  0.1819058E+03  0.7561462E-02  0.1165971E+00
         -2   -1    0    0    0  501 -0.00000000000E+00  0.00000000000E+00  0.37823734743E+02  0.37823734743E+02  0.00000000000E+00 0.  1.
          2   -1    0    0  501    0  0.00000000000E+00 -0.00000000000E+00 -0.11451988152E+04  0.11451988152E+04  0.00000000000E+00 0. -1.
         25    2    1    2    0    0  0.10022054851E+03  0.14360963202E+03 -0.67032249012E+03  0.70402272617E+03  0.12509146036E+03 0.  0.
          5    1    3    3  502    0  0.90741686912E+02  0.11534595098E+03 -0.65297887935E+03  0.66928142916E+03  0.41800000000E+01 0.  1.
         -5    1    3    3    0  502  0.94788616003E+01  0.28263681039E+02 -0.17343610770E+02  0.34741297005E+02  0.41800000000E+01 0.  1.
        -11    1    1    2    0    0 -0.80272378992E+02 -0.58123327944E+02 -0.15841581829E+03  0.18686237600E+03  0.00000000000E+00 0.  1.
         11    1    1    2    0    0 -0.19948169521E+02 -0.85486304078E+02 -0.27863677206E+03  0.29213744778E+03  0.00000000000E+00 0. -1.
</event>
<event>
 7    1  0.2688177E-009  0.1898751E+03  0.7561462E-02  0.1158574E+00
         -2   -1    0    0    0  501 -0.00000000000E+00  0.00000000000E+00  0.23374172432E+03  0.23374172432E+03  0.00000000000E+00 0.  1.
          2   -1    0    0  501    0  0.00000000000E+00 -0.00000000000E+00 -0.19110475830E+03  0.19110475830E+03  0.00000000000E+00 0. -1.
         25    2    1    2    0    0 -0.15632359180E+03 -0.89893060388E+02  0.35223138690E+02  0.22227880287E+03  0.12509743822E+03 0.  0.
          5    1    3    3  502    0 -0.12497352614E+03 -0.84731472707E+02  0.77068345780E+02  0.16957242413E+03  0.41800000000E+01 0.  1.
         -5    1    3    3    0  502 -0.31350065653E+02 -0.51615876810E+01 -0.41845207090E+02  0.52706378743E+02  0.41800000000E+01 0.  1.
        -11    1    1    2    0    0  0.20613874049E+02 -0.14700153367E+02 -0.15526758892E+02  0.29700278685E+02  0.00000000000E+00 0.  1.
         11    1    1    2    0    0  0.13570971775E+03  0.10459321376E+03  0.22940586220E+02  0.17286740106E+03  0.00000000000E+00 0. -1.
</event>
<event>
 7    1  0.2688177E-009  0.1050449E+03  0.7561462E-02  0.1270031E+00
          1   -1    0    0  501    0  0.00000000000E+00  0.00000000000E+00  0.33343384335E+03  0.33343384335E+03  0.00000000000E+00 0. -1.
         -1   -1    0    0    0  501 -0.00000000000E+00 -0.00000000000E+00 -0.48832881683E+02  0.48832881683E+02  0.00000000000E+00 0.  1.
         25    2    1    2    0    0 -0.23639217941E+02 -0.37240137594E+02  0.83359442528E+02  0.15666359990E+03  0.12509614863E+03 0.  0.
          5    1    3    3  502    0  0.26879612161E+02  0.35004579405E+02  0.25692944752E+02  0.51238988469E+02  0.41800000000E+01 0.  1.
         -5    1    3    3    0  502 -0.50518830102E+02 -0.72244717000E+02  0.57666497776E+02  0.10542461143E+03  0.41800000000E+01 0.  1.
        -11    1    1    2    0    0 -0.21962170576E+02  0.16149678719E+02  0.11963459727E+02  0.29770344771E+02  0.00000000000E+00 0.  1.
         11    1    1    2    0    0  0.45601388517E+02  0.21090458876E+02  0.18927805941E+03  0.19583278036E+03  0.00000000000E+00 0. -1.
</event>
<event>
 7    1  0.2688177E-009  0.1907604E+03  0.7561462E-02  0.1157777E+00
         -1   -1    0    0    0  501 -0.00000000000E+00  0.00000000000E+00  0.80732688950E+02  0.80732688950E+02  0.00000000000E+00 0.  1.
          1   -1    0    0  501    0  0.00000000000E+00 -0.00000000000E+00 -0.51993971009E+03  0.51993971009E+03  0.00000000000E+00 0. -1.
         25    2    1    2    0    0  0.16364016099E+03 -0.43614235951E+02 -0.17919965726E+03  0.27647949806E+03  0.12509233317E+03 0.  0.
          5    1    3    3  502    0  0.36424705909E+02  0.24774988764E+02  0.25124097710E+01  0.44320919120E+02  0.41800000000E+01 0. -1.
         -5    1    3    3    0  502  0.12721545508E+03 -0.68389224715E+02 -0.18171206703E+03  0.23215857894E+03  0.41800000000E+01 0. -1.
        -11    1    1    2    0    0 -0.13299837226E+03  0.71802213374E+02 -0.21581040278E+03  0.26347344234E+03  0.00000000000E+00 0. -1.
         11    1    1    2    0    0 -0.30641788728E+02 -0.28187977423E+02 -0.44196961098E+02  0.60719458643E+02  0.00000000000E+00 0.  1.
</event>
<event>
 7    1  0.3085147E-009  0.1108208E+03  0.7561462E-02  0.1259057E+00
          2   -1    0    0  501    0  0.00000000000E+00  0.00000000000E+00  0.22886951919E+03  0.22886951919E+03  0.00000000000E+00 0. -1.
         -2   -1    0    0    0  501 -0.00000000000E+00 -0.00000000000E+00 -0.98610416144E+02  0.98610416144E+02  0.00000000000E+00 0.  1.
         25    2    1    2    0    0 -0.84000141068E+02 -0.40652423681E+02  0.21608466063E+02  0.15755285064E+03  0.12508929487E+03 0.  0.
          5    1    3    3  502    0 -0.55964266906E+02 -0.44688775971E+02 -0.45252392159E+02  0.84819439189E+02  0.41800000000E+01 0.  1.
         -5    1    3    3    0  502 -0.28035874163E+02  0.40363522906E+01  0.66860858222E+02  0.72733411456E+02  0.41800000000E+01 0.  1.
        -11    1    1    2    0    0  0.80490119589E+02  0.60766340242E+02  0.60453086841E+02  0.11758309048E+03  0.00000000000E+00 0.  1.
         11    1    1    2    0    0  0.35100214791E+01 -0.20113916561E+02  0.48197550147E+02  0.52343994215E+02  0.00000000000E+00 0. -1.
</event>
<event>
 7    1  0.2688177E-009  0.1131611E+03  0.7561462E-02  0.1254826E+00
          2   -1    0    0  501    0  0.00000000000E+00  0.00000000000E+00  0.54073340731E+03  0.54073340731E+03  0.00000000000E+00 0. -1.
         -2   -1    0    0    0  501 -0.00000000000E+00 -0.00000000000E+00 -0.64150584911E+02  0.64150584911E+02  0.00000000000E+00 0.  1.
         25    2    1    2    0    0  0.62487393760E+02  0.76627884262E+02  0.43506555489E+03  0.46336390020E+03  0.12509020717E+03 0.  0.
          5    1    3    3  502    0  0.28569531725E+02  0.43496761564E+02  0.40207583168E+03  0.40545114777E+03  0.41800000000E+01 0. -1.
         -5    1    3    3    0  502  0.33917862035E+02  0.33131122698E+02  0.32989723213E+02  0.57912752429E+02  0.41800000000E+01 0. -1.
        -11    1    1    2    0    0 -0.13428476071E+02 -0.76283329498E+02  0.32023862581E+00  0.77456909838E+02  0.00000000000E+00 0.  1.
         11    1    1    2    0    0 -0.49058917690E+02 -0.34455476351E+00  0.41197028888E+02  0.64063182188E+02  0.00000000000E+00 0. -1.
</event>
<event>
 7    1  0.2688177E-009  0.1334392E+03  0.7561462E-02  0.1222440E+00
         -3   -1    0    0    0  501 -0.00000000000E+00  0.00000000000E+00  0.13096456044E+03  0.13096456044E+03  0.00000000000E+00 0.  1.
          3   -1    0    0  501    0  0.00000000000E+00 -0.00000000000E+00 -0.15540442681E+03  0.15540442681E+03  0.00000000000E+00 0. -1.
         25    2    1    2    0    0 -0.88300480496E+02 -0.26985476614E+02 -0.17522684233E+02  0.15646227468E+03  0.12509279807E+03 0.  0.
          5    1    3    3  502    0  0.25493033919E+02 -0.93867488949E+01  0.21409692367E+02  0.34840395526E+02  0.41800000000E+01 0.  1.
         -5    1    3    3    0  502 -0.11379351441E+03 -0.17598727719E+02 -0.38932376600E+02  0.12162187915E+03  0.41800000000E+01 0.  1.
        -11    1    1    2    0    0  0.59265114676E+02  0.57129110278E+02 -0.22352691920E+02  0.85297900881E+02  0.00000000000E+00 0. -1.
         11    1    1    2    0    0  0.29035365821E+02 -0.30143633664E+02  0.15435509780E+02  0.44608811696E+02  0.00000000000E+00 0.  1.
</event>
<event>
 7    1  0.2688177E-009  0.8537520E+02  0.7561462E-02  0.1314454E+00
          1   -1    0    0  501    0  0.00000000000E+00  0.00000000000E+00  0.51074153391E+02  0.51074153391E+02  0.00000000000E+00 0. -1.
         -1   -1    0    0    0  501 -0.00000000000E+00 -0.00000000000E+00 -0.28142831886E+03  0.28142831886E+03  0.00000000000E+00 0.  1.
         25    2    1    2    0    0  0.36468390273E+02 -0.30210437557E+02 -0.13530887971E+03  0.19026057580E+03  0.12509188523E+03 0.  0.
          5    1    3    3  502    0  0.46817409610E+02 -0.20312424959E+02 -0.15631962804E+03  0.16449244044E+03  0.41800000000E+01 0.  1.
         -5    1    3    3    0  502 -0.10349019337E+02 -0.98980125981E+01  0.21010748332E+02  0.25768135363E+02  0.41800000000E+01 0.  1.
        -11    1    1    2    0    0 -0.30506519913E+02 -0.30785815754E+02 -0.50073436920E+02  0.66225095650E+02  0.00000000000E+00 0.  1.
         11    1    1    2    0    0 -0.59618703601E+01  0.60996253311E+02 -0.44971848841E+02  0.76016800803E+02  0.00000000000E+00 0. -1.
</event>
<event>
 7    1  0.2688177E-009  0.1156147E+03  0.7561462E-02  0.1250512E+00
         -1   -1    0    0    0  501 -0.00000000000E+00  0.00000000000E+00  0.28969508031E+03  0.28969508031E+03  0.00000000000E+00 0.  1.
          1   -1    0    0  501    0  0.00000000000E+00 -0.00000000000E+00 -0.51268852813E+02  0.51268852813E+02  0.00000000000E+00 0. -1.
         25    2    1    2    0    0 -0.12614307880E+02 -0.51190315046E+02  0.11252412073E+03  0.17631883673E+03  0.12508831009E+03 0.  0.
          5    1    3    3  502    0 -0.60781729354E+02 -0.98051295697E+01  0.89350880226E+02  0.10858918632E+03  0.41800000000E+01 0.  1.
         -5    1    3    3    0  502  0.48167421474E+02 -0.41385185477E+02  0.23173240505E+02  0.67729650404E+02  0.41800000000E+01 0.  1.
        -11    1    1    2    0    0  0.16333320777E+02 -0.24855308805E+02  0.40238190331E+02  0.50036743544E+02  0.00000000000E+00 0.  1.
         11    1    1    2    0    0 -0.37190128974E+01  0.76045623852E+02  0.85663916436E+02  0.11460835285E+03  0.00000000000E+00 0. -1.
</event>
<event>
 7    1  0.2688177E-009  0.9069838E+02  0.7561462E-02  0.1301169E+00
         -2   -1    0    0    0  501 -0.00000000000E+00  0.00000000000E+00  0.17275193419E+02  0.17275193419E+02  0.00000000000E+00 0.  1.
          2   -1    0    0  501    0  0.00000000000E+00 -0.00000000000E+00 -0.92131028344E+03  0.92131028344E+03  0.00000000000E+00 0. -1.
         25    2    1    2    0    0  0.42164736892E+02 -0.22707946262E+02 -0.66955010038E+03  0.68281670531E+03  0.12509116784E+03 0.  0.
          5    1    3    3  502    0  0.73835777448E+02 -0.32254851912E+02 -0.26791267340E+03  0.27979773136E+03  0.41800000000E+01 0.  1.
         -5    1    3    3    0  502 -0.31671040555E+02  0.95469056508E+01 -0.40163742698E+03  0.40301897395E+03  0.41800000000E+01 0.  1.
        -11    1    1    2    0    0  0.10178758226E+02  0.81593371460E+01  0.19340156900E+01  0.13187961115E+02  0.00000000000E+00 0.  1.
         11    1    1    2    0    0 -0.52343495119E+02  0.14548609116E+02 -0.23641900533E+03  0.24258081043E+03  0.00000000000E+00 0. -1.
</event>
<event>
 7    1  0.2688177E-009  0.7176378E+02  0.7561462E-02  0.1354196E+00
          4   -1    0    0  501    0  0.00000000000E+00  0.00000000000E+00  0.65465572542E+02  0.65465572542E+02  0.00000000000E+00 0. -1.
         -4   -1    0    0    0  501 -0.00000000000E+00 -0.00000000000E+00 -0.25506712584E+03  0.25506712584E+03  0.00000000000E+00 0.  1.
         25    2    1    2    0    0 -0.63103405497E+02  0.31244859814E+02 -0.10900768732E+03  0.18024551080E+03  0.12508991653E+03 0.  0.
          5    1    3    3  502    0 -0.56633805651E+02  0.23114468003E+02 -0.13700114094E+03  0.15009480868E+03  0.41800000000E+01 0.  1.
         -5    1    3    3    0  502 -0.64695998467E+01  0.81303918115E+01  0.27993453614E+02  0.30150702122E+02  0.41800000000E+01 0.  1.
        -11    1    1    2    0    0  0.18448900054E+02 -0.13950499688E+02 -0.88746993151E+02  0.91711543156E+02  0.00000000000E+00 0.  1.
         11    1    1    2    0    0  0.44654505443E+02 -0.17294360127E+02  0.81531271773E+01  0.48575644425E+02  0.00000000000E+00 0. -1.
</event>
<event>
 7    1  0.2688177E-009  0.1400349E+03  0.7561462E-02  0.1213282E+00
         -2   -1    0    0    0  501 -0.00000000000E+00  0.00000000000E+00  0.34463135692E+02  0.34463135692E+02  0.00000000000E+00 0.  1.
          2   -1    0    0  501    0  0.00000000000E+00 -0.00000000000E+00 -0.13726547994E+04  0.13726547994E+04  0.00000000000E+00 0. -1.
         25    2    1    2    0    0 -0.89501731604E+02  0.65040645750E+02 -0.12039662898E+04  0.12154869420E+04  0.12503133056E+03 0.  0.
          5    1    3    3  502    0 -0.10288013663E+03  0.84320430708E+02 -0.81532343255E+03  0.82611381154E+03  0.41800000000E+01 0. -1.
         -5    1    3    3    0  502  0.13378405027E+02 -0.19279784958E+02 -0.38864285726E+03  0.38937313047E+03  0.41800000000E+01 0. -1.
        -11    1    1    2    0    0  0.42395818457E+02 -0.63077769441E+02 -0.39114774991E+02  0.85476172369E+02  0.00000000000E+00 0.  1.
         11    1    1    2    0    0  0.47105913147E+02 -0.19628763084E+01 -0.95110598874E+02  0.10615482069E+03  0.00000000000E+00 0. -1.
</event>
<event>
 7    1  0.2688177E-009  0.1028446E+03  0.7561462E-02  0.1274425E+00
         -2   -1    0    0    0  501 -0.00000000000E+00  0.00000000000E+00  0.34900633448E+02  0.34900633448E+02  0.00000000000E+00 0.  1.
          2   -1    0    0  501    0  0.00000000000E+00 -0.00000000000E+00 -0.35637071065E+03  0.35637071065E+03  0.00000000000E+00 0. -1.
         25    2    1    2    0    0 -0.46863473070E+00  0.79068961563E+01 -0.13783257919E+03  0.18630154232E+03  0.12509079167E+03 0.  0.
          5    1    3    3  502    0  0.54128547930E+02 -0.26729612050E+02 -0.68797520800E+02  0.91623922256E+02  0.41800000000E+01 0.  1.
         -5    1    3    3    0  502 -0.54597182660E+02  0.34636508206E+02 -0.69035058387E+02  0.94677620068E+02  0.41800000000E+01 0.  1.
        -11    1    1    2    0    0  0.19076320012E+02  0.31487924753E+02 -0.37809948745E+02  0.52772981861E+02  0.00000000000E+00 0.  1.
         11    1    1    2    0    0 -0.18607685281E+02 -0.39394820909E+02 -0.14582754927E+03  0.15219681991E+03  0.00000000000E+00 0. -1.
</event>
<event>
 7    1  0.2924158E-009  0.7829310E+02  0.7561462E-02  0.1333966E+00
          1   -1    0    0  501    0  0.00000000000E+00  0.00000000000E+00  0.27447154417E+03  0.27447154417E+03  0.00000000000E+00 0. -1.
         -1   -1    0    0    0  501 -0.00000000000E+00 -0.00000000000E+00 -0.62602420232E+02  0.62602420232E+02  0.00000000000E+00 0.  1.
         25    2    1    2    0    0 -0.53182339715E+02 -0.14597169924E+02  0.17998541435E+03  0.22601750092E+03  0.12509085784E+03 0.  0.
          5    1    3    3  502    0 -0.95447950626E+01 -0.54192663775E+01 -0.18844884001E+02  0.22205260951E+02  0.41800000000E+01 0. -1.
         -5    1    3    3    0  502 -0.43637544653E+02 -0.91779035462E+01  0.19883029835E+03  0.20381223997E+03  0.41800000000E+01 0. -1.
        -11    1    1    2    0    0  0.17477102390E+02  0.48047340467E+02 -0.26092158304E+01  0.51193789088E+02  0.00000000000E+00 0.  1.
         11    1    1    2    0    0  0.35705237326E+02 -0.33450170544E+02  0.34492925410E+02  0.59862674391E+02  0.00000000000E+00 0. -1.
</event>
<event>
 7    1  0.2688177E-009  0.1566829E+03  0.7561462E-02  0.1192493E+00
          4   -1    0    0  501    0  0.00000000000E+00  0.00000000000E+00  0.42068090119E+02  0.42068090119E+02  0.00000000000E+00 0.  1.
         -4   -1    0    0    0  501 -0.00000000000E+00 -0.00000000000E+00 -0.65154597485E+03  0.65154597485E+03  0.00000000000E+00 0. -1.
         25    2    1    2    0    0 -0.11635671799E+03  0.41815860813E+02 -0.35727109375E+03  0.39821901193E+03  0.12509314529E+03 0.  0.
          5    1    3    3  502    0 -0.14245500828E+03  0.42890450423E+02 -0.31432735695E+03  0.34778179919E+03  0.41800000000E+01 0.  1.
         -5    1    3    3    0  502  0.26098290291E+02 -0.10745896109E+01 -0.42943736799E+02  0.50437212742E+02  0.41800000000E+01 0.  1.
        -11    1    1    2    0    0  0.87750637622E+02 -0.40429632400E+00 -0.90590208595E+02  0.12612265360E+03  0.00000000000E+00 0.  1.
         11    1    1    2    0    0  0.28606080366E+02 -0.41411564489E+02 -0.16161658239E+03  0.16927239944E+03  0.00000000000E+00 0. -1.
</event>
<event>
 7    1  0.2688177E-009  0.6677986E+02  0.7561462E-02  0.1371399E+00
          1   -1    0    0  501    0  0.00000000000E+00  0.00000000000E+00  0.37900204822E+03  0.37900204822E+03  0.00000000000E+00 0. -1.
         -1   -1    0    0    0  501 -0.00000000000E+00 -0.00000000000E+00 -0.42809892532E+02  0.42809892532E+02  0.00000000000E+00 0.  1.
         25    2    1    2    0    0 -0.16944749595E+02  0.24473334075E+02  0.28211552103E+03  0.31003907822E+03  0.12509593997E+03 0.  0.
          5    1    3    3  502    0 -0.43084323352E+02  0.19011425613E+02  0.28954899455E+02  0.55439623240E+02  0.41800000000E+01 0. -1.
         -5    1    3    3    0  502  0.26139573757E+02  0.54619084620E+01  0.25316062157E+03  0.25459945498E+03  0.41800000000E+01 0. -1.
        -11    1    1    2    0    0 -0.14524485826E+02  0.57495632632E+01  0.64953691003E+02  0.66805689437E+02  0.00000000000E+00 0. -1.
         11    1    1    2    0    0  0.31469235421E+02 -0.30222897338E+02 -0.10877056344E+02  0.44967173096E+02  0.00000000000E+00 0.  1.
</event>
<event>
 7    1  0.2688177E-009  0.2409140E+03  0.7561462E-02  0.1119185E+00
         -2   -1    0    0    0  501 -0.00000000000E+00  0.00000000000E+00  0.10669999972E+03  0.10669999972E+03  0.00000000000E+00 0. -1.
          2   -1    0    0  501    0  0.00000000000E+00 -0.00000000000E+00 -0.61152703707E+03  0.61152703707E+03  0.00000000000E+00 0.  1.
         25    2    1    2    0    0 -0.22515243584E+03 -0.48907580606E+02 -0.25225423431E+03  0.36381893576E+03  0.12508576452E+03 0.  0.
          5    1    3    3  502    0 -0.11048822201E+03  0.59691999895E+01 -0.19520312371E+03  0.22442150177E+03  0.41800000000E+01 0. -1.
         -5    1    3    3    0  502 -0.11466421383E+03 -0.54876780596E+02 -0.57051110595E+02  0.13939743399E+03  0.41800000000E+01 0. -1.
        -11    1    1    2    0    0  0.36581276121E+02  0.41322038711E+02 -0.30788135912E+02  0.63195015301E+02  0.00000000000E+00 0.  1.
         11    1    1    2    0    0  0.18857115972E+03  0.75855418950E+01 -0.22178466714E+03  0.29121308573E+03  0.00000000000E+00 0. -1.
</event>
<event>
 7    1  0.2688177E-009  0.1447686E+03  0.7561462E-02  0.1207053E+00
         -2   -1    0    0    0  501 -0.00000000000E+00  0.00000000000E+00  0.32337479285E+02  0.32337479285E+02  0.00000000000E+00 0.  1.
          2   -1    0    0  501    0  0.00000000000E+00 -0.00000000000E+00 -0.87818623896E+03  0.87818623896E+03  0.00000000000E+00 0. -1.
         25    2    1    2    0    0  0.64792481743E+02  0.10177140404E+03 -0.32742522384E+03  0.37068494258E+03  0.12507823581E+03 0.  0.
          5    1    3    3  502    0  0.99500063066E+02  0.73884912778E+02 -0.27573868040E+03  0.30233844472E+03  0.41800000000E+01 0.  1.
         -5    1    3    3    0  502 -0.34707581324E+02  0.27886491266E+02 -0.51686543445E+02  0.68346497860E+02  0.41800000000E+01 0.  1.
        -11    1    1    2    0    0 -0.20942457838E+02 -0.27510999752E+02 -0.36563976233E+02  0.50322619225E+02  0.00000000000E+00 0.  1.
         11    1    1    2    0    0 -0.43850023905E+02 -0.74260404292E+02 -0.48185955960E+03  0.48951615645E+03  0.00000000000E+00 0. -1.
</event>
<event>
 7    1  0.2688177E-009  0.1947353E+03  0.7561462E-02  0.1154258E+00
         -2   -1    0    0    0  501 -0.00000000000E+00  0.00000000000E+00  0.20625365989E+03  0.20625365989E+03  0.00000000000E+00 0.  1.
          2   -1    0    0  501    0  0.00000000000E+00 -0.00000000000E+00 -0.26623522854E+03  0.26623522854E+03  0.00000000000E+00 0. -1.
         25    2    1    2    0    0  0.96368709958E+02  0.16175495347E+03 -0.12021548158E+03  0.25602825957E+03  0.12508842655E+03 0.  0.
          5    1    3    3  502    0  0.17157884056E+02  0.37009539343E+02  0.25635677951E+02  0.48360721372E+02  0.41800000000E+01 0. -1.
         -5    1    3    3    0  502  0.79210825902E+02  0.12474541412E+03 -0.14585115953E+03  0.20766753820E+03  0.41800000000E+01 0. -1.
        -11    1    1    2    0    0 -0.51914506971E+02 -0.14345845156E+03  0.69260337605E+02  0.16754831459E+03  0.00000000000E+00 0.  1.
         11    1    1    2    0    0 -0.44454202987E+02 -0.18296501908E+02 -0.90264246737E+01  0.48912314275E+02  0.00000000000E+00 0. -1.
</event>
<event>
 7    1  0.2688177E-009  0.9991455E+02  0.7561462E-02  0.1280476E+00
         -2   -1    0    0    0  501 -0.00000000000E+00  0.00000000000E+00  0.68629578917E+02  0.68629578917E+02  0.00000000000E+00 0.  1.
          2   -1    0    0  501    0  0.00000000000E+00 -0.00000000000E+00 -0.22517910619E+03  0.22517910619E+03  0.00000000000E+00 0. -1.
         25    2    1    2    0    0 -0.16200046191E+02 -0.62162849293E+02 -0.12267552478E+03  0.18661185448E+03  0.12509212015E+03 0.  0.
          5    1    3    3  502    0  0.22291071220E+02  0.22917593648E+02  0.17407764846E+00  0.32242993933E+02  0.41800000000E+01 0.  1.
         -5    1    3    3    0  502 -0.38491117412E+02 -0.85080442941E+02 -0.12284960243E+03  0.15436886055E+03  0.41800000000E+01 0.  1.
        -11    1    1    2    0    0 -0.64537072701E+01  0.45583938291E+02  0.17012004305E+02  0.49081096749E+02  0.00000000000E+00 0.  1.
         11    1    1    2    0    0  0.22653753461E+02  0.16578911002E+02 -0.50886006801E+02  0.58115733877E+02  0.00000000000E+00 0. -1.
</event>
<event>
 7    1  0.2688177E-009  0.1837571E+03  0.7561462E-02  0.1164216E+00
          2   -1    0    0  501    0  0.00000000000E+00  0.00000000000E+00  0.22041710590E+03  0.22041710590E+03  0.00000000000E+00 0. -1.
         -2   -1    0    0    0  501 -0.00000000000E+00 -0.00000000000E+00 -0.17419867664E+03  0.17419867664E+03  0.00000000000E+00 0.  1.
         25    2    1    2    0    0 -0.16131604848E+03 -0.11331780686E+02  0.48073572935E+01  0.20450253225E+03  0.12508756238E+03 0.  0.
          5    1    3    3  502    0 -0.16856283115E+03  0.83953801961E+01  0.29958659645E+02  0.17146108637E+03  0.41800000000E+01 0.  1.
         -5    1    3    3    0  502  0.72467826680E+01 -0.19727160882E+02 -0.25151302351E+02  0.33041445874E+02  0.41800000000E+01 0.  1.
        -11    1    1    2    0    0  0.24258941978E+02  0.30392159770E+02  0.33808283372E+02  0.51528435508E+02  0.00000000000E+00 0.  1.
         11    1    1    2    0    0  0.13705710650E+03 -0.19060379084E+02  0.76027885947E+01  0.13858481478E+03  0.00000000000E+00 0. -1.
</event>
<event>
 7    1  0.2688177E-009  0.1168717E+03  0.7561462E-02  0.1248349E+00
          1   -1    0    0  501    0  0.00000000000E+00  0.00000000000E+00  0.17869966076E+04  0.17869966076E+04  0.00000000000E+00 0. -1.
         -1   -1    0    0    0  501 -0.00000000000E+00 -0.00000000000E+00 -0.12778316127E+02  0.12778316127E+02  0.00000000000E+00 0.  1.
         25    2    1    2    0    0 -0.87927242406E+02 -0.44401717613E+02  0.12919166951E+04  0.13016904571E+04  0.12508631587E+03 0.  0.
          5    1    3    3  502    0 -0.38775185031E+02  0.79555974615E+01  0.10085656662E+04  0.10093507725E+04  0.41800000000E+01 0.  1.
         -5    1    3    3    0  502 -0.49152057375E+02 -0.52357315074E+02  0.28335102889E+03  0.29233968454E+03  0.41800000000E+01 0.  1.
        -11    1    1    2    0    0  0.18963773693E+02  0.49346230509E+02  0.25833542246E+03  0.26368895630E+03  0.00000000000E+00 0. -1.
         11    1    1    2    0    0  0.68963468713E+02 -0.49445128957E+01  0.22396617385E+03  0.23439551031E+03  0.00000000000E+00 0.  1.
</event>
<event>
 7    1  0.2688177E-009  0.1390165E+03  0.7561462E-02  0.1214658E+00
          2   -1    0    0  501    0  0.00000000000E+00  0.00000000000E+00  0.87058572328E+03  0.87058572328E+03  0.00000000000E+00 0. -1.
         -2   -1    0    0    0  501 -0.00000000000E+00 -0.00000000000E+00 -0.24333736154E+02  0.24333736154E+02  0.00000000000E+00 0.  1.
         25    2    1    2    0    0 -0.91135497022E+02  0.22070697863E+02  0.53723041198E+03  0.55951650800E+03  0.12509761247E+03 0.  0.
          5    1    3    3  502    0 -0.52879241045E+02 -0.46981223452E+02  0.33441314060E+03  0.34183778390E+03  0.41800000000E+01 0.  1.
         -5    1    3    3    0  502 -0.38256255977E+02  0.69051921315E+02  0.20281727137E+03  0.21767872410E+03  0.41800000000E+01 0.  1.
        -11    1    1    2    0    0  0.53953244441E+01  0.28213829134E+02  0.98367343199E+02  0.10247567462E+03  0.00000000000E+00 0. -1.
         11    1    1    2    0    0  0.85740172578E+02 -0.50284526997E+02  0.21065423195E+03  0.23292727682E+03  0.00000000000E+00 0.  1.
</event>
<event>
 7    1  0.2688177E-009  0.1402702E+03  0.7561462E-02  0.1212966E+00
         -2   -1    0    0    0  501 -0.00000000000E+00  0.00000000000E+00  0.79678956257E+02  0.79678956257E+02  0.00000000000E+00 0.  1.
          2   -1    0    0  501    0  0.00000000000E+00 -0.00000000000E+00 -0.40655443860E+03  0.40655443860E+03  0.00000000000E+00 0. -1.
         25    2    1    2    0    0 -0.67231296571E+02 -0.99079314921E+02 -0.66637041619E+02  0.18553778610E+03  0.12508803648E+03 0.  0.
          5    1    3    3  502    0 -0.12286422353E+02  0.18169508027E+02  0.19762652613E+02  0.29818149414E+02  0.41800000000E+01 0.  1.
         -5    1    3    3    0  502 -0.54944874218E+02 -0.11724882295E+03 -0.86399694232E+02  0.15571963668E+03  0.41800000000E+01 0.  1.
        -11    1    1    2    0    0  0.13541770993E+02  0.61875824722E+02 -0.20685857176E+03  0.21633877590E+03  0.00000000000E+00 0. -1.
         11    1    1    2    0    0  0.53689525578E+02  0.37203490200E+02 -0.53379868963E+02  0.84356832861E+02  0.00000000000E+00 0.  1.
</event>
<event>
 7    1  0.2688177E-009  0.8854705E+02  0.7561462E-02  0.1306409E+00
          2   -1    0    0  501    0  0.00000000000E+00  0.00000000000E+00  0.58008565835E+02  0.58008565835E+02  0.00000000000E+00 0. -1.
         -2   -1    0    0    0  501 -0.00000000000E+00 -0.00000000000E+00 -0.29141133439E+03  0.29141133439E+03  0.00000000000E+00 0.  1.
         25    2    1    2    0    0  0.64025370864E+02  0.13288738548E+02 -0.90469284993E+02  0.16767517778E+03  0.12511768472E+03 0.  0.
          5    1    3    3  502    0  0.29321649695E+01  0.21354297469E+02 -0.10243518398E+03  0.10476183909E+03  0.41800000000E+01 0. -1.
         -5    1    3    3    0  502  0.61093205894E+02 -0.80655589209E+01  0.11965898987E+02  0.62913338695E+02  0.41800000000E+01 0. -1.
        -11    1    1    2    0    0 -0.54130663548E+02  0.20714918814E+02 -0.13281965916E+03  0.14491479723E+03  0.00000000000E+00 0.  1.
         11    1    1    2    0    0 -0.98947073164E+01 -0.34003657362E+02 -0.10113824400E+02  0.36829925209E+02  0.00000000000E+00 0. -1.
</event>
<event>
 7    1  0.2688177E-009  0.1227338E+03  0.7561462E-02  0.1238654E+00
         -1   -1    0    0    0  501 -0.00000000000E+00  0.00000000000E+00  0.59484866914E+02  0.59484866914E+02  0.00000000000E+00 0.  1.
          1   -1    0    0  501    0  0.00000000000E+00 -0.00000000000E+00 -0.38493843942E+03  0.38493843942E+03  0.00000000000E+00 0. -1.
         25    2    1    2    0    0  0.32035013020E+02 -0.62446976372E+02 -0.28905303055E+03  0.32268405456E+03  0.12508987840E+03 0.  0.
          5    1    3    3  502    0  0.83227672021E+01  0.32371331081E+02 -0.27664269760E+02  0.43588481864E+02  0.41800000000E+01 0. -1.
         -5    1    3    3    0  502  0.23712245818E+02 -0.94818307453E+02 -0.26138876079E+03  0.27909557270E+03  0.41800000000E+01 0. -1.
        -11    1    1    2    0    0 -0.45508896447E+02  0.79872969186E+02 -0.19495370421E+02  0.93972444526E+02  0.00000000000E+00 0.  1.
         11    1    1    2    0    0  0.13473883427E+02 -0.17425992814E+02 -0.16905171528E+02  0.27766807244E+02  0.00000000000E+00 0. -1.
</event>
<event>
 7    1  0.2688177E-009  0.1804479E+03  0.7561462E-02  0.1167370E+00
          2   -1    0    0  501    0  0.00000000000E+00  0.00000000000E+00  0.31136154447E+02  0.31136154447E+02  0.00000000000E+00 0. -1.
         -2   -1    0    0    0  501 -0.00000000000E+00 -0.00000000000E+00 -0.11401919398E+04  0.11401919398E+04  0.00000000000E+00 0.  1.
         25    2    1    2    0    0  0.12530312411E+03 -0.89065518182E+02 -0.64214867770E+03  0.67203899931E+03  0.12509177781E+03 0.  0.
          5    1    3    3  502    0 -0.15991797892E+02  0.87787318753E+00 -0.13242916885E+02  0.21198007189E+02  0.41800000000E+01 0.  1.
         -5    1    3    3    0  502  0.14129492200E+03 -0.89943391370E+02 -0.62890576082E+03  0.65084099212E+03  0.41800000000E+01 0.  1.
        -11    1    1    2    0    0 -0.13786597213E+03  0.71790369970E+02 -0.40529681853E+03  0.43408109220E+03  0.00000000000E+00 0.  1.
         11    1    1    2    0    0  0.12562848018E+02  0.17275148212E+02 -0.61610289082E+02  0.65208002705E+02  0.00000000000E+00 0. -1.
</event>
<event>
 7    1  0.2688177E-009  0.1317187E+03  0.7561462E-02  0.1224927E+00
          1   -1    0    0  501    0  0.00000000000E+00  0.00000000000E+00  0.80553407312E+03  0.80553407312E+03  0.00000000000E+00 0. -1.
         -1   -1    0    0    0  501 -0.00000000000E+00 -0.00000000000E+00 -0.24794101170E+02  0.24794101170E+02  0.00000000000E+00 0.  1.
         25    2    1    2    0    0  0.10474468964E+01 -0.89722160305E+02  0.45280639579E+03  0.47826142592E+03  0.12509674758E+03 0.  0.
          5    1    3    3  502    0  0.38976636591E+02 -0.89588361499E+02  0.40729335361E+03  0.41886823825E+03  0.41800000000E+01 0.  1.
         -5    1    3    3    0  502 -0.37929189694E+02 -0.13379880600E+00  0.45513042180E+02  0.59393187669E+02  0.41800000000E+01 0.  1.
        -11    1    1    2    0    0  0.43651413694E+02  0.30321183873E+02  0.15395733429E+03  0.16287320495E+03  0.00000000000E+00 0.  1.
         11    1    1    2    0    0 -0.44698860590E+02  0.59400976432E+02  0.17397624187E+03  0.18919354343E+03  0.00000000000E+00 0. -1.
</event>
<event>
 7    1  0.2688177E-009  0.1029747E+03  0.7561462E-02  0.1274162E+00
          1   -1    0    0  501    0  0.00000000000E+00  0.00000000000E+00  0.64001825168E+03  0.64001825168E+03  0.00000000000E+00 0. -1.
         -1   -1    0    0    0  501 -0.00000000000E+00 -0.00000000000E+00 -0.25693831822E+02  0.25693831822E+02  0.00000000000E+00 0.  1.
         25    2    1    2    0    0  0.37947088125E+02  0.70778642933E+01  0.48714638584E+03  0.50442850345E+03  0.12508571538E+03 0.  0.
          5    1    3    3  502    0  0.76588562508E+02 -0.18049563748E+02  0.22930236109E+03  0.24246368771E+03  0.41800000000E+01 0.  1.
         -5    1    3    3    0  502 -0.38641474383E+02  0.25127428041E+02  0.25784402476E+03  0.26196481574E+03  0.41800000000E+01 0.  1.
        -11    1    1    2    0    0 -0.11178290507E+02 -0.38210011741E+02  0.10962577098E+03  0.11663090860E+03  0.00000000000E+00 0. -1.
         11    1    1    2    0    0 -0.26768797618E+02  0.31132147448E+02  0.17552263026E+02  0.44652671454E+02  0.00000000000E+00 0.  1.
</event>
<event>
 7    1  0.2688177E-009  0.1573040E+03  0.7561462E-02  0.1191775E+00
          1   -1    0    0  501    0  0.00000000000E+00  0.00000000000E+00  0.18107737581E+03  0.18107737581E+03  0.00000000000E+00 0.  1.
         -1   -1    0    0    0  501 -0.00000000000E+00 -0.00000000000E+00 -0.20679100454E+03  0.20679100454E+03  0.00000000000E+00 0. -1.
         25    2    1    2    0    0  0.15233575656E+03  0.34580323519E+02  0.25464369400E+02  0.20173271583E+03  0.12508266476E+03 0.  0.
          5    1    3    3  502    0  0.10537938909E+03  0.18523642816E+02  0.75592727198E+02  0.13107125464E+03  0.41800000000E+01 0. -1.
         -5    1    3    3    0  502  0.46956367477E+02  0.16056680703E+02 -0.50128357798E+02  0.70661461189E+02  0.41800000000E+01 0. -1.
        -11    1    1    2    0    0 -0.11287736406E+03 -0.35289214616E+02  0.39578946236E+01  0.11833128460E+03  0.00000000000E+00 0.  1.
         11    1    1    2    0    0 -0.39458392503E+02  0.70889109711E+00 -0.55135892763E+02  0.67804379920E+02  0.00000000000E+00 0. -1.
</event>
<event>
 7    1  0.2688177E-009  0.8947771E+02  0.7561462E-02  0.1304121E+00
          2   -1    0    0  501    0  0.00000000000E+00  0.00000000000E+00  0.38051590667E+03  0.38051590667E+03  0.00000000000E+00 0. -1.
         -2   -1    0    0    0  501 -0.00000000000E+00 -0.00000000000E+00 -0.40988819355E+02  0.40988819355E+02  0.00000000000E+00 0.  1.
         25    2    1    2    0    0 -0.31028687978E+02  0.40210647746E+02  0.24124662356E+03  0.27645711574E+03  0.12509567457E+03 0.  0.
          5    1    3    3  502    0 -0.59859399436E+02  0.44963640124E+02  0.23447574506E+03  0.24617315868E+03  0.41800000000E+01 0. -1.
         -5    1    3    3    0  502  0.28830711457E+02 -0.47529923784E+01  0.67708785017E+01  0.30283957062E+02  0.41800000000E+01 0. -1.
        -11    1    1    2    0    0  0.38975585324E+02 -0.61224976220E+01  0.10246299537E+03  0.10979638723E+03  0.00000000000E+00 0. -1.
         11    1    1    2    0    0 -0.79468973455E+01 -0.34088150124E+02 -0.41825316112E+01  0.35251223056E+02  0.00000000000E+00 0.  1.
</event>
<event>
 7    1  0.2688177E-009  0.2019304E+03  0.7561462E-02  0.1148120E+00
         -1   -1    0    0    0  501 -0.00000000000E+00  0.00000000000E+00  0.23823558432E+03  0.23823558432E+03  0.00000000000E+00 0.  1.
          1   -1    0    0  501    0  0.00000000000E+00 -0.00000000000E+00 -0.31344269977E+03  0.31344269977E+03  0.00000000000E+00 0. -1.
         25    2    1    2    0    0 -0.16174971419E+03  0.75528879049E+02 -0.21619072391E+03  0.30700701823E+03  0.12508916229E+03 0.  0.
          5    1    3    3  502    0 -0.13229298232E+02 -0.29069016319E+02 -0.56816608061E+02  0.65311724774E+02  0.41800000000E+01 0. -1.
         -5    1    3    3    0  502 -0.14852041596E+03  0.10459789537E+03 -0.15937411585E+03  0.24169529345E+03  0.41800000000E+01 0. -1.
        -11    1    1    2    0    0  0.53169182498E+02 -0.60152146949E+02  0.98483252180E+02  0.12705980368E+03  0.00000000000E+00 0.  1.
         11    1    1    2    0    0  0.10858053169E+03 -0.15376732100E+02  0.42500356279E+02  0.11761146218E+03  0.00000000000E+00 0. -1.
</event>
<event>
 7    1  0.2688177E-009  0.6954118E+02  0.7561462E-02  0.1361660E+00
          1   -1    0    0  501    0  0.00000000000E+00  0.00000000000E+00  0.20291890407E+03  0.20291890407E+03  0.00000000000E+00 0. -1.
         -1   -1    0    0    0  501 -0.00000000000E+00 -0.00000000000E+00 -0.59113658177E+02  0.59113658177E+02  0.00000000000E+00 0.  1.
         25    2    1    2    0    0 -0.14784168043E+01  0.17018672915E+00  0.42550741679E+02  0.13213679289E+03  0.12508937500E+03 0.  0.
          5    1    3    3  502    0 -0.12790280389E+02  0.35343746437E+02 -0.31536433499E+02  0.49242164072E+02  0.41800000000E+01 0. -1.
         -5    1    3    3    0  502  0.11311863584E+02 -0.35173559708E+02  0.74087175178E+02  0.82894628814E+02  0.41800000000E+01 0. -1.
        -11    1    1    2    0    0  0.31047837370E+02  0.10300319377E+02  0.11267309066E+02  0.34597934016E+02  0.00000000000E+00 0.  1.
         11    1    1    2    0    0 -0.29569420565E+02 -0.10470506106E+02  0.89987195152E+02  0.95297835348E+02  0.00000000000E+00 0. -1.
</event>
<event>
 7    1  0.2688177E-009  0.7700005E+02  0.7561462E-02  0.1337787E+00
          2   -1    0    0  501    0  0.00000000000E+00  0.00000000000E+00  0.27087926141E+03  0.27087926141E+03  0.00000000000E+00 0. -1.
         -2   -1    0    0    0  501 -0.00000000000E+00 -0.00000000000E+00 -0.45142593483E+02  0.45142593483E+02  0.00000000000E+00 0.  1.
         25    2    1    2    0    0 -0.76322245338E+01 -0.25097983526E+02  0.12245801620E+03  0.17700484359E+03  0.12508632736E+03 0.  0.
          5    1    3    3  502    0  0.21739041346E+02  0.15244086958E+02 -0.14950193005E+02  0.30756280281E+02  0.41800000000E+01 0.  1.
         -5    1    3    3    0  502 -0.29371265880E+02 -0.40342070484E+02  0.13740820921E+03  0.14624856330E+03  0.41800000000E+01 0.  1.
        -11    1    1    2    0    0 -0.21070148858E+02 -0.16322154005E+02  0.78421437576E+02  0.82826842001E+02  0.00000000000E+00 0. -1.
         11    1    1    2    0    0  0.28702373392E+02  0.41420137531E+02  0.24857214143E+02  0.56190169303E+02  0.00000000000E+00 0.  1.
</event>
<event>
 7    1  0.2688177E-009  0.1377993E+03  0.7561462E-02  0.1216321E+00
         -1   -1    0    0    0  501 -0.00000000000E+00  0.00000000000E+00  0.94027379088E+02  0.94027379088E+02  0.00000000000E+00 0.  1.
          1   -1    0    0  501    0  0.00000000000E+00 -0.00000000000E+00 -0.29538600313E+03  0.29538600313E+03  0.00000000000E+00 0. -1.
         25    2    1    2    0    0 -0.23547413403E+02 -0.10613124233E+03 -0.32449168173E+02  0.16886394740E+03  0.12507502925E+03 0.  0.
          5    1    3    3  502    0  0.32578031872E+02 -0.96947074009E+00 -0.37022096884E+02  0.49501273639E+02  0.41800000000E+01 0.  1.
         -5    1    3    3    0  502 -0.56125445275E+02 -0.10516177159E+03  0.45729287114E+01  0.11936267376E+03  0.41800000000E+01 0.  1.
        -11    1    1    2    0    0 -0.17616668781E+02  0.55397272140E+02 -0.26535680620E+02  0.63901072960E+02  0.00000000000E+00 0.  1.
         11    1    1    2    0    0  0.41164082183E+02  0.50733970189E+02 -0.14237377525E+03  0.15664836186E+03  0.00000000000E+00 0. -1.
</event>
<event>
 7    1  0.2688177E-009  0.1033011E+03  0.7561462E-02  0.1273503E+00
         -3   -1    0    0    0  501 -0.00000000000E+00  0.00000000000E+00  0.21351808629E+03  0.21351808629E+03  0.00000000000E+00 0.  1.
          3   -1    0    0  501    0  0.00000000000E+00 -0.00000000000E+00 -0.69266339648E+02  0.69266339648E+02  0.00000000000E+00 0. -1.
         25    2    1    2    0    0  0.28143473560E+02 -0.37793092254E+02  0.11741120976E+03  0.17791340005E+03  0.12508961914E+03 0.  0.
          5    1    3    3  502    0  0.52167589392E+02  0.13658751636E+02  0.10719292473E+03  0.12006587521E+03  0.41800000000E+01 0. -1.
         -5    1    3    3    0  502 -0.24024115832E+02 -0.51451843890E+02  0.10218285027E+02  0.57847524839E+02  0.41800000000E+01 0. -1.
        -11    1    1    2    0    0 -0.57388124818E+02  0.17558919804E+02  0.33439669214E+02  0.68701703123E+02  0.00000000000E+00 0.  1.
         11    1    1    2    0    0  0.29244651258E+02  0.20234172450E+02 -0.65991323228E+01  0.36169322766E+02  0.00000000000E+00 0. -1.
</event>
<event>
 7    1  0.2688177E-009  0.1152693E+03  0.7561462E-02  0.1251112E+00
         -1   -1    0    0    0  501 -0.00000000000E+00  0.00000000000E+00  0.43563008898E+03  0.43563008898E+03  0.00000000000E+00 0.  1.
          1   -1    0    0  501    0  0.00000000000E+00 -0.00000000000E+00 -0.42795011856E+02  0.42795011856E+02  0.00000000000E+00 0. -1.
         25    2    1    2    0    0 -0.33869533959E+02 -0.59913248713E+02  0.29119189453E+03  0.32430934172E+03  0.12508831672E+03 0.  0.
          5    1    3    3  502    0  0.35432016526E+02  0.10401049613E+02  0.41134527502E+02  0.55435831201E+02  0.41800000000E+01 0. -1.
         -5    1    3    3    0  502 -0.69301550486E+02 -0.70314298326E+02  0.25005736703E+03  0.26887351051E+03  0.41800000000E+01 0. -1.
        -11    1    1    2    0    0  0.87313940816E+00  0.61519623590E+02  0.10417115684E+03  0.12098370294E+03  0.00000000000E+00 0.  1.
         11    1    1    2    0    0  0.32996394551E+02 -0.16063748768E+01 -0.25279742438E+01  0.33132056190E+02  0.00000000000E+00 0. -1.
</event>
<event>
 7    1  0.2688177E-009  0.1060541E+03  0.7561462E-02  0.1268057E+00
          1   -1    0    0  501    0  0.00000000000E+00  0.00000000000E+00  0.43474265900E+03  0.43474265900E+03  0.00000000000E+00 0. -1.
         -1   -1    0    0    0  501 -0.00000000000E+00 -0.00000000000E+00 -0.39993638042E+02  0.39993638042E+02  0.00000000000E+00 0.  1.
         25    2    1    2    0    0  0.44957915179E+02 -0.40497194615E+02  0.13378734743E+03  0.19289329861E+03  0.12509010115E+03 0.  0.
          5    1    3    3  502    0  0.42990805623E+01 -0.63116887693E+02  0.13165991046E+03  0.14613017494E+03  0.41800000000E+01 0.  1.
         -5    1    3    3    0  502  0.40658834617E+02  0.22619693078E+02  0.21274369731E+01  0.46763123670E+02  0.41800000000E+01 0.  1.
        -11    1    1    2    0    0  0.24099917665E+02  0.14951069922E+02  0.11390292408E+03  0.11738064848E+03  0.00000000000E+00 0.  1.
         11    1    1    2    0    0 -0.69057832844E+02  0.25546124693E+02  0.14705874944E+03  0.16446234995E+03  0.00000000000E+00 0. -1.
</event>
<event>
 7    1  0.2688177E-009  0.1236716E+03  0.7561462E-02  0.1237160E+00
          2   -1    0    0  501    0  0.00000000000E+00  0.00000000000E+00  0.63009748918E+03  0.63009748918E+03  0.00000000000E+00 0. -1.
         -2   -1    0    0    0  501 -0.00000000000E+00 -0.00000000000E+00 -0.30420771095E+02  0.30420771095E+02  0.00000000000E+00 0.  1.
         25    2    1    2    0    0  0.39444058958E+02 -0.60786673332E+02  0.42879324005E+03  0.45250559378E+03  0.12508723455E+03 0.  0.
          5    1    3    3  502    0  0.40337799358E+02 -0.92845376619E+02  0.23322275009E+03  0.25427883430E+03  0.41800000000E+01 0. -1.
         -5    1    3    3    0  502 -0.89374040046E+00  0.32058703287E+02  0.19557048996E+03  0.19822675948E+03  0.41800000000E+01 0. -1.
        -11    1    1    2    0    0 -0.65885100332E+02  0.28059449236E+02  0.77114028237E+02  0.10523664993E+03  0.00000000000E+00 0. -1.
         11    1    1    2    0    0  0.26441041374E+02  0.32727224096E+02  0.93769449798E+02  0.10277601657E+03  0.00000000000E+00 0.  1.
</event>
<event>
 7    1  0.2688177E-009  0.1387573E+03  0.7561462E-02  0.1215011E+00
          2   -1    0    0  501    0  0.00000000000E+00  0.00000000000E+00  0.11201440356E+04  0.11201440356E+04  0.00000000000E+00 0. -1.
         -2   -1    0    0    0  501 -0.00000000000E+00 -0.00000000000E+00 -0.27724646060E+02  0.27724646060E+02  0.00000000000E+00 0.  1.
         25    2    1    2    0    0  0.42730137105E+02 -0.12897537222E+03  0.45214888596E+03  0.48841225719E+03  0.12508959443E+03 0.  0.
          5    1    3    3  502    0  0.35008883330E+02 -0.12387155724E+03  0.45862621031E+03  0.47636672615E+03  0.41800000000E+01 0. -1.
         -5    1    3    3    0  502  0.77212537750E+01 -0.51038149814E+01 -0.64773243439E+01  0.12045531033E+02  0.41800000000E+01 0. -1.
        -11    1    1    2    0    0 -0.24428952623E+02  0.34126610119E+02  0.74583028765E+02  0.85580531806E+02  0.00000000000E+00 0.  1.
         11    1    1    2    0    0 -0.18301184483E+02  0.94848762100E+02  0.56568747481E+03  0.57387589266E+03  0.00000000000E+00 0. -1.
</event>
<event>
 7    1  0.2688177E-009  0.1688929E+03  0.7561462E-02  0.1179007E+00
          4   -1    0    0  501    0  0.00000000000E+00  0.00000000000E+00  0.27994943518E+03  0.27994943518E+03  0.00000000000E+00 0. -1.
         -4   -1    0    0    0  501 -0.00000000000E+00 -0.00000000000E+00 -0.10489321578E+03  0.10489321578E+03  0.00000000000E+00 0.  1.
         25    2    1    2    0    0 -0.34814418051E+02  0.12610357675E+03  0.71712491687E+02  0.19469419765E+03  0.12509593662E+03 0.  0.
          5    1    3    3  502    0 -0.68176896371E+02  0.22462895038E+02  0.24723089045E+02  0.76035349570E+02  0.41800000000E+01 0.  1.
         -5    1    3    3    0  502  0.33362478320E+02  0.10364068172E+03  0.46989402642E+02  0.11865884808E+03  0.41800000000E+01 0.  1.
        -11    1    1    2    0    0 -0.50910858735E+00 -0.12126997978E+03  0.93590767130E+02  0.15318583119E+03  0.00000000000E+00 0. -1.
         11    1    1    2    0    0  0.35323526638E+02 -0.48335969772E+01  0.97529605887E+01  0.36962622122E+02  0.00000000000E+00 0.  1.
</event>
<event>
 7    1  0.2688177E-009  0.1128971E+03  0.7561462E-02  0.1255297E+00
         -2   -1    0    0    0  501 -0.00000000000E+00  0.00000000000E+00  0.16219342807E+02  0.16219342807E+02  0.00000000000E+00 0. -1.
          2   -1    0    0  501    0  0.00000000000E+00 -0.00000000000E+00 -0.92060173362E+03  0.92060173362E+03  0.00000000000E+00 0.  1.
         25    2    1    2    0    0 -0.15614210668E+02  0.31106597301E+02 -0.67285583870E+03  0.68526942302E+03  0.12509108074E+03 0.  0.
          5    1    3    3  502    0  0.26747018632E-01 -0.48123624729E+02 -0.21882253945E+03  0.22409074087E+03  0.41800000000E+01 0.  1.
         -5    1    3    3    0  502 -0.15640957687E+02  0.79230222031E+02 -0.45403329925E+03  0.46117868215E+03  0.41800000000E+01 0.  1.
        -11    1    1    2    0    0  0.41667378287E+02 -0.49520576562E+02 -0.17586517732E+03  0.18739535349E+03  0.00000000000E+00 0.  1.
         11    1    1    2    0    0 -0.26053167619E+02  0.18413979260E+02 -0.55661374787E+02  0.64156299911E+02  0.00000000000E+00 0. -1.
</event>
<event>
 7    1  0.2688177E-009  0.9923388E+02  0.7561462E-02  0.1281915E+00
          2   -1    0    0  501    0  0.00000000000E+00  0.00000000000E+00  0.50552061936E+03  0.50552061936E+03  0.00000000000E+00 0. -1.
         -2   -1    0    0    0  501 -0.00000000000E+00 -0.00000000000E+00 -0.33180837552E+02  0.33180837552E+02  0.00000000000E+00 0.  1.
         25    2    1    2    0    0 -0.54648303708E+02  0.45071101466E+02  0.28997329608E+03  0.32365160944E+03  0.12509200842E+03 0.  0.
          5    1    3    3  502    0 -0.20852803557E+02 -0.10149584734E+02 -0.28413575494E+01  0.23736031664E+02  0.41800000000E+01 0.  1.
         -5    1    3    3    0  502 -0.33795500151E+02  0.55220686199E+02  0.29281465363E+03  0.29991557778E+03  0.41800000000E+01 0.  1.
        -11    1    1    2    0    0  0.39224811427E+01 -0.57634356690E+02  0.67433688708E+02  0.88794185070E+02  0.00000000000E+00 0. -1.
         11    1    1    2    0    0  0.50725822565E+02  0.12563255224E+02  0.11493279702E+03  0.12625566240E+03  0.00000000000E+00 0.  1.
</event>
<event>
 7    1  0.2688177E-009  0.1435960E+03  0.7561462E-02  0.1208571E+00
          2   -1    0    0  501    0  0.00000000000E+00  0.00000000000E+00  0.10449677395E+03  0.10449677395E+03  0.00000000000E+00 0.  1.
         -2   -1    0    0    0  501 -0.00000000000E+00 -0.00000000000E+00 -0.29820060133E+03  0.29820060133E+03  0.00000000000E+00 0. -1.
         25    2    1    2    0    0 -0.51766506933E+02 -0.11857549961E+03 -0.44420594010E+02  0.18536586570E+03  0.12508954651E+03 0.  0.
          5    1    3    3  502    0  0.12798056897E+02 -0.44293736120E+02 -0.69692785169E+02  0.83667688055E+02  0.41800000000E+01 0.  1.
         -5    1    3    3    0  502 -0.64564563830E+02 -0.74281763490E+02  0.25272191159E+02  0.10169817764E+03  0.41800000000E+01 0.  1.
        -11    1    1    2    0    0  0.14106539357E+02  0.98896612197E+02 -0.55284611326E+02  0.11417496488E+03  0.00000000000E+00 0.  1.
         11    1    1    2    0    0  0.37659967576E+02  0.19678887413E+02 -0.93998622044E+02  0.10315654470E+03  0.00000000000E+00 0. -1.
</event>
<event>
 7    1  0.2688177E-009  0.1234024E+03  0.7561462E-02  0.1237587E+00
          3   -1    0    0  501    0  0.00000000000E+00  0.00000000000E+00  0.29506225905E+03  0.29506225905E+03  0.00000000000E+00 0. -1.
         -3   -1    0    0    0  501 -0.00000000000E+00 -0.00000000000E+00 -0.69665122044E+02  0.69665122044E+02  0.00000000000E+00 0.  1.
         25    2    1    2    0    0 -0.51202889059E+02  0.77791210620E+02  0.13319359425E+03  0.20509505534E+03  0.12510091877E+03 0.  0.
          5    1    3    3  502    0  0.40311359942E+02  0.18487523805E+02  0.23502586924E+02  0.50365050074E+02  0.41800000000E+01 0.  1.
         -5    1    3    3    0  502 -0.91514249001E+02  0.59303686815E+02  0.10969100733E+03  0.15473000527E+03  0.41800000000E+01 0.  1.
        -11    1    1    2    0    0  0.62144928848E+01 -0.94137662508E+01 -0.18673906738E+02  0.21816363348E+02  0.00000000000E+00 0.  1.
         11    1    1    2    0    0  0.44988396174E+02 -0.68377444369E+02  0.11087744949E+03  0.13781596241E+03  0.00000000000E+00 0. -1.
</event>
<event>
 7    1  0.2688177E-009  0.1143387E+03  0.7561462E-02  0.1252740E+00
          1   -1    0    0  501    0  0.00000000000E+00  0.00000000000E+00  0.46577871202E+03  0.46577871202E+03  0.00000000000E+00 0. -1.
         -1   -1    0    0    0  501 -0.00000000000E+00 -0.00000000000E+00 -0.49540204602E+02  0.49540204602E+02  0.00000000000E+00 0.  1.
         25    2    1    2    0    0  0.40049368432E+02 -0.93617068880E+02  0.27032664587E+03  0.31478894986E+03  0.12508988764E+03 0.  0.
          5    1    3    3  502    0  0.30733040394E+02 -0.32336408558E+02  0.83896100987E+01  0.45585316143E+02  0.41800000000E+01 0. -1.
         -5    1    3    3    0  502  0.93163280383E+01 -0.61280660322E+02  0.26193703577E+03  0.26920363372E+03  0.41800000000E+01 0. -1.
        -11    1    1    2    0    0  0.11570413426E+02  0.57725713220E+02  0.24426403284E+02  0.63739953020E+02  0.00000000000E+00 0.  1.
         11    1    1    2    0    0 -0.51619781858E+02  0.35891355661E+02  0.12148545827E+03  0.13679001374E+03  0.00000000000E+00 0. -1.
</event>
<event>
 7    1  0.2688177E-009  0.1178029E+03  0.7561462E-02  0.1246766E+00
          3   -1    0    0  501    0  0.00000000000E+00  0.00000000000E+00  0.54281290582E+02  0.54281290582E+02  0.00000000000E+00 0. -1.
         -3   -1    0    0    0  501 -0.00000000000E+00 -0.00000000000E+00 -0.34427105594E+03  0.34427105594E+03  0.00000000000E+00 0.  1.
         25    2    1    2    0    0 -0.55823242345E+02 -0.11465961892E+02 -0.24541814243E+03  0.28128668382E+03  0.12507770063E+03 0.  0.
          5    1    3    3  502    0 -0.89708770032E+02 -0.32825660439E+02 -0.19088736705E+03  0.21349624518E+03  0.41800000000E+01 0.  1.
         -5    1    3    3    0  502  0.33885527688E+02  0.21359698547E+02 -0.54530775375E+02  0.67790438645E+02  0.41800000000E+01 0.  1.
        -11    1    1    2    0    0  0.27655350754E+02 -0.35469135975E+02 -0.43419080763E+02  0.62514755110E+02  0.00000000000E+00 0.  1.
         11    1    1    2    0    0  0.28167891590E+02  0.46935097867E+02 -0.11525421657E+01  0.54750907589E+02  0.00000000000E+00 0. -1.
</event>
<event>
 7    1  0.2831331E-009  0.9387047E+02  0.7561462E-02  0.1293741E+00
          1   -1    0    0  501    0  0.00000000000E+00  0.00000000000E+00  0.56994060348E+02  0.56994060348E+02  0.00000000000E+00 0. -1.
         -1   -1    0    0    0  501 -0.00000000000E+00 -0.00000000000E+00 -0.32838866250E+03  0.32838866250E+03  0.00000000000E+00 0.  1.
         25    2    1    2    0    0  0.14515642330E+02  0.49201577212E+02 -0.24063601065E+03  0.27601468060E+03  0.12508763014E+03 0.  0.
          5    1    3    3  502    0  0.66339866471E+02  0.49873376390E+02 -0.15313435463E+03  0.17422954550E+03  0.41800000000E+01 0.  1.
         -5    1    3    3    0  502 -0.51824224141E+02 -0.67179917862E+00 -0.87501656012E+02  0.10178513510E+03  0.41800000000E+01 0.  1.
        -11    1    1    2    0    0 -0.28855684473E+01 -0.30388979725E+02 -0.63152929301E+02  0.70143489172E+02  0.00000000000E+00 0.  1.
         11    1    1    2    0    0 -0.11630073883E+02 -0.18812597486E+02  0.32394337797E+02  0.39224553076E+02  0.00000000000E+00 0. -1.
</event>
<event>
 7    1  0.2688177E-009  0.1860573E+03  0.7561462E-02  0.1162066E+00
         -3   -1    0    0    0  501 -0.00000000000E+00  0.00000000000E+00  0.85184215399E+02  0.85184215399E+02  0.00000000000E+00 0.  1.
          3   -1    0    0  501    0  0.00000000000E+00 -0.00000000000E+00 -0.50004541561E+03  0.50004541561E+03  0.00000000000E+00 0. -1.
         25    2    1    2    0    0  0.13262975112E+03 -0.11020479864E+03 -0.18353486717E+03  0.28119339527E+03  0.12509568157E+03 0.  0.
          5    1    3    3  502    0  0.38697760093E+01 -0.53540564625E+02 -0.10984143328E+03  0.12232816557E+03  0.41800000000E+01 0. -1.
         -5    1    3    3    0  502  0.12875997511E+03 -0.56664234016E+02 -0.73693433896E+02  0.15886522970E+03  0.41800000000E+01 0. -1.
        -11    1    1    2    0    0 -0.91747978580E+02  0.49230225872E+02 -0.19737297437E+03  0.22315330543E+03  0.00000000000E+00 0. -1.
         11    1    1    2    0    0 -0.40881772543E+02  0.60974572768E+02 -0.33953358660E+02  0.80882930306E+02  0.00000000000E+00 0.  1.
</event>
<event>
 7    1  0.2688177E-009  0.9984037E+02  0.7561462E-02  0.1280632E+00
          1   -1    0    0  501    0  0.00000000000E+00  0.00000000000E+00  0.10236942325E+04  0.10236942325E+04  0.00000000000E+00 0. -1.
         -1   -1    0    0    0  501 -0.00000000000E+00 -0.00000000000E+00 -0.14199832743E+02  0.14199832743E+02  0.00000000000E+00 0.  1.
         25    2    1    2    0    0 -0.23321010775E+01  0.11667264615E+02  0.78541507130E+03  0.79539894395E+03  0.12506431164E+03 0.  0.
          5    1    3    3  502    0 -0.35262671603E+02 -0.38842190036E+02  0.19772187559E+03  0.20460592421E+03  0.41800000000E+01 0. -1.
         -5    1    3    3    0  502  0.32930570525E+02  0.50509454651E+02  0.58769319572E+03  0.59079301974E+03  0.41800000000E+01 0. -1.
        -11    1    1    2    0    0 -0.38197949161E+02 -0.22923311375E+02  0.71663938038E+02  0.84381760705E+02  0.00000000000E+00 0.  1.
         11    1    1    2    0    0  0.40530050239E+02  0.11256046760E+02  0.15241539043E+03  0.15811336060E+03  0.00000000000E+00 0. -1.
</event>
<event>
 7    1  0.2688177E-009  0.1602190E+03  0.7561462E-02  0.1188450E+00
          2   -1    0    0  501    0  0.00000000000E+00  0.00000000000E+00  0.75611889201E+03  0.75611889201E+03  0.00000000000E+00 0. -1.
         -2   -1    0    0    0  501 -0.00000000000E+00 -0.00000000000E+00 -0.37846082245E+02  0.37846082245E+02  0.00000000000E+00 0.  1.
         25    2    1    2    0    0  0.11122145298E+03  0.65015878190E+02  0.43333036509E+03  0.46906257819E+03  0.12508885211E+03 0.  0.
          5    1    3    3  502    0  0.11524573271E+03  0.93695645788E+02  0.38346468826E+03  0.41124578112E+03  0.41800000000E+01 0.  1.
         -5    1    3    3    0  502 -0.40242797280E+01 -0.28679767599E+02  0.49865676830E+02  0.57816797062E+02  0.41800000000E+01 0.  1.
        -11    1    1    2    0    0 -0.11401794629E+03 -0.45315916373E+02  0.27792720710E+03  0.30380447133E+03  0.00000000000E+00 0. -1.
         11    1    1    2    0    0  0.27964933022E+01 -0.19699961817E+02  0.70152375783E+01  0.21097924748E+02  0.00000000000E+00 0.  1.
</event>
<event>
 7    1  0.2688177E-009  0.5044184E+03  0.7561462E-02  0.1012632E+00
          2   -1    0    0  501    0  0.00000000000E+00  0.00000000000E+00  0.12590288266E+04  0.12590288266E+04  0.00000000000E+00 0. -1.
         -2   -1    0    0    0  501 -0.00000000000E+00 -0.00000000000E+00 -0.31133579583E+03  0.31133579583E+03  0.00000000000E+00 0.  1.
         25    2    1    2    0    0  0.47383864144E+03 -0.15934720055E+03  0.92800929808E+03  0.10614890014E+04  0.12507219603E+03 0.  0.
          5    1    3    3  502    0  0.20913707077E+03 -0.80253217973E+02  0.54470820398E+03  0.58898505350E+03  0.41800000000E+01 0. -1.
         -5    1    3    3    0  502  0.26470157067E+03 -0.79093982579E+02  0.38330109411E+03  0.47250394786E+03  0.41800000000E+01 0. -1.
        -11    1    1    2    0    0 -0.34653821130E+03  0.71534717681E+02  0.13261941152E+02  0.35409296351E+03  0.00000000000E+00 0.  1.
         11    1    1    2    0    0 -0.12730043015E+03  0.87812482871E+02  0.64217914842E+01  0.15478265752E+03  0.00000000000E+00 0. -1.
</event>
<event>
 7    1  0.2688177E-009  0.1649410E+03  0.7561462E-02  0.1183229E+00
         -2   -1    0    0    0  501 -0.00000000000E+00  0.00000000000E+00  0.60126258722E+02  0.60126258722E+02  0.00000000000E+00 0. -1.
          2   -1    0    0  501    0  0.00000000000E+00 -0.00000000000E+00 -0.65682596536E+03  0.65682596536E+03  0.00000000000E+00 0.  1.
         25    2    1    2    0    0 -0.97771179963E+02  0.86623084994E+02 -0.49803023738E+03  0.52985318597E+03  0.12509004301E+03 0.  0.
          5    1    3    3  502    0 -0.27319742969E+02 -0.32247991936E+02 -0.12627626353E+03  0.13322713114E+03  0.41800000000E+01 0. -1.
         -5    1    3    3    0  502 -0.70451436995E+02  0.11887107693E+03 -0.37175397384E+03  0.39662605484E+03  0.41800000000E+01 0. -1.
        -11    1    1    2    0    0  0.91642418368E+02 -0.36455325080E+02 -0.32516969445E+02  0.10384929886E+03  0.00000000000E+00 0. -1.
         11    1    1    2    0    0  0.61287615954E+01 -0.50167759915E+02 -0.66152499815E+02  0.83249739251E+02  0.00000000000E+00 0.  1.
</event>
<event>
 7    1  0.2688177E-009  0.1535723E+03  0.7561462E-02  0.1196151E+00
          1   -1    0    0  501    0  0.00000000000E+00  0.00000000000E+00  0.26124786591E+03  0.26124786591E+03  0.00000000000E+00 0. -1.
         -1   -1    0    0    0  501 -0.00000000000E+00 -0.00000000000E+00 -0.19982272675E+03  0.19982272675E+03  0.00000000000E+00 0.  1.
         25    2    1    2    0    0  0.12555858305E+03  0.64778165581E+02  0.17042988423E+03  0.25427595533E+03  0.12509495396E+03 0.  0.
          5    1    3    3  502    0  0.91453805335E+02  0.10519290886E+02  0.16604607581E+03  0.18990320082E+03  0.41800000000E+01 0.  1.
         -5    1    3    3    0  502  0.34104777716E+02  0.54258874695E+02  0.43838084190E+01  0.64372754504E+02  0.41800000000E+01 0.  1.
        -11    1    1    2    0    0 -0.89523746848E+02 -0.17324221074E+02 -0.10657606081E+02  0.91805307325E+02  0.00000000000E+00 0. -1.
         11    1    1    2    0    0 -0.36034836202E+02 -0.47453944507E+02 -0.98347138983E+02  0.11498933001E+03  0.00000000000E+00 0.  1.
</event>
<event>
 7    1  0.2688177E-009  0.1128392E+03  0.7561462E-02  0.1255401E+00
          1   -1    0    0  501    0  0.00000000000E+00  0.00000000000E+00  0.18564180000E+02  0.18564180000E+02  0.00000000000E+00 0. -1.
         -1   -1    0    0    0  501 -0.00000000000E+00 -0.00000000000E+00 -0.80817361048E+03  0.80817361048E+03  0.00000000000E+00 0.  1.
         25    2    1    2    0    0 -0.13823554815E+02  0.50764526003E+02 -0.51542204767E+03  0.53298792166E+03  0.12509240440E+03 0.  0.
          5    1    3    3  502    0 -0.60912118281E+02  0.35669903358E+02 -0.17152441157E+03  0.18552823053E+03  0.41800000000E+01 0.  1.
         -5    1    3    3    0  502  0.47088563467E+02  0.15094622645E+02 -0.34389763610E+03  0.34745969113E+03  0.41800000000E+01 0.  1.
        -11    1    1    2    0    0 -0.85937891571E+01 -0.73154912247E+02 -0.18698058328E+03  0.20096575062E+03  0.00000000000E+00 0.  1.
         11    1    1    2    0    0  0.22417343972E+02  0.22390386244E+02 -0.87206799538E+02  0.92784118213E+02  0.00000000000E+00 0. -1.
</event>
<event>
 7    1  0.2688177E-009  0.1111138E+03  0.7561462E-02  0.1258521E+00
         -2   -1    0    0    0  501 -0.00000000000E+00  0.00000000000E+00  0.22145510466E+03  0.22145510466E+03  0.00000000000E+00 0.  1.
          2   -1    0    0  501    0  0.00000000000E+00 -0.00000000000E+00 -0.61988251316E+02  0.61988251316E+02  0.00000000000E+00 0. -1.
         25    2    1    2    0    0  0.23718179336E+02 -0.25498460900E+02  0.61044620248E+02  0.14347630876E+03  0.12508509893E+03 0.  0.
          5    1    3    3  502    0  0.70007597551E+02  0.10667467296E+02  0.32373068892E+02  0.77976577015E+02  0.41800000000E+01 0.  1.
         -5    1    3    3    0  502 -0.46289418215E+02 -0.36165928195E+02  0.28671551356E+02  0.65499731741E+02  0.41800000000E+01 0.  1.
        -11    1    1    2    0    0 -0.55043447646E+02  0.26426842165E+02  0.87665183842E+02  0.10683325125E+03  0.00000000000E+00 0.  1.
         11    1    1    2    0    0  0.31325268310E+02 -0.92838126548E+00  0.10757049253E+02  0.33133795966E+02  0.00000000000E+00 0. -1.
</event>
<event>
 7    1  0.2688177E-009  0.9513884E+02  0.7561462E-02  0.1290864E+00
          1   -1    0    0  501    0  0.00000000000E+00  0.00000000000E+00  0.51095036307E+03  0.51095036307E+03  0.00000000000E+00 0. -1.
         -1   -1    0    0    0  501 -0.00000000000E+00 -0.00000000000E+00 -0.24655851368E+02  0.24655851368E+02  0.00000000000E+00 0.  1.
         25    2    1    2    0    0  0.18447235849E+02 -0.18295636302E+01  0.21864131772E+03  0.25257539831E+03  0.12508660282E+03 0.  0.
          5    1    3    3  502    0  0.14828324574E+02 -0.48893717912E+02  0.32966067598E+02  0.60948411578E+02  0.41800000000E+01 0. -1.
         -5    1    3    3    0  502  0.36189112750E+01  0.47064154282E+02  0.18567525012E+03  0.19162698673E+03  0.41800000000E+01 0. -1.
        -11    1    1    2    0    0 -0.53207454553E+02  0.13616391682E+02  0.14734310241E+03  0.15724639636E+03  0.00000000000E+00 0.  1.
         11    1    1    2    0    0  0.34760218704E+02 -0.11786828052E+02  0.12031009158E+03  0.12578441976E+03  0.00000000000E+00 0. -1.
</event>
<event>
 7    1  0.2688177E-009  0.4256400E+03  0.7561462E-02  0.1035246E+00
         -1   -1    0    0    0  501 -0.00000000000E+00  0.00000000000E+00  0.37100361838E+03  0.37100361838E+03  0.00000000000E+00 0.  1.
          1   -1    0    0  501    0  0.00000000000E+00 -0.00000000000E+00 -0.55253300588E+03  0.55253300588E+03  0.00000000000E+00 0. -1.
         25    2    1    2    0    0  0.38206711821E+03 -0.17020304220E+03 -0.22548842337E+03  0.49136396305E+03  0.12509658955E+03 0.  0.
          5    1    3    3  502    0  0.14459782049E+03 -0.22228041547E+02 -0.12980522298E+03  0.19562587721E+03  0.41800000000E+01 0. -1.
         -5    1    3    3    0  502  0.23746929772E+03 -0.14797500065E+03 -0.95683200388E+02  0.29573808584E+03  0.41800000000E+01 0. -1.
        -11    1    1    2    0    0 -0.93712281528E+02  0.79260628557E+02 -0.16472133838E+02  0.12383686907E+03  0.00000000000E+00 0. -1.
         11    1    1    2    0    0 -0.28835483668E+03  0.90942413641E+02  0.60431169710E+02  0.30833579213E+03  0.00000000000E+00 0.  1.
</event>
<event>
 7    1  0.2688177E-009  0.1057301E+03  0.7561462E-02  0.1268688E+00
         -1   -1    0    0    0  501 -0.00000000000E+00  0.00000000000E+00  0.26616383542E+02  0.26616383542E+02  0.00000000000E+00 0.  1.
          1   -1    0    0  501    0  0.00000000000E+00 -0.00000000000E+00 -0.57614871374E+03  0.57614871374E+03  0.00000000000E+00 0. -1.
         25    2    1    2    0    0 -0.28323639515E+02  0.30846828766E+02 -0.19676569193E+03  0.23689277647E+03  0.12509074555E+03 0.  0.
          5    1    3    3  502    0 -0.48162890005E+02  0.65972334797E+02 -0.16897263021E+03  0.18772649012E+03  0.41800000000E+01 0.  1.
         -5    1    3    3    0  502  0.19839250490E+02 -0.35125506032E+02 -0.27793061728E+02  0.49166286358E+02  0.41800000000E+01 0.  1.
        -11    1    1    2    0    0 -0.16585967033E+02 -0.39981044868E+02 -0.99718770047E+02  0.10870791761E+03  0.00000000000E+00 0.  1.
         11    1    1    2    0    0  0.44909606548E+02  0.91342161020E+01 -0.25304786821E+03  0.25716440320E+03  0.00000000000E+00 0. -1.
</event>
<event>
 7    1  0.2688177E-009  0.1411856E+03  0.7561462E-02  0.1211743E+00
         -2   -1    0    0    0  501 -0.00000000000E+00  0.00000000000E+00  0.66146571395E+02  0.66146571395E+02  0.00000000000E+00 0.  1.
          2   -1    0    0  501    0  0.00000000000E+00 -0.00000000000E+00 -0.85145167930E+03  0.85145167930E+03  0.00000000000E+00 0. -1.
         25    2    1    2    0    0  0.10385931034E+03 -0.44036595599E+02 -0.71901200765E+03  0.73847875705E+03  0.12508648758E+03 0.  0.
          5    1    3    3  502    0  0.11803683665E+03 -0.70520218632E+02 -0.61063172111E+03  0.62593479474E+03  0.41800000000E+01 0. -1.
         -5    1    3    3    0  502 -0.14177526318E+02  0.26483623034E+02 -0.10838028654E+03  0.11254396231E+03  0.41800000000E+01 0. -1.
        -11    1    1    2    0    0 -0.14918843622E+02  0.14392250297E+02  0.35264168929E+02  0.40905627655E+02  0.00000000000E+00 0.  1.
         11    1    1    2    0    0 -0.88940466714E+02  0.29644345301E+02 -0.10155726918E+03  0.13821386599E+03  0.00000000000E+00 0. -1.
</event>
<event>
 7    1  0.2688177E-009  0.1628132E+03  0.7561462E-02  0.1185557E+00
         -2   -1    0    0    0  501 -0.00000000000E+00  0.00000000000E+00  0.18853360703E+03  0.18853360703E+03  0.00000000000E+00 0.  1.
          2   -1    0    0  501    0  0.00000000000E+00 -0.00000000000E+00 -0.22076714070E+03  0.22076714070E+03  0.00000000000E+00 0. -1.
         25    2    1    2    0    0 -0.39533067910E+02  0.12895899749E+03 -0.12504942453E+03  0.22243559328E+03  0.12508776155E+03 0.  0.
          5    1    3    3  502    0  0.11303474688E+01  0.12808564943E+03 -0.12839614119E+03  0.18141183188E+03  0.41800000000E+01 0. -1.
         -5    1    3    3    0  502 -0.40663415379E+02  0.87334806403E+00  0.33467166521E+01  0.41023761401E+02  0.41800000000E+01 0. -1.
        -11    1    1    2    0    0 -0.23556615712E+02 -0.21098268777E+02  0.40536551739E+02  0.51412674663E+02  0.00000000000E+00 0.  1.
         11    1    1    2    0    0  0.63089683622E+02 -0.10786072872E+03  0.52279339123E+02  0.13545247978E+03  0.00000000000E+00 0. -1.
</event>
<event>
 7    1  0.2688177E-009  0.8691541E+02  0.7561462E-02  0.1310498E+00
         -1   -1    0    0    0  501 -0.00000000000E+00  0.00000000000E+00  0.26078198630E+02  0.26078198630E+02  0.00000000000E+00 0.  1.
          1   -1    0    0  501    0  0.00000000000E+00 -0.00000000000E+00 -0.46232087773E+03  0.46232087773E+03  0.00000000000E+00 0. -1.
         25    2    1    2    0    0 -0.38619672063E+01  0.16313354272E+01 -0.20677515339E+03  0.24170903741E+03  0.12509883556E+03 0.  0.
          5    1    3    3  502    0  0.46896330703E+02  0.17804629306E+02 -0.33708494143E+02  0.60580571436E+02  0.41800000000E+01 0. -1.
         -5    1    3    3    0  502 -0.50758297910E+02 -0.16173293879E+02 -0.17306665925E+03  0.18112846597E+03  0.41800000000E+01 0. -1.
        -11    1    1    2    0    0  0.36745475171E+02 -0.46397448368E+01 -0.40591742392E+02  0.54949492519E+02  0.00000000000E+00 0.  1.
         11    1    1    2    0    0 -0.32883507964E+02  0.30084094096E+01 -0.18887578331E+03  0.19174054643E+03  0.00000000000E+00 0. -1.
</event>
<event>
 7    1  0.2688177E-009  0.8458454E+02  0.7561462E-02  0.1316523E+00
         -1   -1    0    0    0  501 -0.00000000000E+00  0.00000000000E+00  0.77584664924E+02  0.77584664924E+02  0.00000000000E+00 0.  1.
          1   -1    0    0  501    0  0.00000000000E+00 -0.00000000000E+00 -0.27523490811E+03  0.27523490811E+03  0.00000000000E+00 0. -1.
         25    2    1    2    0    0  0.21430595577E+02 -0.26124655034E+02  0.29217616210E+01  0.12959648081E+03  0.12507974704E+03 0.  0.
          5    1    3    3  502    0  0.38216669149E+02  0.36191382951E+01 -0.52010299014E+02  0.64777739744E+02  0.41800000000E+01 0. -1.
         -5    1    3    3    0  502 -0.16786073571E+02 -0.29743793329E+02  0.54932060635E+02  0.64818741064E+02  0.41800000000E+01 0. -1.
        -11    1    1    2    0    0  0.32207271789E+02 -0.71957020610E+01 -0.90440777604E+02  0.96273676246E+02  0.00000000000E+00 0.  1.
         11    1    1    2    0    0 -0.53637867366E+02  0.33320357095E+02 -0.11013122720E+03  0.12694941598E+03  0.00000000000E+00 0. -1.
</event>
<event>
 7    1  0.2688177E-009  0.1040289E+03  0.7561462E-02  0.1272045E+00
          1   -1    0    0  501    0  0.00000000000E+00  0.00000000000E+00  0.83075690983E+02  0.83075690983E+02  0.00000000000E+00 0. -1.
         -1   -1    0    0    0  501 -0.00000000000E+00 -0.00000000000E+00 -0.18455355893E+03  0.18455355893E+03  0.00000000000E+00 0.  1.
         25    2    1    2    0    0 -0.21357319608E+02 -0.40788108517E+02 -0.21123354704E+02  0.13495531544E+03  0.12508771384E+03 0.  0.
          5    1    3    3  502    0  0.19252913886E+02  0.20825922340E+02 -0.48331822148E+02  0.56194583071E+02  0.41800000000E+01 0. -1.
         -5    1    3    3    0  502 -0.40610233493E+02 -0.61614030857E+02  0.27208467444E+02  0.78760732370E+02  0.41800000000E+01 0. -1.
        -11    1    1    2    0    0  0.46598276407E+02  0.58390615546E+02 -0.54328881002E+02  0.92371481849E+02  0.00000000000E+00 0. -1.
         11    1    1    2    0    0 -0.25240956800E+02 -0.17602507029E+02 -0.26025632238E+02  0.40302452621E+02  0.00000000000E+00 0.  1.
</event>
<event>
 7    1  0.2688177E-009  0.9580350E+02  0.7561462E-02  0.1289377E+00
         -2   -1    0    0    0  501 -0.00000000000E+00  0.00000000000E+00  0.26639325725E+03  0.26639325725E+03  0.00000000000E+00 0.  1.
          2   -1    0    0  501    0  0.00000000000E+00 -0.00000000000E+00 -0.10964484187E+03  0.10964484187E+03  0.00000000000E+00 0. -1.
         25    2    1    2    0    0 -0.28112802613E+02  0.14348251970E+02 -0.49126276656E+02  0.13804796065E+03  0.12509055271E+03 0.  0.
          5    1    3    3  502    0  0.17793290859E+02  0.26610679590E+02 -0.76513670224E+02  0.83045430934E+02  0.41800000000E+01 0.  1.
         -5    1    3    3    0  502 -0.45906093472E+02 -0.12262427620E+02  0.27387393568E+02  0.55002529719E+02  0.41800000000E+01 0.  1.
        -11    1    1    2    0    0 -0.31348835301E+02  0.25191867659E+02  0.37037453063E+02  0.54673143318E+02  0.00000000000E+00 0.  1.
         11    1    1    2    0    0  0.59461637914E+02 -0.39540119629E+02  0.16883723897E+03  0.18331699514E+03  0.00000000000E+00 0. -1.
</event>
<event>
 7    1  0.2688177E-009  0.1154401E+03  0.7561462E-02  0.1250815E+00
         -2   -1    0    0    0  501 -0.00000000000E+00  0.00000000000E+00  0.11545551979E+03  0.11545551979E+03  0.00000000000E+00 0.  1.
          2   -1    0    0  501    0  0.00000000000E+00 -0.00000000000E+00 -0.13956208135E+03  0.13956208135E+03  0.00000000000E+00 0. -1.
         25    2    1    2    0    0  0.27218012683E+02  0.28251525448E+02  0.37889236416E+02  0.13644902846E+03  0.12507507437E+03 0.  0.
          5    1    3    3  502    0  0.40973632980E+02  0.73141956852E+02  0.24877758331E+02  0.87549755632E+02  0.41800000000E+01 0.  1.
         -5    1    3    3    0  502 -0.13755620297E+02 -0.44890431404E+02  0.13011478085E+02  0.48899272831E+02  0.41800000000E+01 0.  1.
        -11    1    1    2    0    0 -0.61036004499E+02 -0.11681812956E+02 -0.29336415267E+02  0.68720330761E+02  0.00000000000E+00 0.  1.
         11    1    1    2    0    0  0.33817991816E+02 -0.16569712492E+02 -0.32659382709E+02  0.49848241909E+02  0.00000000000E+00 0. -1.
</event>
<event>
 7    1  0.2688177E-009  0.1248483E+03  0.7561462E-02  0.1235307E+00
         -2   -1    0    0    0  501 -0.00000000000E+00  0.00000000000E+00  0.39141551096E+02  0.39141551096E+02  0.00000000000E+00 0.  1.
          2   -1    0    0  501    0  0.00000000000E+00 -0.00000000000E+00 -0.57640087411E+03  0.57640087411E+03  0.00000000000E+00 0. -1.
         25    2    1    2    0    0  0.67380607076E+02  0.78206650775E+02 -0.29077714694E+03  0.33295060696E+03  0.12509328942E+03 0.  0.
          5    1    3    3  502    0  0.76001312752E+02  0.32897693802E+02 -0.73544677521E+02  0.11083659048E+03  0.41800000000E+01 0. -1.
         -5    1    3    3    0  502 -0.86207056762E+01  0.45308956972E+02 -0.21723246942E+03  0.22211401648E+03  0.41800000000E+01 0. -1.
        -11    1    1    2    0    0 -0.55209782979E+02 -0.16577295170E+02 -0.49988435375E+02  0.76300527672E+02  0.00000000000E+00 0.  1.
         11    1    1    2    0    0 -0.12170824097E+02 -0.61629355605E+02 -0.19649374070E+03  0.20629129057E+03  0.00000000000E+00 0. -1.
</event>
<event>
 7    1  0.2688177E-009  0.1079397E+03  0.7561462E-02  0.1264433E+00
         -2   -1    0    0    0  501 -0.00000000000E+00  0.00000000000E+00  0.96399360007E+02  0.96399360007E+02  0.00000000000E+00 0. -1.
          2   -1    0    0  501    0  0.00000000000E+00 -0.00000000000E+00 -0.26349468848E+03  0.26349468848E+03  0.00000000000E+00 0.  1.
         25    2    1    2    0    0  0.99051483462E+02 -0.19457607880E+02 -0.15711391882E+03  0.22477037250E+03  0.12508853659E+03 0.  0.
          5    1    3    3  502    0  0.16038191132E+02 -0.19304273928E+02 -0.13687974551E+03  0.13922433586E+03  0.41800000000E+01 0.  1.
         -5    1    3    3    0  502  0.83013292330E+02 -0.15333395154E+00 -0.20234173312E+02  0.85546036637E+02  0.41800000000E+01 0.  1.
        -11    1    1    2    0    0 -0.63630494756E+02 -0.56797683577E+01 -0.45980530219E+02  0.78710283894E+02  0.00000000000E+00 0.  1.
         11    1    1    2    0    0 -0.35420988706E+02  0.25137376237E+02  0.35999120569E+02  0.56413392087E+02  0.00000000000E+00 0. -1.
</event>
<event>
 7    1  0.2688177E-009  0.2840427E+03  0.7561462E-02  0.1093501E+00
          1   -1    0    0  501    0  0.00000000000E+00  0.00000000000E+00  0.68793974500E+03  0.68793974500E+03  0.00000000000E+00 0. -1.
         -1   -1    0    0    0  501 -0.00000000000E+00 -0.00000000000E+00 -0.23427249888E+03  0.23427249888E+03  0.00000000000E+00 0.  1.
         25    2    1    2    0    0 -0.21351384606E+03 -0.18412079898E+03  0.53268821308E+03  0.61554272644E+03  0.12508990627E+03 0.  0.
          5    1    3    3  502    0 -0.77152985128E+02 -0.55844758851E+02  0.75892934674E+02  0.12185413468E+03  0.41800000000E+01 0.  1.
         -5    1    3    3    0  502 -0.13636086093E+03 -0.12827604013E+03  0.45679527840E+03  0.49368859176E+03  0.41800000000E+01 0.  1.
        -11    1    1    2    0    0  0.13468425842E+03  0.86725931561E+02 -0.32148310616E+01  0.16022350580E+03  0.00000000000E+00 0. -1.
         11    1    1    2    0    0  0.78829587638E+02  0.97394867421E+02 -0.75806135894E+02  0.14644601164E+03  0.00000000000E+00 0.  1.
</event>
<event>
 7    1  0.2688177E-009  0.1251902E+03  0.7561462E-02  0.1234772E+00
         -3   -1    0    0    0  501 -0.00000000000E+00  0.00000000000E+00  0.11617774894E+03  0.11617774894E+03  0.00000000000E+00 0.  1.
          3   -1    0    0  501    0  0.00000000000E+00 -0.00000000000E+00 -0.15855195608E+03  0.15855195608E+03  0.00000000000E+00 0. -1.
         25    2    1    2    0    0  0.64697868669E+02 -0.47388389922E+02 -0.39687889989E+02  0.15379747777E+03  0.12508821626E+03 0.  0.
          5    1    3    3  502    0 -0.28641314878E+02 -0.36197829084E+01 -0.41354946585E+02  0.50607625446E+02  0.41800000000E+01 0.  1.
         -5    1    3    3    0  502  0.93339183547E+02 -0.43768607014E+02  0.16670565954E+01  0.10318985233E+03  0.41800000000E+01 0.  1.
        -11    1    1    2    0    0 -0.52959551317E+02 -0.14606992994E+02  0.11808622823E+02  0.56191831195E+02  0.00000000000E+00 0.  1.
         11    1    1    2    0    0 -0.11738317352E+02  0.61995382916E+02 -0.14494939971E+02  0.64740396059E+02  0.00000000000E+00 0. -1.
</event>
<event>
 7    1  0.2688177E-009  0.1519889E+03  0.7561462E-02  0.1198050E+00
          1   -1    0    0  501    0  0.00000000000E+00  0.00000000000E+00  0.17111465040E+04  0.17111465040E+04  0.00000000000E+00 0. -1.
         -1   -1    0    0    0  501 -0.00000000000E+00 -0.00000000000E+00 -0.16145402864E+02  0.16145402864E+02  0.00000000000E+00 0.  1.
         25    2    1    2    0    0  0.79968000388E+02  0.78706915487E+02  0.12155015820E+04  0.12270621266E+04  0.12509079572E+03 0.  0.
          5    1    3    3  502    0 -0.25405708479E+02  0.47174065180E+02  0.53798656643E+03  0.54066427708E+03  0.41800000000E+01 0.  1.
         -5    1    3    3    0  502  0.10537370887E+03  0.31532850307E+02  0.67751501553E+03  0.68639784953E+03  0.41800000000E+01 0.  1.
        -11    1    1    2    0    0 -0.24644881433E+02 -0.81128037729E+02  0.33266122214E+03  0.34329669006E+03  0.00000000000E+00 0.  1.
         11    1    1    2    0    0 -0.55323118955E+02  0.24211222419E+01  0.14683829700E+03  0.15693309017E+03  0.00000000000E+00 0. -1.
</event>
<event>
 7    1  0.2688177E-009  0.1019957E+03  0.7561462E-02  0.1276154E+00
          1   -1    0    0  501    0  0.00000000000E+00  0.00000000000E+00  0.58376408928E+03  0.58376408928E+03  0.00000000000E+00 0. -1.
         -1   -1    0    0    0  501 -0.00000000000E+00 -0.00000000000E+00 -0.27497663153E+02  0.27497663153E+02  0.00000000000E+00 0.  1.
         25    2    1    2    0    0 -0.37844648754E+02  0.41379113437E+02  0.21840738094E+03  0.25786592325E+03  0.12509437181E+03 0.  0.
          5    1    3    3  502    0 -0.48616623311E+02  0.75148053052E+02  0.19656081613E+03  0.21601951944E+03  0.41800000000E+01 0.  1.
         -5    1    3    3    0  502  0.10771974557E+02 -0.33768939615E+02  0.21846564807E+02  0.41846403817E+02  0.41800000000E+01 0.  1.
        -11    1    1    2    0    0 -0.13255159992E+02 -0.18383811946E+02  0.18780244616E+02  0.29434017665E+02  0.00000000000E+00 0.  1.
         11    1    1    2    0    0  0.51099808746E+02 -0.22995301491E+02  0.31907880057E+03  0.32396181152E+03  0.00000000000E+00 0. -1.
</event>
<event>
 7    1  0.2688177E-009  0.1111844E+03  0.7561462E-02  0.1258392E+00
         -2   -1    0    0    0  501 -0.00000000000E+00  0.00000000000E+00  0.18367888930E+03  0.18367888930E+03  0.00000000000E+00 0.  1.
          2   -1    0    0  501    0  0.00000000000E+00 -0.00000000000E+00 -0.74511095059E+02  0.74511095059E+02  0.00000000000E+00 0. -1.
         25    2    1    2    0    0 -0.26065192691E+02  0.32104268132E+02  0.10003041107E+03  0.16542323798E+03  0.12509470901E+03 0.  0.
          5    1    3    3  502    0 -0.39160861858E+02 -0.40838118335E+02  0.52389097807E+02  0.77223150542E+02  0.41800000000E+01 0.  1.
         -5    1    3    3    0  502  0.13095669167E+02  0.72942386466E+02  0.47641313260E+02  0.88200087434E+02  0.41800000000E+01 0.  1.
        -11    1    1    2    0    0 -0.11401824580E+02 -0.48998859411E+02  0.11476201014E+02  0.51600319932E+02  0.00000000000E+00 0. -1.
         11    1    1    2    0    0  0.37467017271E+02  0.16894591280E+02 -0.23388178416E+01  0.41166426449E+02  0.00000000000E+00 0.  1.
</event>
<event>
 7    1  0.2688177E-009  0.1039503E+03  0.7561462E-02  0.1272202E+00
         -2   -1    0    0    0  501 -0.00000000000E+00  0.00000000000E+00  0.20328969869E+02  0.20328969869E+02  0.00000000000E+00 0.  1.
          2   -1    0    0  501    0  0.00000000000E+00 -0.00000000000E+00 -0.62773786895E+03  0.62773786895E+03  0.00000000000E+00 0. -1.
         25    2    1    2    0    0 -0.14900089533E+02 -0.29133131366E+02 -0.36515037034E+03  0.38736699902E+03  0.12509055502E+03 0.  0.
          5    1    3    3  502    0 -0.75488075067E+01 -0.72929830774E+02 -0.14269772535E+03  0.16048631696E+03  0.41800000000E+01 0. -1.
         -5    1    3    3    0  502 -0.73512820260E+01  0.43796699407E+02 -0.22245264499E+03  0.22688068206E+03  0.41800000000E+01 0. -1.
        -11    1    1    2    0    0  0.43171408967E+02  0.40679904479E+02 -0.11013889570E+03  0.12509676865E+03  0.00000000000E+00 0.  1.
         11    1    1    2    0    0 -0.28271319434E+02 -0.11546773112E+02 -0.13211963303E+03  0.13560307115E+03  0.00000000000E+00 0. -1.
</event>
<event>
 7    1  0.2688177E-009  0.9199082E+02  0.7561462E-02  0.1298101E+00
         -1   -1    0    0    0  501 -0.00000000000E+00  0.00000000000E+00  0.19151780329E+02  0.19151780329E+02  0.00000000000E+00 0.  1.
          1   -1    0    0  501    0  0.00000000000E+00 -0.00000000000E+00 -0.65470110569E+03  0.65470110569E+03  0.00000000000E+00 0. -1.
         25    2    1    2    0    0 -0.40024404334E+01  0.27842715733E+02 -0.35430339790E+03  0.37678735719E+03  0.12508628391E+03 0.  0.
          5    1    3    3  502    0 -0.38724233396E+02  0.36101542110E+02 -0.32795770594E+03  0.33222976519E+03  0.41800000000E+01 0. -1.
         -5    1    3    3    0  502  0.34721792962E+02 -0.82588263774E+01 -0.26345691968E+02  0.44557592001E+02  0.41800000000E+01 0. -1.
        -11    1    1    2    0    0 -0.27363111830E+02  0.22634658709E+02 -0.88248930112E+02  0.95125923543E+02  0.00000000000E+00 0.  1.
         11    1    1    2    0    0  0.31365552263E+02 -0.50477374442E+02 -0.19299699734E+03  0.20193960529E+03  0.00000000000E+00 0. -1.
</event>
<event>
 7    1  0.2688177E-009  0.1203622E+03  0.7561462E-02  0.1242501E+00
          1   -1    0    0  501    0  0.00000000000E+00  0.00000000000E+00  0.71970767396E+03  0.71970767396E+03  0.00000000000E+00 0. -1.
         -1   -1    0    0    0  501 -0.00000000000E+00 -0.00000000000E+00 -0.23888930506E+02  0.23888930506E+02  0.00000000000E+00 0.  1.
         25    2    1    2    0    0  0.36940774821E+02 -0.11656428665E+02  0.22766579001E+03  0.26264006554E+03  0.12509036298E+03 0.  0.
          5    1    3    3  502    0 -0.21470744307E+02  0.44564562987E+02  0.92066930067E+02  0.10459820815E+03  0.41800000000E+01 0.  1.
         -5    1    3    3    0  502  0.58411519128E+02 -0.56220991652E+02  0.13559885994E+03  0.15804185739E+03  0.41800000000E+01 0.  1.
        -11    1    1    2    0    0 -0.12490943726E+02 -0.45792667399E+02  0.18382795217E+03  0.18985707272E+03  0.00000000000E+00 0. -1.
         11    1    1    2    0    0 -0.24449831095E+02  0.57449096064E+02  0.28432500127E+03  0.29109946621E+03  0.00000000000E+00 0.  1.
</event>
<event>
 7    1  0.2688177E-009  0.1495352E+03  0.7561462E-02  0.1201045E+00
         -2   -1    0    0    0  501 -0.00000000000E+00  0.00000000000E+00  0.45234248069E+02  0.45234248069E+02  0.00000000000E+00 0.  1.
          2   -1    0    0  501    0  0.00000000000E+00 -0.00000000000E+00 -0.55344330538E+03  0.55344330538E+03  0.00000000000E+00 0. -1.
         25    2    1    2    0    0  0.65971840723E+02 -0.89142777335E+02 -0.31618041239E+03  0.35765383221E+03  0.12508993564E+03 0.  0.
          5    1    3    3  502    0  0.18032682388E+02 -0.10476335845E+03 -0.26559665293E+03  0.28611115560E+03  0.41800000000E+01 0.  1.
         -5    1    3    3    0  502  0.47939158335E+02  0.15620581117E+02 -0.50583759453E+02  0.71542676611E+02  0.41800000000E+01 0.  1.
        -11    1    1    2    0    0 -0.77330299985E+01 -0.18307131407E+02 -0.11336150689E+02  0.22879229133E+02  0.00000000000E+00 0.  1.
         11    1    1    2    0    0 -0.58238810725E+02  0.10744990874E+03 -0.18069249424E+03  0.21814449211E+03  0.00000000000E+00 0. -1.
</event>
<event>
 7    1  0.2688177E-009  0.1529680E+03  0.7561462E-02  0.1196873E+00
          2   -1    0    0  501    0  0.00000000000E+00  0.00000000000E+00  0.14307317405E+04  0.14307317405E+04  0.00000000000E+00 0. -1.
         -2   -1    0    0    0  501 -0.00000000000E+00 -0.00000000000E+00 -0.26721494513E+02  0.26721494513E+02  0.00000000000E+00 0.  1.
         25    2    1    2    0    0  0.12119292016E+03 -0.24222739314E+02  0.11264413496E+04  0.11400823368E+04  0.12507260190E+03 0.  0.
          5    1    3    3  502    0  0.74067189722E+02 -0.61426284224E+02  0.92053511768E+03  0.92556010732E+03  0.41800000000E+01 0. -1.
         -5    1    3    3    0  502  0.47125730441E+02  0.37203544910E+02  0.20590623188E+03  0.21452222950E+03  0.41800000000E+01 0. -1.
        -11    1    1    2    0    0 -0.81544517784E+02 -0.25869763266E+02  0.19525903090E+03  0.21317795895E+03  0.00000000000E+00 0. -1.
         11    1    1    2    0    0 -0.39648402379E+02  0.50092502580E+02  0.82309865547E+02  0.10419293926E+03  0.00000000000E+00 0.  1.
</event>
<event>
 7    1  0.2688177E-009  0.8554618E+02  0.7561462E-02  0.1314010E+00
          1   -1    0    0  501    0  0.00000000000E+00  0.00000000000E+00  0.50397575361E+03  0.50397575361E+03  0.00000000000E+00 0. -1.
         -1   -1    0    0    0  501 -0.00000000000E+00 -0.00000000000E+00 -0.23956119239E+02  0.23956119239E+02  0.00000000000E+00 0.  1.
         25    2    1    2    0    0 -0.17512730534E+02 -0.28230245395E+01  0.32666905129E+03  0.35025105391E+03  0.12509383077E+03 0.  0.
          5    1    3    3  502    0 -0.16300074838E+02  0.58995053354E+02  0.12444975927E+03  0.13874913961E+03  0.41800000000E+01 0.  1.
         -5    1    3    3    0  502 -0.12126556965E+01 -0.61818077893E+02  0.20221929202E+03  0.21150191430E+03  0.41800000000E+01 0.  1.
        -11    1    1    2    0    0 -0.87027411336E+01  0.16164364329E+02 -0.29873844000E+01  0.18599700077E+02  0.00000000000E+00 0.  1.
         11    1    1    2    0    0  0.26215471668E+02 -0.13341339789E+02  0.15633796748E+03  0.15908111886E+03  0.00000000000E+00 0. -1.
</event>
<event>
 7    1  0.2688177E-009  0.1741427E+03  0.7561462E-02  0.1173595E+00
         -1   -1    0    0    0  501 -0.00000000000E+00  0.00000000000E+00  0.18788549219E+03  0.18788549219E+03  0.00000000000E+00 0.  1.
          1   -1    0    0  501    0  0.00000000000E+00 -0.00000000000E+00 -0.19983580006E+03  0.19983580006E+03  0.00000000000E+00 0. -1.
         25    2    1    2    0    0 -0.20046601337E+02 -0.14918157189E+03 -0.54536789920E+02  0.20317254756E+03  0.12509122675E+03 0.  0.
          5    1    3    3  502    0  0.47054508905E+02 -0.25600091734E+02 -0.47608203759E+01  0.53940979929E+02  0.41800000000E+01 0. -1.
         -5    1    3    3    0  502 -0.67101110241E+02 -0.12358148016E+03 -0.49775969544E+02  0.14923156763E+03  0.41800000000E+01 0. -1.
        -11    1    1    2    0    0 -0.35998220539E+01  0.90931325421E+02 -0.22828166349E+02  0.93822118077E+02  0.00000000000E+00 0. -1.
         11    1    1    2    0    0  0.23646423391E+02  0.58250246469E+02  0.65414648390E+02  0.90726626614E+02  0.00000000000E+00 0.  1.
</event>
<event>
 7    1  0.4066996E-009  0.1070703E+03  0.7561462E-02  0.1266093E+00
          2   -1    0    0  501    0  0.00000000000E+00  0.00000000000E+00  0.21852450270E+03  0.21852450270E+03  0.00000000000E+00 0. -1.
         -2   -1    0    0    0  501 -0.00000000000E+00 -0.00000000000E+00 -0.88041661779E+02  0.88041661779E+02  0.00000000000E+00 0.  1.
         25    2    1    2    0    0 -0.80521988760E+01 -0.68490424039E+02  0.12821771925E+03  0.19194435021E+03  0.12508826466E+03 0.  0.
          5    1    3    3  502    0  0.49785689376E+02 -0.37765048036E+02  0.10513952907E+03  0.12237894710E+03  0.41800000000E+01 0.  1.
         -5    1    3    3    0  502 -0.57837888252E+02 -0.30725376003E+02  0.23078190185E+02  0.69565403113E+02  0.41800000000E+01 0.  1.
        -11    1    1    2    0    0 -0.19321777688E+02  0.47848112939E+02 -0.36246655779E+02  0.63060233587E+02  0.00000000000E+00 0.  1.
         11    1    1    2    0    0  0.27373976564E+02  0.20642311100E+02  0.38511777447E+02  0.51561580684E+02  0.00000000000E+00 0. -1.
</event>
<event>
 7    1  0.2688177E-009  0.1796834E+03  0.7561462E-02  0.1168110E+00
         -3   -1    0    0    0  501 -0.00000000000E+00  0.00000000000E+00  0.15835554632E+03  0.15835554632E+03  0.00000000000E+00 0.  1.
          3   -1    0    0  501    0  0.00000000000E+00 -0.00000000000E+00 -0.21159297105E+03  0.21159297105E+03  0.00000000000E+00 0. -1.
         25    2    1    2    0    0 -0.14323960174E+03 -0.32528160487E+02 -0.42115959971E+02  0.19747714596E+03  0.12509118419E+03 0.  0.
          5    1    3    3  502    0 -0.10565438737E+03 -0.77463344154E+02 -0.12412358333E+02  0.13166228882E+03  0.41800000000E+01 0.  1.
         -5    1    3    3    0  502 -0.37585214373E+02  0.44935183666E+02 -0.29703601637E+02  0.65814857144E+02  0.41800000000E+01 0.  1.
        -11    1    1    2    0    0  0.10426960061E+03  0.61450501287E+02  0.55506010136E+01  0.12115743020E+03  0.00000000000E+00 0.  1.
         11    1    1    2    0    0  0.38970001130E+02 -0.28922340800E+02 -0.16672065775E+02  0.51313941212E+02  0.00000000000E+00 0. -1.
</event>
<event>
 6    1  0.2688177E-009  0.1554274E+03  0.7561462E-02  0.1193958E+00
         -3   -1    0    0    0  501 -0.00000000000E+00  0.00000000000E+00  0.92926689639E+02  0.92926689639E+02  0.00000000000E+00 0.  1.
          3   -1    0    0  501    0  0.00000000000E+00 -0.00000000000E+00 -0.30750225940E+03  0.30750225940E+03  0.00000000000E+00 0. -1.
          5    1    1    2  502    0  0.18045230773E+02 -0.50548555645E+02 -0.52967119823E+02  0.75523340854E+02  0.41800000000E+01 0.  1.
         -5    1    1    2    0  502 -0.10538951901E+03 -0.36494758409E+02 -0.15742778684E+02  0.11271257955E+03  0.41800000000E+01 0.  1.
        -11    1    1    2    0    0  0.76114274670E+02  0.21751971861E+02 -0.11371048053E+03  0.13855181150E+03  0.00000000000E+00 0. -1.
         11    1    1    2    0    0  0.11230013566E+02  0.65291342193E+02 -0.32155190726E+02  0.73641217132E+02  0.00000000000E+00 0.  1.
</event>
<event>
 7    1  0.2688177E-009  0.9304409E+02  0.7561462E-02  0.1295643E+00
         -1   -1    0    0    0  501 -0.00000000000E+00  0.00000000000E+00  0.38558647465E+03  0.38558647465E+03  0.00000000000E+00 0.  1.
          1   -1    0    0  501    0  0.00000000000E+00 -0.00000000000E+00 -0.32121906104E+02  0.32121906104E+02  0.00000000000E+00 0. -1.
         25    2    1    2    0    0 -0.22854742594E+02 -0.49218070496E+01  0.22627191049E+03  0.25960010153E+03  0.12508665714E+03 0.  0.
          5    1    3    3  502    0 -0.55464266563E+02  0.11907661661E+02  0.21282421654E+03  0.22029456829E+03  0.41800000000E+01 0.  1.
         -5    1    3    3    0  502  0.32609523969E+02 -0.16829468711E+02  0.13447693946E+02  0.39305533237E+02  0.41800000000E+01 0.  1.
        -11    1    1    2    0    0  0.31359130533E+02  0.43020288036E+02  0.87599247938E+02  0.10250740700E+03  0.00000000000E+00 0. -1.
         11    1    1    2    0    0 -0.85043879391E+01 -0.38098480986E+02  0.39593410123E+02  0.55600872231E+02  0.00000000000E+00 0.  1.
</event>
<event>
 7    1  0.2688177E-009  0.1105728E+03  0.7561462E-02  0.1259513E+00
          2   -1    0    0  501    0  0.00000000000E+00  0.00000000000E+00  0.94457595904E+03  0.94457595904E+03  0.00000000000E+00 0. -1.
         -2   -1    0    0    0  501 -0.00000000000E+00 -0.00000000000E+00 -0.14272925721E+02  0.14272925721E+02  0.00000000000E+00 0.  1.
         25    2    1    2    0    0 -0.19843518503E+02  0.38799054784E+00  0.67070895473E+03  0.68256311455E+03  0.12509191672E+03 0.  0.
          5    1    3    3  502    0 -0.70325590077E+02 -0.18091445385E+02  0.38400899693E+03  0.39083675766E+03  0.41800000000E+01 0. -1.
         -5    1    3    3    0  502  0.50482071574E+02  0.18479435933E+02  0.28669995780E+03  0.29172635689E+03  0.41800000000E+01 0. -1.
        -11    1    1    2    0    0 -0.29473501964E+02  0.25336414118E+02  0.10099258279E+03  0.10821332163E+03  0.00000000000E+00 0.  1.
         11    1    1    2    0    0  0.49317020467E+02 -0.25724404666E+02  0.15860149580E+03  0.16807244859E+03  0.00000000000E+00 0. -1.
</event>
<event>
 7    1  0.2688177E-009  0.1221509E+03  0.7561462E-02  0.1239590E+00
          2   -1    0    0  501    0  0.00000000000E+00  0.00000000000E+00  0.50991556223E+03  0.50991556223E+03  0.00000000000E+00 0. -1.
         -2   -1    0    0    0  501 -0.00000000000E+00 -0.00000000000E+00 -0.38944739048E+02  0.38944739048E+02  0.00000000000E+00 0.  1.
         25    2    1    2    0    0 -0.67021342132E+02 -0.91191338973E+01  0.14706541446E+03  0.20457393034E+03  0.12508892014E+03 0.  0.
          5    1    3    3  502    0  0.31621383977E+02  0.17713914001E+02  0.60038030717E+02  0.70254766431E+02  0.41800000000E+01 0. -1.
         -5    1    3    3    0  502 -0.98642726109E+02 -0.26833047898E+02  0.87027383739E+02  0.13431916391E+03  0.41800000000E+01 0. -1.
        -11    1    1    2    0    0 -0.14891991408E+02 -0.13948844363E+02  0.19553153035E+02  0.28260705242E+02  0.00000000000E+00 0.  1.
         11    1    1    2    0    0  0.81913333540E+02  0.23067978260E+02  0.30435225569E+03  0.31602566569E+03  0.00000000000E+00 0. -1.
</event>
<event>
 7    1  0.2688177E-009  0.1088294E+03  0.7561462E-02  0.1262753E+00
          2   -1    0    0  501    0  0.00000000000E+00  0.00000000000E+00  0.29409254260E+03  0.29409254260E+03  0.00000000000E+00 0. -1.
         -2   -1    0    0    0  501 -0.00000000000E+00 -0.00000000000E+00 -0.42107635609E+02  0.42107635609E+02  0.00000000000E+00 0.  1.
         25    2    1    2    0    0  0.18666279168E+02 -0.19165690994E+02  0.15622702780E+03  0.20191785660E+03  0.12509269727E+03 0.  0.
          5    1    3    3  502    0  0.69118875540E+02  0.22152751785E+01  0.11051788518E+03  0.13043773129E+03  0.41800000000E+01 0.  1.
         -5    1    3    3    0  502 -0.50452596372E+02 -0.21380966173E+02  0.45709142620E+02  0.71480125309E+02  0.41800000000E+01 0.  1.
        -11    1    1    2    0    0 -0.35273169099E+02 -0.26961503834E+02  0.37286431316E+02  0.57977556930E+02  0.00000000000E+00 0.  1.
         11    1    1    2    0    0  0.16606889930E+02  0.46127194828E+02  0.58471447875E+02  0.76304764678E+02  0.00000000000E+00 0. -1.
</event>
<event>
 7    1  0.2688177E-009  0.2172490E+03  0.7561462E-02  0.1135951E+00
          2   -1    0    0  501    0  0.00000000000E+00  0.00000000000E+00  0.23328486707E+04  0.23328486707E+04  0.00000000000E+00 0.  1.
         -2   -1    0    0    0  501 -0.00000000000E+00 -0.00000000000E+00 -0.22357693988E+02  0.22357693988E+02  0.00000000000E+00 0. -1.
         25    2    1    2    0    0  0.67219970570E+02 -0.18486009120E+03  0.14438423508E+04  0.14625386238E+04  0.12508682731E+03 0.  0.
          5    1    3    3  502    0  0.16723941572E+02  0.17320368326E+02  0.17289021782E+03  0.17460866301E+03  0.41800000000E+01 0. -1.
         -5    1    3    3    0  502  0.50496028999E+02 -0.20218045952E+03  0.12709521329E+04  0.12879299607E+04  0.41800000000E+01 0. -1.
        -11    1    1    2    0    0 -0.19493141296E+02  0.11731124696E+03  0.64958435033E+03  0.66037999623E+03  0.00000000000E+00 0.  1.
         11    1    1    2    0    0 -0.47726829274E+02  0.67548844242E+02  0.21706427564E+03  0.23228774472E+03  0.00000000000E+00 0. -1.
</event>
<event>
 7    1  0.2688177E-009  0.1325944E+03  0.7561462E-02  0.1223656E+00
          1   -1    0    0  501    0  0.00000000000E+00  0.00000000000E+00  0.34956821043E+02  0.34956821043E+02  0.00000000000E+00 0. -1.
         -1   -1    0    0    0  501 -0.00000000000E+00 -0.00000000000E+00 -0.57295554486E+03  0.57295554486E+03  0.00000000000E+00 0.  1.
         25    2    1    2    0    0 -0.23783815744E+02 -0.86767876562E+02 -0.30661540113E+03  0.34315446921E+03  0.12509057212E+03 0.  0.
          5    1    3    3  502    0  0.85430648352E+01 -0.10124384718E+03 -0.14161446083E+03  0.17434284747E+03  0.41800000000E+01 0.  1.
         -5    1    3    3    0  502 -0.32326880579E+02  0.14475970616E+02 -0.16500094030E+03  0.16881162174E+03  0.41800000000E+01 0.  1.
        -11    1    1    2    0    0  0.21921500274E+02 -0.14670655994E+02 -0.60947742598E+02  0.66410900080E+02  0.00000000000E+00 0. -1.
         11    1    1    2    0    0  0.18623154694E+01  0.10143853256E+03 -0.17043558008E+03  0.19834699661E+03  0.00000000000E+00 0.  1.
</event>
<event>
 7    1  0.2688177E-009  0.1073542E+03  0.7561462E-02  0.1265549E+00
         -1   -1    0    0    0  501 -0.00000000000E+00  0.00000000000E+00  0.69060655355E+03  0.69060655355E+03  0.00000000000E+00 0.  1.
          1   -1    0    0  501    0  0.00000000000E+00 -0.00000000000E+00 -0.22134649115E+02  0.22134649115E+02  0.00000000000E+00 0. -1.
         25    2    1    2    0    0 -0.17549639901E+02  0.50427783393E+02  0.38818073867E+03  0.41131979428E+03  0.12509490836E+03 0.  0.
          5    1    3    3  502    0  0.36576535660E+02  0.47356847171E+01  0.34781470679E+02  0.50867403838E+02  0.41800000000E+01 0.  1.
         -5    1    3    3    0  502 -0.54126175561E+02  0.45692098676E+02  0.35339926799E+03  0.36045239045E+03  0.41800000000E+01 0.  1.
        -11    1    1    2    0    0 -0.24452345639E+02 -0.58910411133E+02  0.20610859659E+03  0.21575242139E+03  0.00000000000E+00 0. -1.
         11    1    1    2    0    0  0.42001985540E+02  0.84826277392E+01  0.74182569169E+02  0.85668986986E+02  0.00000000000E+00 0.  1.
</event>
<event>
 7    1  0.2688177E-009  0.8874909E+02  0.7561462E-02  0.1305910E+00
          2   -1    0    0  501    0  0.00000000000E+00  0.00000000000E+00  0.11014922357E+04  0.11014922357E+04  0.00000000000E+00 0.  1.
         -2   -1    0    0    0  501 -0.00000000000E+00 -0.00000000000E+00 -0.17892405811E+02  0.17892405811E+02  0.00000000000E+00 0. -1.
         25    2    1    2    0    0 -0.27191689288E+02 -0.53244843087E+02  0.86962456187E+03  0.88060703151E+03  0.12508982389E+03 0.  0.
          5    1    3    3  502    0  0.11299379492E+02 -0.20153980762E+02  0.24448677877E+02  0.33897922759E+02  0.41800000000E+01 0. -1.
         -5    1    3    3    0  502 -0.38491068779E+02 -0.33090862325E+02  0.84517588400E+03  0.84670910875E+03  0.41800000000E+01 0. -1.
        -11    1    1    2    0    0  0.28308990256E+02  0.75587861448E+02  0.14120306580E+03  0.16264448813E+03  0.00000000000E+00 0.  1.
         11    1    1    2    0    0 -0.11173009686E+01 -0.22343018361E+02  0.72772202177E+02  0.76133121837E+02  0.00000000000E+00 0. -1.
</event>
<event>
 7    1  0.2688177E-009  0.8663804E+02  0.7561462E-02  0.1311204E+00
          1   -1    0    0  501    0  0.00000000000E+00  0.00000000000E+00  0.95915682220E+03  0.95915682220E+03  0.00000000000E+00 0. -1.
         -1   -1    0    0    0  501 -0.00000000000E+00 -0.00000000000E+00 -0.13554440156E+02  0.13554440156E+02  0.00000000000E+00 0.  1.
         25    2    1    2    0    0 -0.37701561331E+02 -0.66498992823E+01  0.68390433780E+03  0.69630455933E+03  0.12509703111E+03 0.  0.
          5    1    3    3  502    0  0.34923793216E+01 -0.44988606700E+02  0.10130802410E+03  0.11098179848E+03  0.41800000000E+01 0. -1.
         -5    1    3    3    0  502 -0.41193940653E+02  0.38338707417E+02  0.58259631370E+03  0.58532276085E+03  0.41800000000E+01 0. -1.
        -11    1    1    2    0    0  0.24347023698E+02 -0.26382344561E+02  0.48992647782E+02  0.60737839970E+02  0.00000000000E+00 0.  1.
         11    1    1    2    0    0  0.13354537634E+02  0.33032243843E+02  0.21270539646E+03  0.21566886305E+03  0.00000000000E+00 0. -1.
</event>
<event>
 7    1  0.2688177E-009  0.2561056E+03  0.7561462E-02  0.1109506E+00
          2   -1    0    0  501    0  0.00000000000E+00  0.00000000000E+00  0.42898081402E+03  0.42898081402E+03  0.00000000000E+00 0.  1.
         -2   -1    0    0    0  501 -0.00000000000E+00 -0.00000000000E+00 -0.18089454503E+03  0.18089454503E+03  0.00000000000E+00 0. -1.
         25    2    1    2    0    0  0.12951817669E+03  0.19463440323E+03  0.24166526854E+03  0.35875748644E+03  0.12508926031E+03 0.  0.
          5    1    3    3  502    0  0.97643562273E+02  0.20753615973E+03  0.19806830044E+03  0.30307432568E+03  0.41800000000E+01 0. -1.
         -5    1    3    3    0  502  0.31874614420E+02 -0.12901756495E+02  0.43596968103E+02  0.55683160766E+02  0.41800000000E+01 0. -1.
        -11    1    1    2    0    0 -0.85569369027E+02 -0.18404941836E+03  0.19909550213E+02  0.20394287314E+03  0.00000000000E+00 0. -1.
         11    1    1    2    0    0 -0.43948807666E+02 -0.10584984874E+02 -0.13488549758E+02  0.47174999466E+02  0.00000000000E+00 0.  1.
</event>
<event>
 7    1  0.2688177E-009  0.6018633E+02  0.7561462E-02  0.1397051E+00
         -2   -1    0    0    0  501 -0.00000000000E+00  0.00000000000E+00  0.36045478493E+02  0.36045478493E+02  0.00000000000E+00 0.  1.
          2   -1    0    0  501    0  0.00000000000E+00 -0.00000000000E+00 -0.31954166379E+03  0.31954166379E+03  0.00000000000E+00 0. -1.
         25    2    1    2    0    0  0.22145910085E+02  0.17432525465E+02 -0.17268171795E+03  0.21508218732E+03  0.12508811818E+03 0.  0.
          5    1    3    3  502    0 -0.69890750316E+01  0.58797626501E+01  0.18635271430E+02  0.21169896548E+02  0.41800000000E+01 0.  1.
         -5    1    3    3    0  502  0.29134985116E+02  0.11552762815E+02 -0.19131698938E+03  0.19391229077E+03  0.41800000000E+01 0.  1.
        -11    1    1    2    0    0  0.10792166252E+02  0.23683387925E+02 -0.67361003459E+02  0.72214115677E+02  0.00000000000E+00 0. -1.
         11    1    1    2    0    0 -0.32938076337E+02 -0.41115913390E+02 -0.43453463886E+02  0.68290839285E+02  0.00000000000E+00 0.  1.
</event>
<event>
 7    1  0.2688177E-009  0.3283555E+03  0.7561462E-02  0.1071867E+00
         -1   -1    0    0    0  501 -0.00000000000E+00  0.00000000000E+00  0.21835851786E+03  0.21835851786E+03  0.00000000000E+00 0.  1.
          1   -1    0    0  501    0  0.00000000000E+00 -0.00000000000E+00 -0.55575915710E+03  0.55575915710E+03  0.00000000000E+00 0. -1.
         25    2    1    2    0    0 -0.29970479848E+03 -0.11564915820E+03 -0.83215362374E+02  0.35463135356E+03  0.12506360929E+03 0.  0.
          5    1    3    3  502    0 -0.30387941237E+03 -0.10440876418E+03 -0.58190748885E+02  0.32656932335E+03  0.41800000000E+01 0. -1.
         -5    1    3    3    0  502  0.41746138933E+01 -0.11240394022E+02 -0.25024613489E+02  0.28062030205E+02  0.41800000000E+01 0. -1.
        -11    1    1    2    0    0  0.69960114036E+02  0.13551230050E+02 -0.10577791442E+03  0.12754223054E+03  0.00000000000E+00 0. -1.
         11    1    1    2    0    0  0.22974468444E+03  0.10209792815E+03 -0.14840736244E+03  0.29194409086E+03  0.00000000000E+00 0.  1.
</event>
<event>
 7    1  0.2688177E-009  0.1303383E+03  0.7561462E-02  0.1226955E+00
         -1   -1    0    0    0  501 -0.00000000000E+00  0.00000000000E+00  0.94175632975E+03  0.94175632975E+03  0.00000000000E+00 0.  1.
          1   -1    0    0  501    0  0.00000000000E+00 -0.00000000000E+00 -0.26787518983E+02  0.26787518983E+02  0.00000000000E+00 0. -1.
         25    2    1    2    0    0 -0.19685651486E+02 -0.11368777826E+03  0.52333934888E+03  0.55031267285E+03  0.12509007959E+03 0.  0.
          5    1    3    3  502    0 -0.23760979517E+02 -0.11430809533E+03  0.52924477506E+03  0.54198563555E+03  0.41800000000E+01 0.  1.
         -5    1    3    3    0  502  0.40753280312E+01  0.62031707207E+00 -0.59054261837E+01  0.83270373028E+01  0.41800000000E+01 0.  1.
        -11    1    1    2    0    0 -0.68113423504E+01  0.11115312774E+03  0.24386892847E+03  0.26809227230E+03  0.00000000000E+00 0.  1.
         11    1    1    2    0    0  0.26496993836E+02  0.25346505171E+01  0.14776053341E+03  0.15013890359E+03  0.00000000000E+00 0. -1.
</event>
<event>
 7    1  0.2688177E-009  0.9510159E+02  0.7561462E-02  0.1290947E+00
         -1   -1    0    0    0  501 -0.00000000000E+00  0.00000000000E+00  0.23311694083E+02  0.23311694083E+02  0.00000000000E+00 0.  1.
          1   -1    0    0  501    0  0.00000000000E+00 -0.00000000000E+00 -0.44754825451E+03  0.44754825451E+03  0.00000000000E+00 0. -1.
         25    2    1    2    0    0 -0.47935801774E+01  0.32943787405E+02 -0.28031828589E+03  0.30876143139E+03  0.12508800330E+03 0.  0.
          5    1    3    3  502    0 -0.22168980434E+02 -0.44370572690E+02 -0.97766863269E+02  0.10970890286E+03  0.41800000000E+01 0.  1.
         -5    1    3    3    0  502  0.17375400256E+02  0.77314360096E+02 -0.18255142262E+03  0.19905252853E+03  0.41800000000E+01 0.  1.
        -11    1    1    2    0    0  0.27902361314E+02 -0.14136464085E+02 -0.11964990678E+03  0.12367085985E+03  0.00000000000E+00 0. -1.
         11    1    1    2    0    0 -0.23108781137E+02 -0.18807323320E+02 -0.24268367761E+02  0.38427657356E+02  0.00000000000E+00 0.  1.
</event>
<event>
 7    1  0.2688177E-009  0.1394754E+03  0.7561462E-02  0.1214037E+00
          2   -1    0    0  501    0  0.00000000000E+00  0.00000000000E+00  0.87467466656E+02  0.87467466656E+02  0.00000000000E+00 0. -1.
         -2   -1    0    0    0  501 -0.00000000000E+00 -0.00000000000E+00 -0.31858028013E+03  0.31858028013E+03  0.00000000000E+00 0.  1.
         25    2    1    2    0    0 -0.11842332907E+03 -0.43929789027E+02 -0.14273630194E+03  0.22798159207E+03  0.12509213884E+03 0.  0.
          5    1    3    3  502    0 -0.25070250386E+02 -0.82352522281E+01 -0.12319516535E+03  0.12605894652E+03  0.41800000000E+01 0. -1.
         -5    1    3    3    0  502 -0.93353078680E+02 -0.35694536799E+02 -0.19541136598E+02  0.10192264555E+03  0.41800000000E+01 0. -1.
        -11    1    1    2    0    0  0.91375995151E+02  0.69637101785E+02 -0.79496345820E+02  0.13970886670E+03  0.00000000000E+00 0. -1.
         11    1    1    2    0    0  0.27047333915E+02 -0.25707312758E+02 -0.88801657120E+01  0.38357288020E+02  0.00000000000E+00 0.  1.
</event>
<event>
 6    1  0.2688177E-009  0.7306698E+02  0.7561462E-02  0.1349964E+00
         -4   -1    0    0    0  501 -0.00000000000E+00  0.00000000000E+00  0.22506646113E+02  0.22506646113E+02  0.00000000000E+00 0.  1.
          4   -1    0    0  501    0  0.00000000000E+00 -0.00000000000E+00 -0.81319731895E+03  0.81319731895E+03  0.00000000000E+00 0. -1.
          5    1    1    2  502    0  0.37335455001E+02 -0.49780329137E+02 -0.12119477836E+03  0.13629990488E+03  0.41800000000E+01 0.  1.
         -5    1    1    2    0  502 -0.63887442454E+00  0.63153270385E+01 -0.48875694540E+03  0.48881603451E+03  0.41800000000E+01 0.  1.
        -11    1    1    2    0    0 -0.41410374242E+02  0.10303330890E+02 -0.21346535660E+02  0.47714277810E+02  0.00000000000E+00 0.  1.
         11    1    1    2    0    0  0.47137936655E+01  0.33161671208E+02 -0.15939241341E+03  0.16287374785E+03  0.00000000000E+00 0. -1.
</event>
<event>
 7    1  0.2688177E-009  0.1171220E+03  0.7561462E-02  0.1247922E+00
         -2   -1    0    0    0  501 -0.00000000000E+00  0.00000000000E+00  0.70019213850E+03  0.70019213850E+03  0.00000000000E+00 0.  1.
          2   -1    0    0  501    0  0.00000000000E+00 -0.00000000000E+00 -0.36135251444E+02  0.36135251444E+02  0.00000000000E+00 0. -1.
         25    2    1    2    0    0  0.84260228751E+01 -0.91689240159E+02  0.19677745485E+03  0.25069184024E+03  0.12508843832E+03 0.  0.
          5    1    3    3  502    0 -0.24897986973E+02 -0.41290106919E+02  0.18203551552E+03  0.18835918877E+03  0.41800000000E+01 0. -1.
         -5    1    3    3    0  502  0.33324009849E+02 -0.50399133240E+02  0.14741939333E+02  0.62332651468E+02  0.41800000000E+01 0. -1.
        -11    1    1    2    0    0  0.34981825183E+02  0.16995430103E+02  0.22677008927E+03  0.23008095559E+03  0.00000000000E+00 0.  1.
         11    1    1    2    0    0 -0.43407848058E+02  0.74693810056E+02  0.24050934293E+03  0.25555459411E+03  0.00000000000E+00 0. -1.
</event>
<event>
 7    1  0.2688177E-009  0.9521300E+02  0.7561462E-02  0.1290697E+00
          2   -1    0    0  501    0  0.00000000000E+00  0.00000000000E+00  0.35238897383E+03  0.35238897383E+03  0.00000000000E+00 0.  1.
         -2   -1    0    0    0  501 -0.00000000000E+00 -0.00000000000E+00 -0.39756900194E+02  0.39756900194E+02  0.00000000000E+00 0. -1.
         25    2    1    2    0    0  0.22770093482E+01  0.46748565701E+02  0.16662725059E+03  0.21354921416E+03  0.12509201838E+03 0.  0.
          5    1    3    3  502    0 -0.10251263267E+02  0.66218507835E+02  0.27672636425E+02  0.72616984137E+02  0.41800000000E+01 0. -1.
         -5    1    3    3    0  502  0.12528272615E+02 -0.19469942133E+02  0.13895461417E+03  0.14093223003E+03  0.41800000000E+01 0. -1.
        -11    1    1    2    0    0  0.42119170019E+02 -0.13279031510E+02  0.86733868454E+02  0.97329959919E+02  0.00000000000E+00 0.  1.
         11    1    1    2    0    0 -0.44396179367E+02 -0.33469534192E+02  0.59270954586E+02  0.81266699938E+02  0.00000000000E+00 0. -1.
</event>
<event>
 7    1  0.2688177E-009  0.9222782E+02  0.7561462E-02  0.1297545E+00
         -1   -1    0    0    0  501 -0.00000000000E+00  0.00000000000E+00  0.16524149167E+03  0.16524149167E+03  0.00000000000E+00 0.  1.
          1   -1    0    0  501    0  0.00000000000E+00 -0.00000000000E+00 -0.10963442194E+03  0.10963442194E+03  0.00000000000E+00 0. -1.
         25    2    1    2    0    0  0.50338787584E+02 -0.48674709104E+02  0.53032101657E+02  0.15284910006E+03  0.12508885938E+03 0.  0.
          5    1    3    3  502    0  0.21244578398E+02 -0.21299648906E+01 -0.39549002505E+02  0.45138285976E+02  0.41800000000E+01 0.  1.
         -5    1    3    3    0  502  0.29094209187E+02 -0.46544744213E+02  0.92581104162E+02  0.10771081408E+03  0.41800000000E+01 0.  1.
        -11    1    1    2    0    0  0.25052825467E+01  0.54435745608E+02  0.30006835239E+02  0.62208817716E+02  0.00000000000E+00 0.  1.
         11    1    1    2    0    0 -0.52844070131E+02 -0.57610365044E+01 -0.27431867166E+02  0.59817995836E+02  0.00000000000E+00 0. -1.
</event>
<event>
 7    1  0.2688177E-009  0.1092674E+03  0.7561462E-02  0.1261933E+00
          1   -1    0    0  501    0  0.00000000000E+00  0.00000000000E+00  0.21930400496E+02  0.21930400496E+02  0.00000000000E+00 0. -1.
         -1   -1    0    0    0  501 -0.00000000000E+00 -0.00000000000E+00 -0.88853692089E+03  0.88853692089E+03  0.00000000000E+00 0.  1.
         25    2    1    2    0    0 -0.34373479083E+02 -0.72028231692E+02 -0.57465740224E+03  0.59350631594E+03  0.12509602265E+03 0.  0.
          5    1    3    3  502    0 -0.62151464402E+02 -0.79788943990E+02 -0.28607013458E+03  0.30345127189E+03  0.41800000000E+01 0.  1.
         -5    1    3    3    0  502  0.27777985319E+02  0.77607122978E+01 -0.28858726766E+03  0.29005504405E+03  0.41800000000E+01 0.  1.
        -11    1    1    2    0    0 -0.20308496918E+01  0.38875409380E+02 -0.26758539707E+02  0.47238133454E+02  0.00000000000E+00 0. -1.
         11    1    1    2    0    0  0.36404328774E+02  0.33152822312E+02 -0.26519057844E+03  0.26972287199E+03  0.00000000000E+00 0.  1.
</event>
<event>
 7    1  0.2688177E-009  0.1068919E+03  0.7561462E-02  0.1266436E+00
          1   -1    0    0  501    0  0.00000000000E+00  0.00000000000E+00  0.87286444564E+02  0.87286444564E+02  0.00000000000E+00 0. -1.
         -1   -1    0    0    0  501 -0.00000000000E+00 -0.00000000000E+00 -0.25351534942E+03  0.25351534942E+03  0.00000000000E+00 0.  1.
         25    2    1    2    0    0 -0.28108830597E+01  0.89403156883E+02 -0.14736082706E+03  0.21299126234E+03  0.12509691826E+03 0.  0.
          5    1    3    3  502    0 -0.97137332200E+01 -0.90863729046E+01 -0.10424846162E+03  0.10517667487E+03  0.41800000000E+01 0. -1.
         -5    1    3    3    0  502  0.69028501603E+01  0.98489529787E+02 -0.43112365439E+02  0.10781458747E+03  0.41800000000E+01 0. -1.
        -11    1    1    2    0    0  0.23479410502E+02 -0.64607486929E+02 -0.48390674601E+02  0.84065852004E+02  0.00000000000E+00 0.  1.
         11    1    1    2    0    0 -0.20668527443E+02 -0.24795669953E+02  0.29522596803E+02  0.43744679643E+02  0.00000000000E+00 0. -1.
</event>
<event>
 7    1  0.2688177E-009  0.1635095E+03  0.7561462E-02  0.1184791E+00
          1   -1    0    0  501    0  0.00000000000E+00  0.00000000000E+00  0.16321053156E+03  0.16321053156E+03  0.00000000000E+00 0. -1.
         -1   -1    0    0    0  501 -0.00000000000E+00 -0.00000000000E+00 -0.40386006712E+03  0.40386006712E+03  0.00000000000E+00 0.  1.
         25    2    1    2    0    0 -0.12395888026E+03  0.50073889897E+02  0.86309409128E+02  0.20241314713E+03  0.12509424279E+03 0.  0.
          5    1    3    3  502    0 -0.44010074799E+02 -0.37511082069E+02  0.54478183670E+02  0.79556978686E+02  0.41800000000E+01 0. -1.
         -5    1    3    3    0  502 -0.79948805463E+02  0.87584971966E+02  0.31831225458E+02  0.12285616844E+03  0.41800000000E+01 0. -1.
        -11    1    1    2    0    0  0.61960919011E+02  0.11479753125E+02 -0.20616879792E+03  0.21558412152E+03  0.00000000000E+00 0.  1.
         11    1    1    2    0    0  0.61997961251E+02 -0.61553643022E+02 -0.12079014678E+03  0.14907333003E+03  0.00000000000E+00 0. -1.
</event>
<event>
 7    1  0.2688177E-009  0.1147835E+03  0.7561462E-02  0.1251959E+00
         -1   -1    0    0    0  501 -0.00000000000E+00  0.00000000000E+00  0.28591429669E+03  0.28591429669E+03  0.00000000000E+00 0.  1.
          1   -1    0    0  501    0  0.00000000000E+00 -0.00000000000E+00 -0.55995234672E+02  0.55995234672E+02  0.00000000000E+00 0. -1.
         25    2    1    2    0    0  0.33667386792E+02 -0.37096888945E+02  0.18051979500E+03  0.22526460872E+03  0.12508827063E+03 0.  0.
          5    1    3    3  502    0  0.49010555941E+02  0.33918002871E+02  0.61393853742E+02  0.85668799395E+02  0.41800000000E+01 0.  1.
         -5    1    3    3    0  502 -0.15343169149E+02 -0.71014891816E+02  0.11912594126E+03  0.13959580932E+03  0.41800000000E+01 0.  1.
        -11    1    1    2    0    0  0.25365671303E+02 -0.32032586147E+01 -0.59409940680E+01  0.26248305792E+02  0.00000000000E+00 0. -1.
         11    1    1    2    0    0 -0.59033058095E+02  0.40300147560E+02  0.55340261081E+02  0.90396616850E+02  0.00000000000E+00 0.  1.
</event>
<event>
 7    1  0.2688177E-009  0.4294693E+03  0.7561462E-02  0.1034028E+00
         -4   -1    0    0    0  501 -0.00000000000E+00  0.00000000000E+00  0.52456261322E+03  0.52456261322E+03  0.00000000000E+00 0.  1.
          4   -1    0    0  501    0  0.00000000000E+00 -0.00000000000E+00 -0.48379653051E+03  0.48379653051E+03  0.00000000000E+00 0. -1.
         25    2    1    2    0    0 -0.40568555257E+03 -0.11309138529E+03  0.27473034956E+03  0.51816441309E+03  0.12508862870E+03 0.  0.
          5    1    3    3  502    0 -0.35369704674E+03 -0.69237419567E+02  0.26906283710E+03  0.44978628687E+03  0.41800000000E+01 0. -1.
         -5    1    3    3    0  502 -0.51988505825E+02 -0.43853965727E+02  0.56675124551E+01  0.68378126220E+02  0.41800000000E+01 0. -1.
        -11    1    1    2    0    0  0.18399244010E+03  0.58334033333E+01 -0.11050015635E+03  0.21470335619E+03  0.00000000000E+00 0. -1.
         11    1    1    2    0    0  0.22169311247E+03  0.10725798196E+03 -0.12346411050E+03  0.27549137444E+03  0.00000000000E+00 0.  1.
</event>
<event>
 7    1  0.2688177E-009  0.1045802E+03  0.7561462E-02  0.1270949E+00
          2   -1    0    0  501    0  0.00000000000E+00  0.00000000000E+00  0.68220370386E+03  0.68220370386E+03  0.00000000000E+00 0. -1.
         -2   -1    0    0    0  501 -0.00000000000E+00 -0.00000000000E+00 -0.17797697879E+02  0.17797697879E+02  0.00000000000E+00 0.  1.
         25    2    1    2    0    0  0.11217684951E+02  0.18214470583E+02  0.37242013499E+03  0.39344858125E+03  0.12508967084E+03 0.  0.
          5    1    3    3  502    0 -0.52934417912E+02  0.19264643295E+02  0.11504768462E+03  0.12816638100E+03  0.41800000000E+01 0. -1.
         -5    1    3    3    0  502  0.64152102862E+02 -0.10501727118E+01  0.25737245037E+03  0.26528220026E+03  0.41800000000E+01 0. -1.
        -11    1    1    2    0    0 -0.41621444993E+02 -0.34343027391E+02  0.12654046494E+03  0.13756553886E+03  0.00000000000E+00 0.  1.
         11    1    1    2    0    0  0.30403760043E+02  0.16128556808E+02  0.16544540605E+03  0.16898728163E+03  0.00000000000E+00 0. -1.
</event>
<event>
 6    1  0.2688177E-009  0.9232728E+02  0.7561462E-02  0.1297312E+00
          1   -1    0    0  501    0  0.00000000000E+00  0.00000000000E+00  0.80662475216E+03  0.80662475216E+03  0.00000000000E+00 0. -1.
         -1   -1    0    0    0  501 -0.00000000000E+00 -0.00000000000E+00 -0.15272288723E+02  0.15272288723E+02  0.00000000000E+00 0.  1.
          5    1    1    2  502    0  0.36675619382E+02  0.34308547145E+02  0.35253943481E+03  0.35612315701E+03  0.41800000000E+01 0. -1.
         -5    1    1    2    0  502 -0.59801775453E+02 -0.38914990491E+02  0.26825875044E+03  0.27761638716E+03  0.41800000000E+01 0. -1.
        -11    1    1    2    0    0 -0.17156598909E+02  0.13141903263E+02  0.12457265159E+03  0.12643339761E+03  0.00000000000E+00 0. -1.
         11    1    1    2    0    0  0.40282754980E+02 -0.85354599174E+01  0.45981626591E+02  0.61724099093E+02  0.00000000000E+00 0.  1.
</event>
<event>
 7    1  0.2688177E-009  0.7127249E+02  0.7561462E-02  0.1355819E+00
          3   -1    0    0  501    0  0.00000000000E+00  0.00000000000E+00  0.58819635656E+02  0.58819635656E+02  0.00000000000E+00 0. -1.
         -3   -1    0    0    0  501 -0.00000000000E+00 -0.00000000000E+00 -0.20150604185E+03  0.20150604185E+03  0.00000000000E+00 0.  1.
         25    2    1    2    0    0  0.68607415299E+01 -0.76222766561E+01 -0.81737751381E+02  0.14978110435E+03  0.12509256711E+03 0.  0.
          5    1    3    3  502    0 -0.21894193441E+02 -0.38809087824E+01 -0.10805573605E+03  0.11039896582E+03  0.41800000000E+01 0.  1.
         -5    1    3    3    0  502  0.28754934970E+02 -0.37413678736E+01  0.26317984671E+02  0.39382138539E+02  0.41800000000E+01 0.  1.
        -11    1    1    2    0    0 -0.47688667708E+02 -0.48444746072E+01 -0.42416830146E+02  0.64006760905E+02  0.00000000000E+00 0.  1.
         11    1    1    2    0    0  0.40827926178E+02  0.12466751263E+02 -0.18531824663E+02  0.46537812243E+02  0.00000000000E+00 0. -1.
</event>
<event>
 7    1  0.2688177E-009  0.9611424E+02  0.7561462E-02  0.1288686E+00
          2   -1    0    0  501    0  0.00000000000E+00  0.00000000000E+00  0.37309967215E+03  0.37309967215E+03  0.00000000000E+00 0. -1.
         -2   -1    0    0    0  501 -0.00000000000E+00 -0.00000000000E+00 -0.49729176430E+02  0.49729176430E+02  0.00000000000E+00 0.  1.
         25    2    1    2    0    0  0.81569678777E+01 -0.72747878430E+02  0.12056331950E+03  0.18852847139E+03  0.12509468644E+03 0.  0.
          5    1    3    3  502    0  0.37030864084E+01 -0.74144339733E+01 -0.26182891193E+02  0.27779540517E+02  0.41800000000E+01 0. -1.
         -5    1    3    3    0  502  0.44538814693E+01 -0.65333444457E+02  0.14674621070E+03  0.16074893088E+03  0.41800000000E+01 0. -1.
        -11    1    1    2    0    0  0.29855244319E+02  0.73474803165E+02  0.13733696389E+03  0.15859168945E+03  0.00000000000E+00 0.  1.
         11    1    1    2    0    0 -0.38012212197E+02 -0.72692473456E+00  0.65470212331E+02  0.75708687733E+02  0.00000000000E+00 0. -1.
</event>
<event>
 7    1  0.2688177E-009  0.1558267E+03  0.7561462E-02  0.1193491E+00
         -2   -1    0    0    0  501 -0.00000000000E+00  0.00000000000E+00  0.16300552083E+03  0.16300552083E+03  0.00000000000E+00 0.  1.
          2   -1    0    0  501    0  0.00000000000E+00 -0.00000000000E+00 -0.18806079323E+03  0.18806079323E+03  0.00000000000E+00 0. -1.
         25    2    1    2    0    0  0.13105135308E+03 -0.35283975716E+02 -0.31718937006E+02  0.18727749459E+03  0.12508937976E+03 0.  0.
          5    1    3    3  502    0 -0.54433240714E+01 -0.38558345788E+01 -0.45773916274E+02  0.46445893773E+02  0.41800000000E+01 0. -1.
         -5    1    3    3    0  502  0.13649467715E+03 -0.31428141137E+02  0.14054979268E+02  0.14083160082E+03  0.41800000000E+01 0. -1.
        -11    1    1    2    0    0 -0.14532562010E+03  0.34456571923E+02  0.59791609085E+01  0.14947421708E+03  0.00000000000E+00 0.  1.
         11    1    1    2    0    0  0.14274267024E+02  0.82740379237E+00  0.68450370010E+00  0.14314602385E+02  0.00000000000E+00 0. -1.
</event>
<event>
 7    1  0.2688177E-009  0.1118108E+03  0.7561462E-02  0.1257253E+00
          1   -1    0    0  501    0  0.00000000000E+00  0.00000000000E+00  0.35854596401E+02  0.35854596401E+02  0.00000000000E+00 0. -1.
         -1   -1    0    0    0  501 -0.00000000000E+00 -0.00000000000E+00 -0.47542732659E+03  0.47542732659E+03  0.00000000000E+00 0.  1.
         25    2    1    2    0    0  0.25380789045E+02 -0.67105584790E+02 -0.25433021329E+03  0.29236851285E+03  0.12509254954E+03 0.  0.
          5    1    3    3  502    0  0.75012524336E+02 -0.51313488326E+02 -0.17743368746E+03  0.19939944518E+03  0.41800000000E+01 0.  1.
         -5    1    3    3    0  502 -0.49631735291E+02 -0.15792096464E+02 -0.76896525829E+02  0.92969067669E+02  0.41800000000E+01 0.  1.
        -11    1    1    2    0    0  0.89986334562E+01  0.81390978735E+01  0.76205741052E+01  0.14328065744E+02  0.00000000000E+00 0. -1.
         11    1    1    2    0    0 -0.34379422502E+02  0.58966486917E+02 -0.19286309100E+03  0.20458534440E+03  0.00000000000E+00 0.  1.
</event>
<event>
 7    1  0.2688177E-009  0.1105305E+03  0.7561462E-02  0.1259591E+00
          2   -1    0    0  501    0  0.00000000000E+00  0.00000000000E+00  0.94976305221E+03  0.94976305221E+03  0.00000000000E+00 0. -1.
         -2   -1    0    0    0  501 -0.00000000000E+00 -0.00000000000E+00 -0.14765200983E+02  0.14765200983E+02  0.00000000000E+00 0.  1.
         25    2    1    2    0    0 -0.29418006077E+02 -0.16243936508E+02  0.68579304836E+03  0.69791690347E+03  0.12508642776E+03 0.  0.
          5    1    3    3  502    0 -0.24310461288E+02  0.52377907422E+02  0.38472944463E+03  0.38906125697E+03  0.41800000000E+01 0.  1.
         -5    1    3    3    0  502 -0.51075447883E+01 -0.68621843930E+02  0.30106360373E+03  0.30885564649E+03  0.41800000000E+01 0.  1.
        -11    1    1    2    0    0  0.52811916417E+02  0.35744446195E+02  0.15500495671E+03  0.16761056218E+03  0.00000000000E+00 0.  1.
         11    1    1    2    0    0 -0.23393910341E+02 -0.19500509686E+02  0.94199846153E+02  0.99000787544E+02  0.00000000000E+00 0. -1.
</event>
<event>
 7    1  0.2688177E-009  0.5808088E+02  0.7561462E-02  0.1406067E+00
         -1   -1    0    0    0  501 -0.00000000000E+00  0.00000000000E+00  0.37999391979E+02  0.37999391979E+02  0.00000000000E+00 0.  1.
          1   -1    0    0  501    0  0.00000000000E+00 -0.00000000000E+00 -0.31703418141E+03  0.31703418141E+03  0.00000000000E+00 0. -1.
         25    2    1    2    0    0  0.40089884319E+01  0.17984089559E+02 -0.16605968990E+03  0.20871691846E+03  0.12508969571E+03 0.  0.
          5    1    3    3  502    0 -0.11049723343E+02  0.73257716351E+01 -0.18287767291E+03  0.18340523156E+03  0.41800000000E+01 0.  1.
         -5    1    3    3    0  502  0.15058711775E+02  0.10658317924E+02  0.16817983002E+02  0.25311686897E+02  0.41800000000E+01 0.  1.
        -11    1    1    2    0    0  0.88802580606E+01 -0.48978282082E+02 -0.33380059032E+02  0.59932957877E+02  0.00000000000E+00 0.  1.
         11    1    1    2    0    0 -0.12889246492E+02  0.30994192523E+02 -0.79595040494E+02  0.86383697053E+02  0.00000000000E+00 0. -1.
</event>
<event>
 7    1  0.2688177E-009  0.7613076E+02  0.7561462E-02  0.1340405E+00
         -1   -1    0    0    0  501 -0.00000000000E+00  0.00000000000E+00  0.59037944957E+02  0.59037944957E+02  0.00000000000E+00 0.  1.
          1   -1    0    0  501    0  0.00000000000E+00 -0.00000000000E+00 -0.30147466400E+03  0.30147466400E+03  0.00000000000E+00 0. -1.
         25    2    1    2    0    0 -0.19087817138E+02  0.61790009507E+02 -0.79960640394E+02  0.16193652349E+03  0.12508950231E+03 0.  0.
          5    1    3    3  502    0 -0.14974065653E+02  0.73457237450E+01 -0.10160882505E+03  0.10305342317E+03  0.41800000000E+01 0. -1.
         -5    1    3    3    0  502 -0.41137514857E+01  0.54444285762E+02  0.21648184658E+02  0.58883100312E+02  0.41800000000E+01 0. -1.
        -11    1    1    2    0    0 -0.16090223277E+02 -0.18172195956E+02 -0.13312334345E+03  0.13531795358E+03  0.00000000000E+00 0. -1.
         11    1    1    2    0    0  0.35178040416E+02 -0.43617813552E+02 -0.29352735207E+02  0.63258131894E+02  0.00000000000E+00 0.  1.
</event>
<event>
 7    1  0.2688177E-009  0.1080924E+03  0.7561462E-02  0.1264144E+00
          2   -1    0    0  501    0  0.00000000000E+00  0.00000000000E+00  0.45789918529E+03  0.45789918529E+03  0.00000000000E+00 0. -1.
         -2   -1    0    0    0  501 -0.00000000000E+00 -0.00000000000E+00 -0.36151947587E+02  0.36151947587E+02  0.00000000000E+00 0.  1.
         25    2    1    2    0    0 -0.68912137125E+02 -0.87780174011E+01  0.23983785152E+03  0.27928024098E+03  0.12509724917E+03 0.  0.
          5    1    3    3  502    0 -0.95579258648E+01  0.35630565920E+02  0.11033753958E+02  0.38731218688E+02  0.41800000000E+01 0.  1.
         -5    1    3    3    0  502 -0.59354211260E+02 -0.44408583321E+02  0.22880409756E+03  0.24054902230E+03  0.41800000000E+01 0.  1.
        -11    1    1    2    0    0  0.15818477766E+02 -0.33431186485E+02  0.27397501933E+02  0.46027074432E+02  0.00000000000E+00 0.  1.
         11    1    1    2    0    0  0.53093659359E+02  0.42209203886E+02  0.15451188425E+03  0.16874381747E+03  0.00000000000E+00 0. -1.
</event>
<event>
 7    1  0.2688177E-009  0.1162332E+03  0.7561462E-02  0.1249444E+00
         -2   -1    0    0    0  501 -0.00000000000E+00  0.00000000000E+00  0.71114037032E+02  0.71114037032E+02  0.00000000000E+00 0. -1.
          2   -1    0    0  501    0  0.00000000000E+00 -0.00000000000E+00 -0.23951630597E+03  0.23951630597E+03  0.00000000000E+00 0.  1.
         25    2    1    2    0    0 -0.51222107190E+02  0.45929529236E+02 -0.11829555834E+03  0.18540332075E+03  0.12508927333E+03 0.  0.
          5    1    3    3  502    0 -0.22905848601E+02  0.76601119039E+02 -0.26262214190E+02  0.84259038876E+02  0.41800000000E+01 0.  1.
         -5    1    3    3    0  502 -0.28316258588E+02 -0.30671589802E+02 -0.92033344146E+02  0.10114428188E+03  0.41800000000E+01 0.  1.
        -11    1    1    2    0    0  0.19762101650E+02  0.25581990432E+02  0.16128135280E+00  0.32326535660E+02  0.00000000000E+00 0. -1.
         11    1    1    2    0    0  0.31460005540E+02 -0.71511519668E+02 -0.50267991959E+02  0.92900486594E+02  0.00000000000E+00 0.  1.
</event>
<event>
 7    1  0.2688177E-009  0.1002608E+03  0.7561462E-02  0.1279748E+00
          2   -1    0    0  501    0  0.00000000000E+00  0.00000000000E+00  0.26441605162E+03  0.26441605162E+03  0.00000000000E+00 0.  1.
         -2   -1    0    0    0  501 -0.00000000000E+00 -0.00000000000E+00 -0.54982374825E+02  0.54982374825E+02  0.00000000000E+00 0. -1.
         25    2    1    2    0    0  0.16615403644E+01 -0.20936055566E+02  0.12288205219E+03  0.17660152946E+03  0.12508805825E+03 0.  0.
          5    1    3    3  502    0 -0.40110844296E+02  0.11059393928E+02 -0.11207909945E+01  0.41832028359E+02  0.41800000000E+01 0. -1.
         -5    1    3    3    0  502  0.41772384660E+02 -0.31995449494E+02  0.12400284319E+03  0.13476950110E+03  0.41800000000E+01 0. -1.
        -11    1    1    2    0    0 -0.22521211638E+02 -0.37572447693E+02  0.62202504408E+02  0.76079204477E+02  0.00000000000E+00 0.  1.
         11    1    1    2    0    0  0.20859671274E+02  0.58508503259E+02  0.24349120193E+02  0.66717692506E+02  0.00000000000E+00 0. -1.
</event>
<event>
 7    1  0.2688177E-009  0.1082058E+03  0.7561462E-02  0.1263929E+00
         -1   -1    0    0    0  501 -0.00000000000E+00  0.00000000000E+00  0.48964454595E+03  0.48964454595E+03  0.00000000000E+00 0.  1.
          1   -1    0    0  501    0  0.00000000000E+00 -0.00000000000E+00 -0.33674242928E+02  0.33674242928E+02  0.00000000000E+00 0. -1.
         25    2    1    2    0    0  0.30247469508E+02  0.18135023165E+02  0.13216506422E+03  0.18536178889E+03  0.12509036775E+03 0.  0.
          5    1    3    3  502    0  0.73399747512E+02  0.32087532154E+02  0.10568293813E+03  0.13267813861E+03  0.41800000000E+01 0.  1.
         -5    1    3    3    0  502 -0.43152278004E+02 -0.13952508988E+02  0.26482126090E+02  0.52683650275E+02  0.41800000000E+01 0.  1.
        -11    1    1    2    0    0 -0.33399816314E+02 -0.49178714824E+02  0.14959577051E+03  0.16097511695E+03  0.00000000000E+00 0. -1.
         11    1    1    2    0    0  0.31523468056E+01  0.31043691659E+02  0.17420946830E+03  0.17698188304E+03  0.00000000000E+00 0.  1.
</event>
<event>
 7    1  0.2688177E-009  0.1257769E+03  0.7561462E-02  0.1233860E+00
         -2   -1    0    0    0  501 -0.00000000000E+00  0.00000000000E+00  0.82983984389E+02  0.82983984389E+02  0.00000000000E+00 0.  1.
          2   -1    0    0  501    0  0.00000000000E+00 -0.00000000000E+00 -0.38339746409E+03  0.38339746409E+03  0.00000000000E+00 0. -1.
         25    2    1    2    0    0 -0.79506460232E+02  0.22237750042E+02 -0.90922601252E+01  0.15015392509E+03  0.12509091606E+03 0.  0.
          5    1    3    3  502    0  0.31540588755E+02 -0.77774661807E+01 -0.12338808705E+02  0.35000233135E+02  0.41800000000E+01 0. -1.
         -5    1    3    3    0  502 -0.11104704899E+03  0.30015216222E+02  0.32465485802E+01  0.11515369196E+03  0.41800000000E+01 0. -1.
        -11    1    1    2    0    0 -0.49551938885E+01  0.11670333028E+02 -0.18841419038E+01  0.12817979956E+02  0.00000000000E+00 0.  1.
         11    1    1    2    0    0  0.84461654121E+02 -0.33908083069E+02 -0.28943707768E+03  0.30340954344E+03  0.00000000000E+00 0. -1.
</event>
<event>
 7    1  0.2688177E-009  0.1012505E+03  0.7561462E-02  0.1277688E+00
          1   -1    0    0  501    0  0.00000000000E+00  0.00000000000E+00  0.37070218000E+03  0.37070218000E+03  0.00000000000E+00 0. -1.
         -1   -1    0    0    0  501 -0.00000000000E+00 -0.00000000000E+00 -0.44292372811E+02  0.44292372811E+02  0.00000000000E+00 0.  1.
         25    2    1    2    0    0 -0.85314498606E+01  0.19419561918E+02  0.29113420147E+03  0.31758104130E+03  0.12509472214E+03 0.  0.
          5    1    3    3  502    0  0.36182706259E+02 -0.28348391208E+02  0.20034705291E+03  0.20559482855E+03  0.41800000000E+01 0.  1.
         -5    1    3    3    0  502 -0.44714156120E+02  0.47767953127E+02  0.90787148562E+02  0.11198621276E+03  0.41800000000E+01 0.  1.
        -11    1    1    2    0    0  0.45234251468E+02 -0.27854428336E+02  0.19633728899E+02  0.56634706623E+02  0.00000000000E+00 0.  1.
         11    1    1    2    0    0 -0.36702801607E+02  0.84348664178E+01  0.15641876817E+02  0.40778804883E+02  0.00000000000E+00 0. -1.
</event>
<event>
 7    1  0.2688177E-009  0.1105716E+03  0.7561462E-02  0.1259515E+00
          2   -1    0    0  501    0  0.00000000000E+00  0.00000000000E+00  0.34701989832E+03  0.34701989832E+03  0.00000000000E+00 0. -1.
         -2   -1    0    0    0  501 -0.00000000000E+00 -0.00000000000E+00 -0.42098333213E+02  0.42098333213E+02  0.00000000000E+00 0.  1.
         25    2    1    2    0    0 -0.27066013225E+02 -0.42536321527E+02  0.13788727002E+03  0.19288069363E+03  0.12509258579E+03 0.  0.
          5    1    3    3  502    0 -0.38658587494E+02  0.27837080719E+02  0.13930511027E+02  0.49808844470E+02  0.41800000000E+01 0.  1.
         -5    1    3    3    0  502  0.11592574269E+02 -0.70373402245E+02  0.12395675900E+03  0.14307184916E+03  0.41800000000E+01 0.  1.
        -11    1    1    2    0    0  0.49961692414E+02  0.56214106327E+02  0.10971359181E+03  0.13301604673E+03  0.00000000000E+00 0. -1.
         11    1    1    2    0    0 -0.22895679189E+02 -0.13677784801E+02  0.57320703274E+02  0.63221491175E+02  0.00000000000E+00 0.  1.
</event>
<event>
 7    1  0.2688177E-009  0.1143597E+03  0.7561462E-02  0.1252703E+00
          2   -1    0    0  501    0  0.00000000000E+00  0.00000000000E+00  0.30097469894E+03  0.30097469894E+03  0.00000000000E+00 0. -1.
         -2   -1    0    0    0  501 -0.00000000000E+00 -0.00000000000E+00 -0.45173844083E+02  0.45173844083E+02  0.00000000000E+00 0.  1.
         25    2    1    2    0    0 -0.37298808357E+02  0.11175766734E+02  0.12485480997E+03  0.18097995302E+03  0.12509564722E+03 0.  0.
          5    1    3    3  502    0  0.36907098624E+02 -0.27256905479E+02  0.32635451048E+02  0.56458992997E+02  0.41800000000E+01 0.  1.
         -5    1    3    3    0  502 -0.74205906980E+02  0.38432672213E+02  0.92219358922E+02  0.12452096002E+03  0.41800000000E+01 0.  1.
        -11    1    1    2    0    0  0.30790300854E+02  0.38261582796E+02  0.49920183280E+02  0.70028680150E+02  0.00000000000E+00 0.  1.
         11    1    1    2    0    0  0.65085075023E+01 -0.49437349530E+02  0.81025861611E+02  0.95139909861E+02  0.00000000000E+00 0. -1.
</event>
<event>
 7    1  0.2688177E-009  0.8024341E+02  0.7561462E-02  0.1328362E+00
         -2   -1    0    0    0  501 -0.00000000000E+00  0.00000000000E+00  0.13745245598E+03  0.13745245598E+03  0.00000000000E+00 0.  1.
          2   -1    0    0  501    0  0.00000000000E+00 -0.00000000000E+00 -0.11332928621E+03  0.11332928621E+03  0.00000000000E+00 0. -1.
         25    2    1    2    0    0  0.28507768504E+02 -0.49976643962E+02 -0.15052169381E+02  0.13849472930E+03  0.12507543498E+03 0.  0.
          5    1    3    3  502    0  0.32491224348E+02 -0.14331747135E+02 -0.66579938784E+02  0.75574064891E+02  0.41800000000E+01 0.  1.
         -5    1    3    3    0  502 -0.39834558438E+01 -0.35644896827E+02  0.51527769403E+02  0.62920664411E+02  0.41800000000E+01 0.  1.
        -11    1    1    2    0    0  0.22321821685E+02  0.16479102511E+02  0.43130254145E+02  0.51283948419E+02  0.00000000000E+00 0.  1.
         11    1    1    2    0    0 -0.50829590189E+02  0.33497541452E+02 -0.39549149957E+01  0.61003064470E+02  0.00000000000E+00 0. -1.
</event>
<event>
 7    1  0.3964845E-009  0.1671160E+03  0.7561462E-02  0.1180889E+00
         -1   -1    0    0    0  501 -0.00000000000E+00  0.00000000000E+00  0.41951259276E+02  0.41951259276E+02  0.00000000000E+00 0.  1.
          1   -1    0    0  501    0  0.00000000000E+00 -0.00000000000E+00 -0.10150586139E+04  0.10150586139E+04  0.00000000000E+00 0. -1.
         25    2    1    2    0    0 -0.70266287578E+02  0.13028483020E+03 -0.26752319284E+03  0.33034420553E+03  0.12508855772E+03 0.  0.
          5    1    3    3  502    0 -0.45169755391E+02  0.12704386692E+03 -0.11981569994E+03  0.18042650935E+03  0.41800000000E+01 0.  1.
         -5    1    3    3    0  502 -0.25096532187E+02  0.32409632837E+01 -0.14770749290E+03  0.14991769619E+03  0.41800000000E+01 0.  1.
        -11    1    1    2    0    0  0.76421806544E+02 -0.46047370456E+02 -0.37344531039E+03  0.38395579524E+03  0.00000000000E+00 0.  1.
         11    1    1    2    0    0 -0.61555189657E+01 -0.84237459749E+02 -0.33213885142E+03  0.34270987243E+03  0.00000000000E+00 0. -1.
</event>
<event>
 7    1  0.2688177E-009  0.8757447E+02  0.7561462E-02  0.1308834E+00
         -2   -1    0    0    0  501 -0.00000000000E+00  0.00000000000E+00  0.70664141019E+02  0.70664141019E+02  0.00000000000E+00 0.  1.
          2   -1    0    0  501    0  0.00000000000E+00 -0.00000000000E+00 -0.17659885354E+03  0.17659885354E+03  0.00000000000E+00 0. -1.
         25    2    1    2    0    0  0.20075689044E+02 -0.10151484499E+02 -0.47436129183E+02  0.13565665233E+03  0.12508579072E+03 0.  0.
          5    1    3    3  502    0  0.36770742000E+02 -0.40392278575E+02 -0.73864799310E+02  0.91962517434E+02  0.41800000000E+01 0.  1.
         -5    1    3    3    0  502 -0.16695052955E+02  0.30240794076E+02  0.26428670127E+02  0.43694134895E+02  0.41800000000E+01 0.  1.
        -11    1    1    2    0    0 -0.11347834756E+00  0.45219628035E+02 -0.63415499939E+01  0.45662269909E+02  0.00000000000E+00 0.  1.
         11    1    1    2    0    0 -0.19962210697E+02 -0.35068143536E+02 -0.52157033344E+02  0.65944072320E+02  0.00000000000E+00 0. -1.
</event>
<event>
 7    1  0.2688177E-009  0.1110439E+03  0.7561462E-02  0.1258649E+00
          2   -1    0    0  501    0  0.00000000000E+00  0.00000000000E+00  0.51903523608E+02  0.51903523608E+02  0.00000000000E+00 0. -1.
         -2   -1    0    0    0  501 -0.00000000000E+00 -0.00000000000E+00 -0.43156757654E+03  0.43156757654E+03  0.00000000000E+00 0.  1.
         25    2    1    2    0    0 -0.42449868776E+02 -0.91776500613E+02 -0.18486267079E+03  0.24504530340E+03  0.12509227091E+03 0.  0.
          5    1    3    3  502    0  0.15575790413E+02 -0.39809925624E+02  0.15386090140E+01  0.42979938842E+02  0.41800000000E+01 0. -1.
         -5    1    3    3    0  502 -0.58025659189E+02 -0.51966574989E+02 -0.18640127981E+03  0.20206536456E+03  0.41800000000E+01 0. -1.
        -11    1    1    2    0    0  0.29103840711E+02  0.61264572604E+02 -0.19355997796E+03  0.20509960134E+03  0.00000000000E+00 0.  1.
         11    1    1    2    0    0  0.13346028065E+02  0.30511928009E+02 -0.12414041736E+01  0.33326195406E+02  0.00000000000E+00 0. -1.
</event>
<event>
 7    1  0.2688177E-009  0.2555288E+03  0.7561462E-02  0.1109860E+00
          1   -1    0    0  501    0  0.00000000000E+00  0.00000000000E+00  0.91479512224E+03  0.91479512224E+03  0.00000000000E+00 0. -1.
         -1   -1    0    0    0  501 -0.00000000000E+00 -0.00000000000E+00 -0.10844765831E+03  0.10844765831E+03  0.00000000000E+00 0.  1.
         25    2    1    2    0    0  0.14938005423E+03  0.20510915437E+03  0.16524979480E+03  0.32762636037E+03  0.12508945407E+03 0.  0.
          5    1    3    3  502    0  0.78939363188E+02  0.73590172107E+02  0.42478429029E+01  0.10808539707E+03  0.41800000000E+01 0. -1.
         -5    1    3    3    0  502  0.70440691043E+02  0.13151898226E+03  0.16100195189E+03  0.21954096329E+03  0.41800000000E+01 0. -1.
        -11    1    1    2    0    0 -0.51743014884E+02 -0.75618176567E+02  0.12740220875E+03  0.15692919108E+03  0.00000000000E+00 0. -1.
         11    1    1    2    0    0 -0.97637039346E+02 -0.12949097780E+03  0.51369546038E+03  0.53868722911E+03  0.00000000000E+00 0.  1.
</event>
<event>
 7    1  0.2688177E-009  0.1192451E+03  0.7561462E-02  0.1244348E+00
         -1   -1    0    0    0  501 -0.00000000000E+00  0.00000000000E+00  0.14887903192E+03  0.14887903192E+03  0.00000000000E+00 0.  1.
          1   -1    0    0  501    0  0.00000000000E+00 -0.00000000000E+00 -0.10486363596E+03  0.10486363596E+03  0.00000000000E+00 0. -1.
         25    2    1    2    0    0 -0.66455875172E+01 -0.60761358732E+02  0.20408491851E+02  0.14071435546E+03  0.12509163339E+03 0.  0.
          5    1    3    3  502    0 -0.30379159661E+02 -0.93170916663E+02  0.77662535566E+01  0.98394614425E+02  0.41800000000E+01 0.  1.
         -5    1    3    3    0  502  0.23733572144E+02  0.32409557931E+02  0.12642238294E+02  0.42319741033E+02  0.41800000000E+01 0.  1.
        -11    1    1    2    0    0 -0.28194462605E+02  0.58693162703E+02  0.37869234024E+02  0.75325254432E+02  0.00000000000E+00 0.  1.
         11    1    1    2    0    0  0.34840050122E+02  0.20681960292E+01 -0.14262329920E+02  0.37703057994E+02  0.00000000000E+00 0. -1.
</event>
<event>
 7    1  0.2688177E-009  0.7777548E+02  0.7561462E-02  0.1335486E+00
          2   -1    0    0  501    0  0.00000000000E+00  0.00000000000E+00  0.53564130079E+03  0.53564130079E+03  0.00000000000E+00 0. -1.
         -2   -1    0    0    0  501 -0.00000000000E+00 -0.00000000000E+00 -0.22514659041E+02  0.22514659041E+02  0.00000000000E+00 0.  1.
         25    2    1    2    0    0  0.27811983231E+02 -0.13203211469E+02  0.30304354668E+03  0.32928633950E+03  0.12508505505E+03 0.  0.
          5    1    3    3  502    0  0.36036046752E+02  0.39312446760E+02  0.59658133426E+02  0.80128836380E+02  0.41800000000E+01 0.  1.
         -5    1    3    3    0  502 -0.82240635211E+01 -0.52515658229E+02  0.24338541325E+03  0.24915750312E+03  0.41800000000E+01 0.  1.
        -11    1    1    2    0    0  0.80749437633E+01  0.97876808302E+01 -0.27682486055E+01  0.12987171099E+02  0.00000000000E+00 0.  1.
         11    1    1    2    0    0 -0.35886926994E+02  0.34155306391E+01  0.21285134368E+03  0.21588244923E+03  0.00000000000E+00 0. -1.
</event>
<event>
 7    1  0.2688177E-009  0.1331012E+03  0.7561462E-02  0.1222925E+00
         -1   -1    0    0    0  501 -0.00000000000E+00  0.00000000000E+00  0.14890278211E+04  0.14890278211E+04  0.00000000000E+00 0.  1.
          1   -1    0    0  501    0  0.00000000000E+00 -0.00000000000E+00 -0.15740356123E+02  0.15740356123E+02  0.00000000000E+00 0. -1.
         25    2    1    2    0    0  0.10277990859E+03 -0.26474636489E+02  0.77423705740E+03  0.79142437685E+03  0.12507960360E+03 0.  0.
          5    1    3    3  502    0  0.67332016873E+02  0.15447136543E+02  0.15505418815E+03  0.16979837510E+03  0.41800000000E+01 0.  1.
         -5    1    3    3    0  502  0.35447891714E+02 -0.41921773032E+02  0.61918286925E+03  0.62162600175E+03  0.41800000000E+01 0.  1.
        -11    1    1    2    0    0 -0.68123736650E+02  0.62139038793E+02  0.46944320335E+03  0.47841302743E+03  0.00000000000E+00 0.  1.
         11    1    1    2    0    0 -0.34656171937E+02 -0.35664402304E+02  0.22960720418E+03  0.23493077291E+03  0.00000000000E+00 0. -1.
</event>
<event>
 7    1  0.2688177E-009  0.1463731E+03  0.7561462E-02  0.1205002E+00
         -2   -1    0    0    0  501 -0.00000000000E+00  0.00000000000E+00  0.36071164185E+02  0.36071164185E+02  0.00000000000E+00 0.  1.
          2   -1    0    0  501    0  0.00000000000E+00 -0.00000000000E+00 -0.67669288435E+03  0.67669288435E+03  0.00000000000E+00 0. -1.
         25    2    1    2    0    0 -0.63205274791E+02 -0.90583243404E+02 -0.38693190709E+03  0.42138387163E+03  0.12509130985E+03 0.  0.
          5    1    3    3  502    0 -0.92239751334E+02 -0.88512257269E+02 -0.35786462407E+03  0.38003572592E+03  0.41800000000E+01 0. -1.
         -5    1    3    3    0  502  0.29034476543E+02 -0.20709861350E+01 -0.29067283020E+02  0.41348145712E+02  0.41800000000E+01 0. -1.
        -11    1    1    2    0    0  0.80715862268E+02  0.61462035697E+02 -0.14118550908E+03  0.17385620561E+03  0.00000000000E+00 0.  1.
         11    1    1    2    0    0 -0.17510587477E+02  0.29121207707E+02 -0.11250430400E+03  0.11752397130E+03  0.00000000000E+00 0. -1.
</event>
<event>
 7    1  0.2688177E-009  0.1170091E+03  0.7561462E-02  0.1248114E+00
          4   -1    0    0  501    0  0.00000000000E+00  0.00000000000E+00  0.72165860113E+03  0.72165860113E+03  0.00000000000E+00 0. -1.
         -4   -1    0    0    0  501 -0.00000000000E+00 -0.00000000000E+00 -0.24174260350E+02  0.24174260350E+02  0.00000000000E+00 0.  1.
         25    2    1    2    0    0  0.50225184410E+02 -0.55605846323E+01  0.22367305580E+03  0.26121225522E+03  0.12509483255E+03 0.  0.
          5    1    3    3  502    0 -0.19751470331E+02 -0.47357599589E+02  0.10802209979E+03  0.11966248059E+03  0.41800000000E+01 0.  1.
         -5    1    3    3    0  502  0.69976654741E+02  0.41797014957E+02  0.11565095602E+03  0.14154977462E+03  0.41800000000E+01 0.  1.
        -11    1    1    2    0    0  0.24940000542E+02  0.64105942189E+01  0.95324064865E+02  0.98740957498E+02  0.00000000000E+00 0.  1.
         11    1    1    2    0    0 -0.75165184952E+02 -0.85000958658E+00  0.37848722011E+03  0.38587964876E+03  0.00000000000E+00 0. -1.
</event>
<event>
 7    1  0.2688177E-009  0.1268616E+03  0.7561462E-02  0.1232188E+00
          1   -1    0    0  501    0  0.00000000000E+00  0.00000000000E+00  0.12977754936E+03  0.12977754936E+03  0.00000000000E+00 0. -1.
         -1   -1    0    0    0  501 -0.00000000000E+00 -0.00000000000E+00 -0.13592744942E+03  0.13592744942E+03  0.00000000000E+00 0.  1.
         25    2    1    2    0    0 -0.47832325999E+02  0.58554522706E+02 -0.31269733293E+02  0.14947253995E+03  0.12509068886E+03 0.  0.
          5    1    3    3  502    0 -0.42738152135E+02 -0.33132179885E+02 -0.12131514186E+02  0.55578206415E+02  0.41800000000E+01 0. -1.
         -5    1    3    3    0  502 -0.50941738640E+01  0.91686702592E+02 -0.19138219107E+02  0.93894333536E+02  0.41800000000E+01 0. -1.
        -11    1    1    2    0    0  0.68287466626E+02 -0.52781155200E+02  0.34567749545E+02  0.92972887182E+02  0.00000000000E+00 0.  1.
         11    1    1    2    0    0 -0.20455140627E+02 -0.57733675068E+01 -0.94479163150E+01  0.23259571645E+02  0.00000000000E+00 0. -1.
</event>
<event>
 7    1  0.2688177E-009  0.1042969E+03  0.7561462E-02  0.1271511E+00
         -2   -1    0    0    0  501 -0.00000000000E+00  0.00000000000E+00  0.10143797622E+03  0.10143797622E+03  0.00000000000E+00 0. -1.
          2   -1    0    0  501    0  0.00000000000E+00 -0.00000000000E+00 -0.12866182372E+03  0.12866182372E+03  0.00000000000E+00 0.  1.
         25    2    1    2    0    0  0.29819347820E+02  0.12579877587E+02  0.62486408423E+01  0.12935858355E+03  0.12508857182E+03 0.  0.
          5    1    3    3  502    0 -0.39851275994E+02  0.19025864624E+02 -0.26842637751E+02  0.51846960610E+02  0.41800000000E+01 0. -1.
         -5    1    3    3    0  502  0.69670623814E+02 -0.64459870371E+01  0.33091278593E+02  0.77511622937E+02  0.41800000000E+01 0. -1.
        -11    1    1    2    0    0 -0.53115017855E+02 -0.33530124069E+02 -0.28662759328E+02  0.69043668169E+02  0.00000000000E+00 0.  1.
         11    1    1    2    0    0  0.23295670035E+02  0.20950246482E+02 -0.48097290160E+01  0.31697548222E+02  0.00000000000E+00 0. -1.
</event>
<event>
 7    1  0.2688177E-009  0.7705235E+02  0.7561462E-02  0.1337631E+00
         -1   -1    0    0    0  501 -0.00000000000E+00  0.00000000000E+00  0.19027902282E+02  0.19027902282E+02  0.00000000000E+00 0.  1.
          1   -1    0    0  501    0  0.00000000000E+00 -0.00000000000E+00 -0.65356994586E+03  0.65356994586E+03  0.00000000000E+00 0. -1.
         25    2    1    2    0    0 -0.26090909998E+02 -0.51293812228E+00 -0.31350753752E+03  0.33854710043E+03  0.12508462908E+03 0.  0.
          5    1    3    3  502    0 -0.59030572269E+01 -0.27218984286E+02 -0.30138423123E+03  0.30269728513E+03  0.41800000000E+01 0.  1.
         -5    1    3    3    0  502 -0.20187852771E+02  0.26706046164E+02 -0.12123306290E+02  0.35849815294E+02  0.41800000000E+01 0.  1.
        -11    1    1    2    0    0  0.17715218339E+02  0.44253730001E+02 -0.15686163905E+03  0.16394448873E+03  0.00000000000E+00 0.  1.
         11    1    1    2    0    0  0.83756916581E+01 -0.43740791879E+02 -0.16417286700E+03  0.17010625898E+03  0.00000000000E+00 0. -1.
</event>
<event>
 7    1  0.2688177E-009  0.1435979E+03  0.7561462E-02  0.1208568E+00
         -4   -1    0    0    0  501 -0.00000000000E+00  0.00000000000E+00  0.72933815006E+02  0.72933815006E+02  0.00000000000E+00 0.  1.
          4   -1    0    0  501    0  0.00000000000E+00 -0.00000000000E+00 -0.29919935671E+03  0.29919935671E+03  0.00000000000E+00 0. -1.
         25    2    1    2    0    0 -0.96448740557E+02 -0.21103240036E+02 -0.15117948518E+03  0.21963062858E+03  0.12503867392E+03 0.  0.
          5    1    3    3  502    0 -0.63468995923E+02  0.48826818172E+02 -0.92892659651E+02  0.12271467000E+03  0.41800000000E+01 0. -1.
         -5    1    3    3    0  502 -0.32979744634E+02 -0.69930058208E+02 -0.58286825533E+02  0.96915958581E+02  0.41800000000E+01 0. -1.
        -11    1    1    2    0    0  0.67213663858E+02  0.53526188368E+02 -0.33541894352E+02  0.92237671952E+02  0.00000000000E+00 0.  1.
         11    1    1    2    0    0  0.29235076699E+02 -0.32422948332E+02 -0.41544162165E+02  0.60264871178E+02  0.00000000000E+00 0. -1.
</event>
<event>
 7    1  0.2791044E-009  0.2278132E+03  0.7561462E-02  0.1128188E+00
         -1   -1    0    0    0  501 -0.00000000000E+00  0.00000000000E+00  0.16372678801E+03  0.16372678801E+03  0.00000000000E+00 0.  1.
          1   -1    0    0  501    0  0.00000000000E+00 -0.00000000000E+00 -0.39666948016E+03  0.39666948016E+03  0.00000000000E+00 0. -1.
         25    2    1    2    0    0  0.16219451676E+02  0.21205486661E+03 -0.23047847313E+02  0.24780948608E+03  0.12509197040E+03 0.  0.
          5    1    3    3  502    0  0.40532056818E+02  0.17349465230E+03 -0.60979962257E+02  0.18835941761E+03  0.41800000000E+01 0.  1.
         -5    1    3    3    0  502 -0.24312605141E+02  0.38560214311E+02  0.37932114945E+02  0.59450068466E+02  0.41800000000E+01 0.  1.
        -11    1    1    2    0    0  0.38241721037E+02 -0.99512065699E+02 -0.96617649388E+02  0.14387512162E+03  0.00000000000E+00 0. -1.
         11    1    1    2    0    0 -0.54461172713E+02 -0.11254280091E+03 -0.11327719545E+03  0.16871166047E+03  0.00000000000E+00 0.  1.
</event>
<event>
 7    1  0.2688177E-009  0.1373063E+03  0.7561462E-02  0.1217000E+00
          1   -1    0    0  501    0  0.00000000000E+00  0.00000000000E+00  0.12165562074E+03  0.12165562074E+03  0.00000000000E+00 0. -1.
         -1   -1    0    0    0  501 -0.00000000000E+00 -0.00000000000E+00 -0.16820601571E+03  0.16820601571E+03  0.00000000000E+00 0.  1.
         25    2    1    2    0    0 -0.73694853275E+02  0.54885449558E+02 -0.90515833085E+01  0.15547925424E+03  0.12509405808E+03 0.  0.
          5    1    3    3  502    0  0.31525048848E+02  0.36258663867E+02 -0.46296224797E+01  0.48450234412E+02  0.41800000000E+01 0. -1.
         -5    1    3    3    0  502 -0.10521990212E+03  0.18626785691E+02 -0.44219608289E+01  0.10702901983E+03  0.41800000000E+01 0. -1.
        -11    1    1    2    0    0  0.52666495757E+02  0.78793344869E+01 -0.42309250762E+02  0.68014089624E+02  0.00000000000E+00 0.  1.
         11    1    1    2    0    0  0.21028357518E+02 -0.62764784045E+02  0.48104391000E+01  0.66368292583E+02  0.00000000000E+00 0. -1.
</event>
<event>
 7    1  0.2688177E-009  0.2379156E+03  0.7561462E-02  0.1121189E+00
         -2   -1    0    0    0  501 -0.00000000000E+00  0.00000000000E+00  0.14605249536E+03  0.14605249536E+03  0.00000000000E+00 0.  1.
          2   -1    0    0  501    0  0.00000000000E+00 -0.00000000000E+00 -0.44197097970E+03  0.44197097970E+03  0.00000000000E+00 0. -1.
         25    2    1    2    0    0  0.49920185098E+02  0.21408628808E+03 -0.74211180740E+02  0.26359032010E+03  0.12509034288E+03 0.  0.
          5    1    3    3  502    0  0.38307899177E+02  0.22934009358E+03 -0.73730265948E+02  0.24396310824E+03  0.41800000000E+01 0. -1.
         -5    1    3    3    0  502  0.11612285921E+02 -0.15253805502E+02 -0.48091479210E+00  0.19627211867E+02  0.41800000000E+01 0. -1.
        -11    1    1    2    0    0  0.38363022564E+01 -0.66034292396E+02 -0.21204068090E+02  0.69461194136E+02  0.00000000000E+00 0.  1.
         11    1    1    2    0    0 -0.53756487354E+02 -0.14805199568E+03 -0.20050323550E+03  0.25497196082E+03  0.00000000000E+00 0. -1.
</event>
<event>
 7    1  0.2688177E-009  0.1170273E+03  0.7561462E-02  0.1248083E+00
          2   -1    0    0  501    0  0.00000000000E+00  0.00000000000E+00  0.49532750644E+03  0.49532750644E+03  0.00000000000E+00 0.  1.
         -2   -1    0    0    0  501 -0.00000000000E+00 -0.00000000000E+00 -0.15053538938E+03  0.15053538938E+03  0.00000000000E+00 0. -1.
         25    2    1    2    0    0 -0.28590016881E+02 -0.83492978422E+02  0.45243634630E+03  0.47763436220E+03  0.12508984767E+03 0.  0.
          5    1    3    3  502    0 -0.94556793010E+01 -0.86822436255E+02  0.14335828755E+03  0.16791848117E+03  0.41800000000E+01 0. -1.
         -5    1    3    3    0  502 -0.19134337580E+02  0.33294578325E+01  0.30907805875E+03  0.30971588104E+03  0.41800000000E+01 0. -1.
        -11    1    1    2    0    0  0.61460392844E+02  0.63017999081E+02 -0.58641227366E+02  0.10577070314E+03  0.00000000000E+00 0. -1.
         11    1    1    2    0    0 -0.32870375963E+02  0.20474979341E+02 -0.49003001876E+02  0.62457830477E+02  0.00000000000E+00 0.  1.
</event>
<event>
 7    1  0.2688177E-009  0.9273065E+02  0.7561462E-02  0.1296371E+00
         -2   -1    0    0    0  501 -0.00000000000E+00  0.00000000000E+00  0.63076963646E+02  0.63076963646E+02  0.00000000000E+00 0.  1.
          2   -1    0    0  501    0  0.00000000000E+00 -0.00000000000E+00 -0.20242895442E+03  0.20242895442E+03  0.00000000000E+00 0. -1.
         25    2    1    2    0    0  0.20488196715E+02  0.22841914297E+02 -0.68334836176E+02  0.14580660235E+03  0.12509354979E+03 0.  0.
          5    1    3    3  502    0  0.18962745606E+02  0.54567190503E+02 -0.90075861815E+02  0.10709013625E+03  0.41800000000E+01 0.  1.
         -5    1    3    3    0  502  0.15254511085E+01 -0.31725276206E+02  0.21741025639E+02  0.38716466100E+02  0.41800000000E+01 0.  1.
        -11    1    1    2    0    0 -0.39893093352E+02 -0.48841818509E+02 -0.39173128775E+02  0.74239586141E+02  0.00000000000E+00 0. -1.
         11    1    1    2    0    0  0.19404896637E+02  0.25999904211E+02 -0.31844025827E+02  0.45459729579E+02  0.00000000000E+00 0.  1.
</event>
<event>
 7    1  0.2688177E-009  0.1825497E+03  0.7561462E-02  0.1165358E+00
         -1   -1    0    0    0  501 -0.00000000000E+00  0.00000000000E+00  0.95569207234E+02  0.95569207234E+02  0.00000000000E+00 0.  1.
          1   -1    0    0  501    0  0.00000000000E+00 -0.00000000000E+00 -0.48774689426E+03  0.48774689426E+03  0.00000000000E+00 0. -1.
         25    2    1    2    0    0  0.22769791104E+02 -0.14710440321E+03 -0.35467547612E+03  0.40447534685E+03  0.12508974386E+03 0.  0.
          5    1    3    3  502    0  0.63463161669E+02 -0.13832287847E+03 -0.28787902636E+03  0.32565717835E+03  0.41800000000E+01 0.  1.
         -5    1    3    3    0  502 -0.40693370565E+02 -0.87815247448E+01 -0.66796449762E+02  0.78818168499E+02  0.41800000000E+01 0.  1.
        -11    1    1    2    0    0  0.25746279018E+02  0.13916453827E+02 -0.21239882504E+02  0.36161736396E+02  0.00000000000E+00 0. -1.
         11    1    1    2    0    0 -0.48516070122E+02  0.13318794939E+03 -0.16262328400E+02  0.14267901824E+03  0.00000000000E+00 0.  1.
</event>
<event>
 7    1  0.2688177E-009  0.8312142E+02  0.7561462E-02  0.1320420E+00
         -2   -1    0    0    0  501 -0.00000000000E+00  0.00000000000E+00  0.67344943904E+02  0.67344943904E+02  0.00000000000E+00 0. -1.
          2   -1    0    0  501    0  0.00000000000E+00 -0.00000000000E+00 -0.21583570764E+03  0.21583570764E+03  0.00000000000E+00 0.  1.
         25    2    1    2    0    0 -0.74804306889E+01  0.47293350959E+02 -0.11262111664E+03  0.17499612205E+03  0.12509000332E+03 0.  0.
          5    1    3    3  502    0  0.81184417953E+01  0.47595522732E+02  0.11515690959E+02  0.49812914184E+02  0.41800000000E+01 0.  1.
         -5    1    3    3    0  502 -0.15598872484E+02 -0.30217177207E+00 -0.12413680760E+03  0.12518320786E+03  0.41800000000E+01 0.  1.
        -11    1    1    2    0    0 -0.35356927609E+02 -0.46968003069E+02 -0.15782622427E+02  0.60870327853E+02  0.00000000000E+00 0.  1.
         11    1    1    2    0    0  0.42837358298E+02 -0.32534789060E+00 -0.20087024672E+02  0.47314201646E+02  0.00000000000E+00 0. -1.
</event>
<event>
 7    1  0.2688177E-009  0.9600589E+02  0.7561462E-02  0.1288927E+00
          1   -1    0    0  501    0  0.00000000000E+00  0.00000000000E+00  0.41924758619E+03  0.41924758619E+03  0.00000000000E+00 0. -1.
         -1   -1    0    0    0  501 -0.00000000000E+00 -0.00000000000E+00 -0.30124245201E+02  0.30124245201E+02  0.00000000000E+00 0.  1.
         25    2    1    2    0    0 -0.27725645712E+02  0.13507355049E+02  0.21895469953E+03  0.25404736406E+03  0.12509093759E+03 0.  0.
          5    1    3    3  502    0  0.24189699355E+02  0.40809076283E+02  0.17294379370E+03  0.17938102029E+03  0.41800000000E+01 0.  1.
         -5    1    3    3    0  502 -0.51915345067E+02 -0.27301721234E+02  0.46010905832E+02  0.74666343765E+02  0.41800000000E+01 0.  1.
        -11    1    1    2    0    0 -0.26824856433E+02 -0.15528210527E+02  0.23710948988E+02  0.39024445502E+02  0.00000000000E+00 0.  1.
         11    1    1    2    0    0  0.54550502145E+02  0.20208554776E+01  0.14645769246E+03  0.15630002183E+03  0.00000000000E+00 0. -1.
</event>
<event>
 7    1  0.2688177E-009  0.2369638E+03  0.7561462E-02  0.1121832E+00
          2   -1    0    0  501    0  0.00000000000E+00  0.00000000000E+00  0.54143781023E+03  0.54143781023E+03  0.00000000000E+00 0.  1.
         -2   -1    0    0    0  501 -0.00000000000E+00 -0.00000000000E+00 -0.14889847098E+03  0.14889847098E+03  0.00000000000E+00 0. -1.
         25    2    1    2    0    0  0.17592831983E+03  0.13869044055E+03  0.36636111926E+03  0.44727323053E+03  0.12508821298E+03 0.  0.
          5    1    3    3  502    0  0.15970831256E+02  0.48277533087E+02  0.17357448840E+03  0.18091811152E+03  0.41800000000E+01 0.  1.
         -5    1    3    3    0  502  0.15995748857E+03  0.90412907468E+02  0.19278663086E+03  0.26635511901E+03  0.41800000000E+01 0.  1.
        -11    1    1    2    0    0 -0.35925776534E+02 -0.79260461264E+02  0.26502704059E+02  0.90968541056E+02  0.00000000000E+00 0.  1.
         11    1    1    2    0    0 -0.14000254329E+03 -0.59429979290E+02 -0.32448406321E+00  0.15209450962E+03  0.00000000000E+00 0. -1.
</event>
<event>
 7    1  0.2688177E-009  0.9034798E+02  0.7561462E-02  0.1302011E+00
         -2   -1    0    0    0  501 -0.00000000000E+00  0.00000000000E+00  0.15739163730E+03  0.15739163730E+03  0.00000000000E+00 0.  1.
          2   -1    0    0  501    0  0.00000000000E+00 -0.00000000000E+00 -0.15654759015E+03  0.15654759015E+03  0.00000000000E+00 0. -1.
         25    2    1    2    0    0 -0.29971353662E+02  0.34471243245E+02  0.10301740038E+03  0.16836451751E+03  0.12508987699E+03 0.  0.
          5    1    3    3  502    0 -0.78204338379E+02  0.10673748001E+02  0.56871320992E+02  0.97373851670E+02  0.41800000000E+01 0.  1.
         -5    1    3    3    0  502  0.48232984717E+02  0.23797495243E+02  0.46146079384E+02  0.70990665845E+02  0.41800000000E+01 0.  1.
        -11    1    1    2    0    0  0.17587258282E+02 -0.29541385103E+02 -0.11913829836E+03  0.12399975494E+03  0.00000000000E+00 0. -1.
         11    1    1    2    0    0  0.12384095380E+02 -0.49298581422E+01  0.16964945138E+02  0.21574954999E+02  0.00000000000E+00 0.  1.
</event>
<event>
 7    1  0.3967025E-009  0.1232535E+03  0.7561462E-02  0.1237824E+00
         -1   -1    0    0    0  501 -0.00000000000E+00  0.00000000000E+00  0.93325581857E+02  0.93325581857E+02  0.00000000000E+00 0.  1.
          1   -1    0    0  501    0  0.00000000000E+00 -0.00000000000E+00 -0.20648303997E+03  0.20648303997E+03  0.00000000000E+00 0. -1.
         25    2    1    2    0    0  0.53824632973E+02 -0.35294987341E+02 -0.12350807992E+03  0.18719771138E+03  0.12508361241E+03 0.  0.
          5    1    3    3  502    0 -0.26891337784E+02 -0.49732057981E+02 -0.65738876468E+02  0.86807222730E+02  0.41800000000E+01 0. -1.
         -5    1    3    3    0  502  0.80715970757E+02  0.14437070641E+02 -0.57769203451E+02  0.10039048865E+03  0.41800000000E+01 0. -1.
        -11    1    1    2    0    0 -0.17641086663E+01  0.52768316952E+02  0.20734345330E+02  0.56723191286E+02  0.00000000000E+00 0.  1.
         11    1    1    2    0    0 -0.52060524307E+02 -0.17473329612E+02 -0.10383723524E+02  0.55887719161E+02  0.00000000000E+00 0. -1.
</event>
<event>
 7    1  0.2688177E-009  0.9594438E+02  0.7561462E-02  0.1289063E+00
         -1   -1    0    0    0  501 -0.00000000000E+00  0.00000000000E+00  0.32936927092E+03  0.32936927092E+03  0.00000000000E+00 0.  1.
          1   -1    0    0  501    0  0.00000000000E+00 -0.00000000000E+00 -0.50611166605E+02  0.50611166605E+02  0.00000000000E+00 0. -1.
         25    2    1    2    0    0 -0.20842429627E+02  0.96746536863E+01  0.25076964921E+03  0.28117747493E+03  0.12508936663E+03 0.  0.
          5    1    3    3  502    0 -0.75512503012E+01  0.66876164680E+02  0.11731246727E+03  0.13531123442E+03  0.41800000000E+01 0. -1.
         -5    1    3    3    0  502 -0.13291179325E+02 -0.57201510994E+02  0.13345718194E+03  0.14586624050E+03  0.41800000000E+01 0. -1.
        -11    1    1    2    0    0  0.18059409999E+02 -0.35383093170E+02 -0.19860771316E+02  0.44413464276E+02  0.00000000000E+00 0. -1.
         11    1    1    2    0    0  0.27830196276E+01  0.25708439483E+02  0.47849226423E+02  0.54389498326E+02  0.00000000000E+00 0.  1.
</event>
<event>
 7    1  0.3390913E-009  0.1530771E+03  0.7561462E-02  0.1196742E+00
          1   -1    0    0  501    0  0.00000000000E+00  0.00000000000E+00  0.16506558613E+03  0.16506558613E+03  0.00000000000E+00 0. -1.
         -1   -1    0    0    0  501 -0.00000000000E+00 -0.00000000000E+00 -0.19887093338E+03  0.19887093338E+03  0.00000000000E+00 0.  1.
         25    2    1    2    0    0  0.18853685753E+02  0.14104964984E+03  0.85708415400E+01  0.18966209523E+03  0.12509111023E+03 0.  0.
          5    1    3    3  502    0  0.18923104082E+02  0.12430825976E+03  0.57096522174E+02  0.13815973566E+03  0.41800000000E+01 0. -1.
         -5    1    3    3    0  502 -0.69418329194E-01  0.16741390072E+02 -0.48525680635E+02  0.51502359572E+02  0.41800000000E+01 0. -1.
        -11    1    1    2    0    0 -0.46392614751E+02 -0.51099968803E+02  0.45128057325E+01  0.69165359326E+02  0.00000000000E+00 0. -1.
         11    1    1    2    0    0  0.27538928997E+02 -0.89949681032E+02 -0.46888994514E+02  0.10510906495E+03  0.00000000000E+00 0.  1.
</event>
<event>
 6    1  0.2688177E-009  0.1193306E+03  0.7561462E-02  0.1244205E+00
         -1   -1    0    0    0  501 -0.00000000000E+00  0.00000000000E+00  0.20124572195E+03  0.20124572195E+03  0.00000000000E+00 0.  1.
          1   -1    0    0  501    0  0.00000000000E+00 -0.00000000000E+00 -0.12253619165E+03  0.12253619165E+03  0.00000000000E+00 0. -1.
          5    1    1    2  502    0 -0.30195660159E+02 -0.34636826653E+02  0.78413889468E+01  0.46802216119E+02  0.41800000000E+01 0.  1.
         -5    1    1    2    0  502 -0.17557798214E+02  0.86448732419E+02 -0.56512720602E+02  0.10484664804E+03  0.41800000000E+01 0.  1.
        -11    1    1    2    0    0  0.56518952749E+01  0.20099163946E+02  0.11910621697E+01  0.20912650253E+02  0.00000000000E+00 0. -1.
         11    1    1    2    0    0  0.42101563099E+02 -0.71911069713E+02  0.12618979979E+03  0.15122039919E+03  0.00000000000E+00 0.  1.
</event>
<event>
 7    1  0.2688177E-009  0.1801917E+03  0.7561462E-02  0.1167618E+00
          1   -1    0    0  501    0  0.00000000000E+00  0.00000000000E+00  0.12067348400E+03  0.12067348400E+03  0.00000000000E+00 0. -1.
         -1   -1    0    0    0  501 -0.00000000000E+00 -0.00000000000E+00 -0.48560990394E+03  0.48560990394E+03  0.00000000000E+00 0.  1.
         25    2    1    2    0    0 -0.10780619082E+03 -0.11825697074E+03 -0.75483824818E+01  0.20324986850E+03  0.12508655028E+03 0.  0.
          5    1    3    3  502    0 -0.34851727660E+02 -0.88569287014E+02  0.48095494391E+02  0.10672305517E+03  0.41800000000E+01 0. -1.
         -5    1    3    3    0  502 -0.72954463158E+02 -0.29687683723E+02 -0.55643876873E+02  0.96526813337E+02  0.41800000000E+01 0. -1.
        -11    1    1    2    0    0  0.61111958630E+02  0.22138224571E+01 -0.12251679678E+03  0.13693041295E+03  0.00000000000E+00 0.  1.
         11    1    1    2    0    0  0.46694232189E+02  0.11604314828E+03 -0.23487124068E+03  0.26610310648E+03  0.00000000000E+00 0. -1.
</event>
<event>
 7    1  0.2688177E-009  0.1602007E+03  0.7561462E-02  0.1188470E+00
         -2   -1    0    0    0  501 -0.00000000000E+00  0.00000000000E+00  0.50198187401E+02  0.50198187401E+02  0.00000000000E+00 0.  1.
          2   -1    0    0  501    0  0.00000000000E+00 -0.00000000000E+00 -0.67615945081E+03  0.67615945081E+03  0.00000000000E+00 0. -1.
         25    2    1    2    0    0  0.12122242544E+03 -0.53144653346E+02 -0.19570616952E+03  0.26733529914E+03  0.12509207316E+03 0.  0.
          5    1    3    3  502    0  0.80230348504E+02 -0.78314875274E+02 -0.68934508583E+02  0.13167979110E+03  0.41800000000E+01 0.  1.
         -5    1    3    3    0  502  0.40992076934E+02  0.25170221928E+02 -0.12677166094E+03  0.13565550804E+03  0.41800000000E+01 0.  1.
        -11    1    1    2    0    0 -0.63280043445E+02  0.74880069196E+02 -0.26739458467E+03  0.28480037320E+03  0.00000000000E+00 0.  1.
         11    1    1    2    0    0 -0.57942381993E+02 -0.21735415850E+02 -0.16286050921E+03  0.17422196588E+03  0.00000000000E+00 0. -1.
</event>
<event>
 7    1  0.2688177E-009  0.7872273E+02  0.7561462E-02  0.1332716E+00
         -2   -1    0    0    0  501 -0.00000000000E+00  0.00000000000E+00  0.13547194548E+02  0.13547194548E+02  0.00000000000E+00 0.  1.
          2   -1    0    0  501    0  0.00000000000E+00 -0.00000000000E+00 -0.94633277971E+03  0.94633277971E+03  0.00000000000E+00 0. -1.
         25    2    1    2    0    0 -0.18613193884E+02  0.13034453901E+02 -0.61985821649E+03  0.63276228514E+03  0.12509017938E+03 0.  0.
          5    1    3    3  502    0  0.10830373303E+02  0.30845455114E+02 -0.39823106442E+02  0.51692274991E+02  0.41800000000E+01 0.  1.
         -5    1    3    3    0  502 -0.29443567187E+02 -0.17811001213E+02 -0.58003511005E+03  0.58107001015E+03  0.41800000000E+01 0.  1.
        -11    1    1    2    0    0  0.41585474404E+02  0.22672802250E+02 -0.10947126561E+03  0.11927852128E+03  0.00000000000E+00 0.  1.
         11    1    1    2    0    0 -0.22972280520E+02 -0.35707256151E+02 -0.20345610306E+03  0.20783916784E+03  0.00000000000E+00 0. -1.
</event>
<event>
 7    1  0.2688177E-009  0.8816220E+02  0.7561462E-02  0.1307364E+00
          1   -1    0    0  501    0  0.00000000000E+00  0.00000000000E+00  0.10875904456E+03  0.10875904456E+03  0.00000000000E+00 0. -1.
         -1   -1    0    0    0  501 -0.00000000000E+00 -0.00000000000E+00 -0.16793532811E+03  0.16793532811E+03  0.00000000000E+00 0.  1.
         25    2    1    2    0    0  0.37052569598E+02 -0.93051563889E+01 -0.10442795132E+03  0.16738747732E+03  0.12511551342E+03 0.  0.
          5    1    3    3  502    0 -0.25794018530E+02 -0.84930177695E+01  0.15772988213E+02  0.31681576665E+02  0.41800000000E+01 0.  1.
         -5    1    3    3    0  502  0.62846588128E+02 -0.81213861933E+00 -0.12020093953E+03  0.13570590065E+03  0.41800000000E+01 0.  1.
        -11    1    1    2    0    0 -0.23568100003E+01  0.39676686356E+02 -0.61878683994E+01  0.40225411234E+02  0.00000000000E+00 0.  1.
         11    1    1    2    0    0 -0.34695759598E+02 -0.30371529967E+02  0.51439536172E+02  0.69081484120E+02  0.00000000000E+00 0. -1.
</event>
<event>
 7    1  0.2688177E-009  0.1058479E+03  0.7561462E-02  0.1268458E+00
         -1   -1    0    0    0  501 -0.00000000000E+00  0.00000000000E+00  0.63107250008E+03  0.63107250008E+03  0.00000000000E+00 0.  1.
          1   -1    0    0  501    0  0.00000000000E+00 -0.00000000000E+00 -0.48899358166E+02  0.48899358166E+02  0.00000000000E+00 0. -1.
         25    2    1    2    0    0 -0.15312626602E+02 -0.95923459837E+02  0.12762328108E+03  0.20339798367E+03  0.12508897317E+03 0.  0.
          5    1    3    3  502    0  0.20922231631E+02 -0.35283092154E+02  0.12604247269E+03  0.13261528452E+03  0.41800000000E+01 0.  1.
         -5    1    3    3    0  502 -0.36234858234E+02 -0.60640367683E+02  0.15808083903E+01  0.70782699151E+02  0.41800000000E+01 0.  1.
        -11    1    1    2    0    0  0.73943124821E+01  0.88614491228E+02  0.45696011063E+03  0.46553168165E+03  0.00000000000E+00 0.  1.
         11    1    1    2    0    0  0.79183141202E+01  0.73089686088E+01 -0.24102497858E+01  0.11042192928E+02  0.00000000000E+00 0. -1.
</event>
<event>
 7    1  0.2688177E-009  0.8341083E+02  0.7561462E-02  0.1319641E+00
         -1   -1    0    0    0  501 -0.00000000000E+00  0.00000000000E+00  0.57274023304E+02  0.57274023304E+02  0.00000000000E+00 0.  1.
          1   -1    0    0  501    0  0.00000000000E+00 -0.00000000000E+00 -0.22888181554E+03  0.22888181554E+03  0.00000000000E+00 0. -1.
         25    2    1    2    0    0  0.12312174365E+02  0.35250801377E+02 -0.11434224024E+03  0.17353815388E+03  0.12508850591E+03 0.  0.
          5    1    3    3  502    0  0.88498314682E+01 -0.28553101846E+02  0.11532378724E+02  0.32312030284E+02  0.41800000000E+01 0.  1.
         -5    1    3    3    0  502  0.34623428965E+01  0.63803903223E+02 -0.12587461897E+03  0.14122612359E+03  0.41800000000E+01 0.  1.
        -11    1    1    2    0    0  0.23820559496E+02 -0.27042130226E+01 -0.59282155947E+02  0.63946116665E+02  0.00000000000E+00 0. -1.
         11    1    1    2    0    0 -0.36132733861E+02 -0.32546588354E+02  0.20166039521E+01  0.48671568305E+02  0.00000000000E+00 0.  1.
</event>
<event>
 7    1  0.2688177E-009  0.2162541E+03  0.7561462E-02  0.1136707E+00
         -2   -1    0    0    0  501 -0.00000000000E+00  0.00000000000E+00  0.29837613282E+02  0.29837613282E+02  0.00000000000E+00 0.  1.
          2   -1    0    0  501    0  0.00000000000E+00 -0.00000000000E+00 -0.23826592819E+04  0.23826592819E+04  0.00000000000E+00 0. -1.
         25    2    1    2    0    0  0.14945095650E+02  0.19610521518E+03 -0.18437304439E+04  0.18584052572E+04  0.12509012331E+03 0.  0.
          5    1    3    3  502    0  0.27185886833E+02  0.10575111325E+02 -0.61241633518E+03  0.61312490197E+03  0.41800000000E+01 0.  1.
         -5    1    3    3    0  502 -0.12240791183E+02  0.18553010385E+03 -0.12313141087E+04  0.12452803553E+04  0.41800000000E+01 0.  1.
        -11    1    1    2    0    0 -0.47260740576E+02 -0.56008220526E+02 -0.14076831294E+03  0.15870165813E+03  0.00000000000E+00 0. -1.
         11    1    1    2    0    0  0.32315644926E+02 -0.14009699465E+03 -0.36832291179E+03  0.39538997985E+03  0.00000000000E+00 0.  1.
</event>
<event>
 7    1  0.2688177E-009  0.8240165E+02  0.7561462E-02  0.1322371E+00
         -1   -1    0    0    0  501 -0.00000000000E+00  0.00000000000E+00  0.42857272248E+02  0.42857272248E+02  0.00000000000E+00 0.  1.
          1   -1    0    0  501    0  0.00000000000E+00 -0.00000000000E+00 -0.34687679233E+03  0.34687679233E+03  0.00000000000E+00 0. -1.
         25    2    1    2    0    0  0.34829916235E+02  0.42513173756E+02 -0.19074612643E+03  0.23463151493E+03  0.12508944817E+03 0.  0.
          5    1    3    3  502    0  0.10878354238E+02  0.14034296722E+01  0.17448175791E+02  0.21029014342E+02  0.41800000000E+01 0.  1.
         -5    1    3    3    0  502  0.23951561997E+02  0.41109744084E+02 -0.20819430222E+03  0.21360250059E+03  0.41800000000E+01 0.  1.
        -11    1    1    2    0    0 -0.34062218680E+02  0.22153452946E+02 -0.35520409101E+02  0.53969525489E+02  0.00000000000E+00 0.  1.
         11    1    1    2    0    0 -0.76769755557E+00 -0.64666626703E+02 -0.77752984548E+02  0.10113302416E+03  0.00000000000E+00 0. -1.
</event>
<event>
 7    1  0.2688177E-009  0.8327879E+02  0.7561462E-02  0.1319996E+00
         -2   -1    0    0    0  501 -0.00000000000E+00  0.00000000000E+00  0.25415031640E+02  0.25415031640E+02  0.00000000000E+00 0. -1.
          2   -1    0    0  501    0  0.00000000000E+00 -0.00000000000E+00 -0.54678174555E+03  0.54678174555E+03  0.00000000000E+00 0.  1.
         25    2    1    2    0    0  0.23439958946E+02  0.29024421710E+02 -0.29940365322E+03  0.32662123912E+03  0.12508811913E+03 0.  0.
          5    1    3    3  502    0 -0.27914626776E+02  0.17189813715E+02 -0.25626741625E+03  0.25838958399E+03  0.41800000000E+01 0. -1.
         -5    1    3    3    0  502  0.51354585722E+02  0.11834607995E+02 -0.43136236972E+02  0.68231655126E+02  0.41800000000E+01 0. -1.
        -11    1    1    2    0    0 -0.17946737638E+02  0.22525881323E+02 -0.15507620400E+02  0.32710655935E+02  0.00000000000E+00 0. -1.
         11    1    1    2    0    0 -0.54932213076E+01 -0.51550303033E+02 -0.20645544029E+03  0.21286488214E+03  0.00000000000E+00 0.  1.
</event>
<event>
 7    1  0.2688177E-009  0.1244398E+03  0.7561462E-02  0.1235947E+00
          1   -1    0    0  501    0  0.00000000000E+00  0.00000000000E+00  0.62344749488E+02  0.62344749488E+02  0.00000000000E+00 0. -1.
         -1   -1    0    0    0  501 -0.00000000000E+00 -0.00000000000E+00 -0.31389124970E+03  0.31389124970E+03  0.00000000000E+00 0.  1.
         25    2    1    2    0    0  0.20803300163E+02 -0.60269402772E+02 -0.55638194836E+02  0.15102375391E+03  0.12508951719E+03 0.  0.
          5    1    3    3  502    0  0.21202444365E+02  0.37079345409E+02 -0.15260139961E+02  0.45549596866E+02  0.41800000000E+01 0. -1.
         -5    1    3    3    0  502 -0.39914420169E+00 -0.97348748181E+02 -0.40378054875E+02  0.10547415704E+03  0.41800000000E+01 0. -1.
        -11    1    1    2    0    0  0.33347033878E+02  0.36338620199E+02 -0.65480369887E+02  0.81976818839E+02  0.00000000000E+00 0. -1.
         11    1    1    2    0    0 -0.54150334041E+02  0.23930782573E+02 -0.13042793549E+03  0.14323542644E+03  0.00000000000E+00 0.  1.
</event>
<event>
 7    1  0.2688177E-009  0.1472142E+03  0.7561462E-02  0.1203939E+00
          2   -1    0    0  501    0  0.00000000000E+00  0.00000000000E+00  0.12019912622E+04  0.12019912622E+04  0.00000000000E+00 0. -1.
         -2   -1    0    0    0  501 -0.00000000000E+00 -0.00000000000E+00 -0.20291817818E+02  0.20291817818E+02  0.00000000000E+00 0.  1.
         25    2    1    2    0    0  0.70171117676E+02  0.86366386449E+02  0.54994602447E+03  0.57486728825E+03  0.12509448752E+03 0.  0.
          5    1    3    3  502    0 -0.28675914746E+02  0.33953364828E+02  0.26465791294E+03  0.26839601777E+03  0.41800000000E+01 0.  1.
         -5    1    3    3    0  502  0.98847032423E+02  0.52413021621E+02  0.28528811153E+03  0.30647127049E+03  0.41800000000E+01 0.  1.
        -11    1    1    2    0    0 -0.10223468642E+02 -0.76372042081E+02  0.27805132532E+03  0.28853032360E+03  0.00000000000E+00 0.  1.
         11    1    1    2    0    0 -0.59947649035E+02 -0.99943443684E+01  0.35370209455E+03  0.35888546813E+03  0.00000000000E+00 0. -1.
</event>
<event>
 7    1  0.2688177E-009  0.2378569E+03  0.7561462E-02  0.1121229E+00
          1   -1    0    0  501    0  0.00000000000E+00  0.00000000000E+00  0.88500064425E+03  0.88500064425E+03  0.00000000000E+00 0. -1.
         -1   -1    0    0    0  501 -0.00000000000E+00 -0.00000000000E+00 -0.78128884224E+02  0.78128884224E+02  0.00000000000E+00 0.  1.
         25    2    1    2    0    0  0.23593480554E+03 -0.35948180454E+01  0.48961406640E+03  0.55771611137E+03  0.12508865531E+03 0.  0.
          5    1    3    3  502    0  0.66937475842E+02 -0.75873806944E+00  0.41758162461E+02  0.79008973463E+02  0.41800000000E+01 0.  1.
         -5    1    3    3    0  502  0.16899732969E+03 -0.28360799759E+01  0.44785590393E+03  0.47870713791E+03  0.41800000000E+01 0.  1.
        -11    1    1    2    0    0 -0.16936664548E+03  0.21262252906E+02  0.16097412430E+03  0.23462696498E+03  0.00000000000E+00 0. -1.
         11    1    1    2    0    0 -0.66568160056E+02 -0.17667434860E+02  0.15628356932E+03  0.17078645212E+03  0.00000000000E+00 0.  1.
</event>
<event>
 7    1  0.2688177E-009  0.9508185E+02  0.7561462E-02  0.1290992E+00
          3   -1    0    0  501    0  0.00000000000E+00  0.00000000000E+00  0.39740394516E+03  0.39740394516E+03  0.00000000000E+00 0. -1.
         -3   -1    0    0    0  501 -0.00000000000E+00 -0.00000000000E+00 -0.37433577428E+02  0.37433577428E+02  0.00000000000E+00 0.  1.
         25    2    1    2    0    0 -0.11660028700E+02  0.31819356992E+02  0.28316207146E+03  0.31141036790E+03  0.12508889148E+03 0.  0.
          5    1    3    3  502    0 -0.39727996786E+02  0.48114831452E+02  0.62781069897E+02  0.88613124714E+02  0.41800000000E+01 0. -1.
         -5    1    3    3    0  502  0.28067968085E+02 -0.16295474460E+02  0.22038100156E+03  0.22279724318E+03  0.41800000000E+01 0. -1.
        -11    1    1    2    0    0  0.49947693902E+02 -0.25559709691E+02  0.33781627260E+02  0.65492512748E+02  0.00000000000E+00 0.  1.
         11    1    1    2    0    0 -0.38287665202E+02 -0.62596473013E+01  0.43026669017E+02  0.57934641948E+02  0.00000000000E+00 0. -1.
</event>
<event>
 7    1  0.2688177E-009  0.1078670E+03  0.7561462E-02  0.1264572E+00
         -1   -1    0    0    0  501 -0.00000000000E+00  0.00000000000E+00  0.20087680144E+03  0.20087680144E+03  0.00000000000E+00 0.  1.
          1   -1    0    0  501    0  0.00000000000E+00 -0.00000000000E+00 -0.80078449138E+02  0.80078449138E+02  0.00000000000E+00 0. -1.
         25    2    1    2    0    0  0.64982903739E+02  0.11333360666E+02  0.65731944706E+02  0.15594711585E+03  0.12509033353E+03 0.  0.
          5    1    3    3  502    0 -0.18694514256E+02  0.46427629256E+02  0.28762066254E+02  0.57876925254E+02  0.41800000000E+01 0. -1.
         -5    1    3    3    0  502  0.83677417995E+02 -0.35094268589E+02  0.36969878452E+02  0.98070190593E+02  0.41800000000E+01 0. -1.
        -11    1    1    2    0    0 -0.34843684699E+02  0.11685031862E+02 -0.19314540698E+02  0.41517150859E+02  0.00000000000E+00 0. -1.
         11    1    1    2    0    0 -0.30139219040E+02 -0.23018392528E+02  0.74380948292E+02  0.83490983871E+02  0.00000000000E+00 0.  1.
</event>
<event>
 7    1  0.2688177E-009  0.1612177E+03  0.7561462E-02  0.1187329E+00
         -1   -1    0    0    0  501 -0.00000000000E+00  0.00000000000E+00  0.19429264430E+02  0.19429264430E+02  0.00000000000E+00 0.  1.
          1   -1    0    0  501    0  0.00000000000E+00 -0.00000000000E+00 -0.14059793441E+04  0.14059793441E+04  0.00000000000E+00 0. -1.
         25    2    1    2    0    0  0.98796492859E+02  0.77128275896E+02 -0.61504521767E+03  0.64002932212E+03  0.12508954974E+03 0.  0.
          5    1    3    3  502    0  0.74786609646E+02  0.11160001572E+03 -0.44762015729E+03  0.46736375352E+03  0.41800000000E+01 0. -1.
         -5    1    3    3    0  502  0.24009883213E+02 -0.34471739822E+02 -0.16742506038E+03  0.17266556861E+03  0.41800000000E+01 0. -1.
        -11    1    1    2    0    0 -0.21286019111E+02  0.14531450816E+02 -0.10251039916E+03  0.10570070770E+03  0.00000000000E+00 0.  1.
         11    1    1    2    0    0 -0.77510473748E+02 -0.91659726712E+02 -0.66899446284E+03  0.67967857870E+03  0.00000000000E+00 0. -1.
</event>
<event>
 7    1  0.2688177E-009  0.1096657E+03  0.7561462E-02  0.1261190E+00
          2   -1    0    0  501    0  0.00000000000E+00  0.00000000000E+00  0.36174224684E+03  0.36174224684E+03  0.00000000000E+00 0. -1.
         -2   -1    0    0    0  501 -0.00000000000E+00 -0.00000000000E+00 -0.43171746053E+02  0.43171746053E+02  0.00000000000E+00 0.  1.
         25    2    1    2    0    0 -0.31257885559E+02 -0.63801202310E+02  0.25696571023E+03  0.29449466905E+03  0.12509230609E+03 0.  0.
          5    1    3    3  502    0  0.14347563722E+02  0.32625670098E+02  0.82420788653E+02  0.89894080652E+02  0.41800000000E+01 0.  1.
         -5    1    3    3    0  502 -0.45605449281E+02 -0.96426872408E+02  0.17454492157E+03  0.20460058840E+03  0.41800000000E+01 0.  1.
        -11    1    1    2    0    0  0.15032030225E+02  0.57262509198E+02  0.15633559085E+02  0.61232059104E+02  0.00000000000E+00 0.  1.
         11    1    1    2    0    0  0.16225855333E+02  0.65386931117E+01  0.45971231477E+02  0.49187264738E+02  0.00000000000E+00 0. -1.
</event>
<event>
 7    1  0.2688177E-009  0.1208512E+03  0.7561462E-02  0.1241699E+00
         -2   -1    0    0    0  501 -0.00000000000E+00  0.00000000000E+00  0.17731613649E+03  0.17731613649E+03  0.00000000000E+00 0.  1.
          2   -1    0    0  501    0  0.00000000000E+00 -0.00000000000E+00 -0.92047843121E+02  0.92047843121E+02  0.00000000000E+00 0. -1.
         25    2    1    2    0    0  0.34293624766E+01 -0.61841061964E+02  0.73880543521E+02  0.15792974478E+03  0.12508953634E+03 0.  0.
          5    1    3    3  502    0 -0.59781272671E+02 -0.18599460034E+02  0.29784239992E+02  0.69457280595E+02  0.41800000000E+01 0.  1.
         -5    1    3    3    0  502  0.63210635147E+02 -0.43241601930E+02  0.44096303529E+02  0.88472464181E+02  0.41800000000E+01 0.  1.
        -11    1    1    2    0    0 -0.38477749808E+02  0.54056853351E+02  0.27821507891E+02  0.71949405319E+02  0.00000000000E+00 0.  1.
         11    1    1    2    0    0  0.35048387331E+02  0.77842086132E+01 -0.16433758046E+02  0.39484829514E+02  0.00000000000E+00 0. -1.
</event>
<event>
 7    1  0.2688177E-009  0.7575825E+02  0.7561462E-02  0.1341539E+00
          2   -1    0    0  501    0  0.00000000000E+00  0.00000000000E+00  0.33226157575E+02  0.33226157575E+02  0.00000000000E+00 0. -1.
         -2   -1    0    0    0  501 -0.00000000000E+00 -0.00000000000E+00 -0.36127481178E+03  0.36127481178E+03  0.00000000000E+00 0.  1.
         25    2    1    2    0    0  0.11030885053E+02 -0.21834662984E+01 -0.21169810264E+03  0.24614593900E+03  0.12508112837E+03 0.  0.
          5    1    3    3  502    0  0.39382107281E+02 -0.29670446394E+02 -0.19807857266E+03  0.20416630259E+03  0.41800000000E+01 0. -1.
         -5    1    3    3    0  502 -0.28351222228E+02  0.27486980096E+02 -0.13619529979E+02  0.41979636414E+02  0.41800000000E+01 0. -1.
        -11    1    1    2    0    0 -0.15632957706E+02 -0.27850546145E+02 -0.42620110931E+01  0.32221220116E+02  0.00000000000E+00 0.  1.
         11    1    1    2    0    0  0.46020726532E+01  0.30034012443E+02 -0.11208854047E+03  0.11613381024E+03  0.00000000000E+00 0. -1.
</event>
<event>
 7    1  0.2688177E-009  0.9806774E+02  0.7561462E-02  0.1284412E+00
         -3   -1    0    0    0  501 -0.00000000000E+00  0.00000000000E+00  0.15554547325E+04  0.15554547325E+04  0.00000000000E+00 0.  1.
          3   -1    0    0  501    0  0.00000000000E+00 -0.00000000000E+00 -0.86818571308E+01  0.86818571308E+01  0.00000000000E+00 0. -1.
         25    2    1    2    0    0  0.16567732379E+02  0.37104323431E+01  0.11545662722E+04  0.11614472402E+04  0.12509259699E+03 0.  0.
          5    1    3    3  502    0  0.54988795963E+02 -0.23743850300E+02  0.92976900724E+03  0.93170564952E+03  0.41800000000E+01 0. -1.
         -5    1    3    3    0  502 -0.38421063584E+02  0.27454282643E+02  0.22479726498E+03  0.22974159071E+03  0.41800000000E+01 0. -1.
        -11    1    1    2    0    0 -0.45013071537E+02 -0.26503665118E+02  0.18208794890E+03  0.18943242069E+03  0.00000000000E+00 0. -1.
         11    1    1    2    0    0  0.28445339158E+02  0.22793232775E+02  0.21011865420E+03  0.21325692867E+03  0.00000000000E+00 0.  1.
</event>
<event>
 7    1  0.2688177E-009  0.1106653E+03  0.7561462E-02  0.1259343E+00
          3   -1    0    0  501    0  0.00000000000E+00  0.00000000000E+00  0.45124058227E+02  0.45124058227E+02  0.00000000000E+00 0. -1.
         -3   -1    0    0    0  501 -0.00000000000E+00 -0.00000000000E+00 -0.44226171207E+03  0.44226171207E+03  0.00000000000E+00 0.  1.
         25    2    1    2    0    0 -0.62424745281E+02 -0.64745063496E+02 -0.19238232578E+03  0.24646662152E+03  0.12508422835E+03 0.  0.
          5    1    3    3  502    0 -0.56265355895E+02 -0.24180121102E+02 -0.19569042330E+03  0.20509188843E+03  0.41800000000E+01 0. -1.
         -5    1    3    3    0  502 -0.61593893862E+01 -0.40564942394E+02  0.33080975164E+01  0.41374733090E+02  0.41800000000E+01 0. -1.
        -11    1    1    2    0    0 -0.85977882577E+01  0.43832062765E+02 -0.38677479400E+02  0.59085692869E+02  0.00000000000E+00 0. -1.
         11    1    1    2    0    0  0.71022533539E+02  0.20913000731E+02 -0.16607784866E+03  0.18183345590E+03  0.00000000000E+00 0.  1.
</event>
<event>
 7    1  0.2688177E-009  0.3414636E+03  0.7561462E-02  0.1066174E+00
          3   -1    0    0  501    0  0.00000000000E+00  0.00000000000E+00  0.25748551230E+03  0.25748551230E+03  0.00000000000E+00 0. -1.
         -3   -1    0    0    0  501 -0.00000000000E+00 -0.00000000000E+00 -0.52855627047E+03  0.52855627047E+03  0.00000000000E+00 0.  1.
         25    2    1    2    0    0 -0.96156995136E+02 -0.31492985719E+03 -0.27108291030E+03  0.44447790822E+03  0.12509070300E+03 0.  0.
          5    1    3    3  502    0 -0.33774516446E+02 -0.68463924587E+01 -0.10827172697E+02  0.36363321073E+02  0.41800000000E+01 0.  1.
         -5    1    3    3    0  502 -0.62382478690E+02 -0.30808346473E+03 -0.26025573761E+03  0.40811458715E+03  0.41800000000E+01 0.  1.
        -11    1    1    2    0    0  0.41180320809E+02  0.58176342359E+02  0.29902426061E+02  0.77294635755E+02  0.00000000000E+00 0. -1.
         11    1    1    2    0    0  0.54976674328E+02  0.25675351483E+03 -0.29890273923E+02  0.26426923879E+03  0.00000000000E+00 0.  1.
</event>
<event>
 7    1  0.2688177E-009  0.7428119E+02  0.7561462E-02  0.1346112E+00
         -1   -1    0    0    0  501 -0.00000000000E+00  0.00000000000E+00  0.88495702627E+02  0.88495702627E+02  0.00000000000E+00 0.  1.
          1   -1    0    0  501    0  0.00000000000E+00 -0.00000000000E+00 -0.17269144090E+03  0.17269144090E+03  0.00000000000E+00 0. -1.
         25    2    1    2    0    0 -0.81419458884E+01  0.55586508546E+02 -0.60283528473E+02  0.14979356609E+03  0.12509139627E+03 0.  0.
          5    1    3    3  502    0  0.42591396559E+00  0.35627889640E+02 -0.98947377109E+02  0.10525010100E+03  0.41800000000E+01 0. -1.
         -5    1    3    3    0  502 -0.85678598540E+01  0.19958618906E+02  0.38663848636E+02  0.44543465093E+02  0.41800000000E+01 0. -1.
        -11    1    1    2    0    0 -0.30911841821E+02 -0.33980470728E+02  0.18782928151E+02  0.49628749184E+02  0.00000000000E+00 0. -1.
         11    1    1    2    0    0  0.39053787709E+02 -0.21606037818E+02 -0.42695137950E+02  0.61764828254E+02  0.00000000000E+00 0.  1.
</event>
<event>
 7    1  0.2688177E-009  0.2202823E+03  0.7561462E-02  0.1133673E+00
          2   -1    0    0  501    0  0.00000000000E+00  0.00000000000E+00  0.15949626728E+04  0.15949626728E+04  0.00000000000E+00 0. -1.
         -2   -1    0    0    0  501 -0.00000000000E+00 -0.00000000000E+00 -0.61350069634E+02  0.61350069634E+02  0.00000000000E+00 0.  1.
         25    2    1    2    0    0 -0.11138251185E+03 -0.16932100964E+03  0.13418901701E+04  0.13628618909E+04  0.12509051409E+03 0.  0.
          5    1    3    3  502    0  0.11716538541E+02  0.12087792241E+02  0.14694640267E+03  0.14796658290E+03  0.41800000000E+01 0.  1.
         -5    1    3    3    0  502 -0.12309905039E+03 -0.18140880188E+03  0.11949437674E+04  0.12148953080E+04  0.41800000000E+01 0.  1.
        -11    1    1    2    0    0  0.42343883819E+02  0.85046767435E+02  0.32271063737E+02  0.10033632793E+03  0.00000000000E+00 0.  1.
         11    1    1    2    0    0  0.69038628031E+02  0.84274242203E+02  0.15945136934E+03  0.19311452365E+03  0.00000000000E+00 0. -1.
</event>
<event>
 7    1  0.2688177E-009  0.1600449E+03  0.7561462E-02  0.1188646E+00
         -1   -1    0    0    0  501 -0.00000000000E+00  0.00000000000E+00  0.12878244602E+03  0.12878244602E+03  0.00000000000E+00 0.  1.
          1   -1    0    0  501    0  0.00000000000E+00 -0.00000000000E+00 -0.26497534965E+03  0.26497534965E+03  0.00000000000E+00 0. -1.
         25    2    1    2    0    0  0.82892701901E+02 -0.10140302602E+03  0.84738249237E+00  0.18111425628E+03  0.12509149474E+03 0.  0.
          5    1    3    3  502    0 -0.61652363534E+01  0.23368798474E+02  0.12101213517E+02  0.27350002742E+02  0.41800000000E+01 0.  1.
         -5    1    3    3    0  502  0.89057938254E+02 -0.12477182450E+03 -0.11253831025E+02  0.15376425354E+03  0.41800000000E+01 0.  1.
        -11    1    1    2    0    0 -0.67502258475E+02  0.39044346812E+02 -0.12494776078E+03  0.14728529744E+03  0.00000000000E+00 0. -1.
         11    1    1    2    0    0 -0.15390443426E+02  0.62358679211E+02 -0.12092525337E+02  0.65358241950E+02  0.00000000000E+00 0.  1.
</event>
<event>
 7    1  0.2688177E-009  0.9303962E+02  0.7561462E-02  0.1295653E+00
          2   -1    0    0  501    0  0.00000000000E+00  0.00000000000E+00  0.30829259504E+02  0.30829259504E+02  0.00000000000E+00 0. -1.
         -2   -1    0    0    0  501 -0.00000000000E+00 -0.00000000000E+00 -0.43359327000E+03  0.43359327000E+03  0.00000000000E+00 0.  1.
         25    2    1    2    0    0 -0.30639504142E+02  0.12830509393E+01 -0.29039838810E+03  0.31767768981E+03  0.12508982916E+03 0.  0.
          5    1    3    3  502    0  0.44296880647E+02 -0.15082121199E+02 -0.70243610675E+02  0.84506338553E+02  0.41800000000E+01 0. -1.
         -5    1    3    3    0  502 -0.74936384788E+02  0.16365172138E+02 -0.22015477742E+03  0.23317135126E+03  0.41800000000E+01 0. -1.
        -11    1    1    2    0    0  0.17281155340E+02  0.26395312546E+02 -0.11163009825E+03  0.11600271414E+03  0.00000000000E+00 0.  1.
         11    1    1    2    0    0  0.13358348801E+02 -0.27678363485E+02 -0.73552415526E+00  0.30742125556E+02  0.00000000000E+00 0. -1.
</event>
<event>
 7    1  0.2688177E-009  0.9112064E+02  0.7561462E-02  0.1300160E+00
          2   -1    0    0  501    0  0.00000000000E+00  0.00000000000E+00  0.11579468076E+04  0.11579468076E+04  0.00000000000E+00 0. -1.
         -2   -1    0    0    0  501 -0.00000000000E+00 -0.00000000000E+00 -0.18502374552E+02  0.18502374552E+02  0.00000000000E+00 0.  1.
         25    2    1    2    0    0 -0.54661960375E+02 -0.36194937223E+02  0.88549376315E+03  0.89668516229E+03  0.12508825801E+03 0.  0.
          5    1    3    3  502    0 -0.70651590646E+02 -0.41212643929E+02  0.30120234101E+03  0.31213851398E+03  0.41800000000E+01 0.  1.
         -5    1    3    3    0  502  0.15989630271E+02  0.50177067059E+01  0.58429142214E+03  0.58454664830E+03  0.41800000000E+01 0.  1.
        -11    1    1    2    0    0  0.38300965906E+02 -0.51117575663E+01  0.23839044159E+02  0.45402577913E+02  0.00000000000E+00 0.  1.
         11    1    1    2    0    0  0.16360994469E+02  0.41306694789E+02  0.23011162577E+03  0.23436144199E+03  0.00000000000E+00 0. -1.
</event>
<event>
 7    1  0.2688177E-009  0.1038908E+03  0.7561462E-02  0.1272320E+00
          1   -1    0    0  501    0  0.00000000000E+00  0.00000000000E+00  0.16460271345E+03  0.16460271345E+03  0.00000000000E+00 0. -1.
         -1   -1    0    0    0  501 -0.00000000000E+00 -0.00000000000E+00 -0.15544493868E+03  0.15544493868E+03  0.00000000000E+00 0.  1.
         25    2    1    2    0    0 -0.41744574089E+02 -0.70478758985E+02  0.91275980060E+02  0.17516827513E+03  0.12507100041E+03 0.  0.
          5    1    3    3  502    0 -0.53801685672E+02 -0.34897261333E+01 -0.80637578982E+01  0.54674456203E+02  0.41800000000E+01 0.  1.
         -5    1    3    3    0  502  0.12057111583E+02 -0.66989032852E+02  0.99339737959E+02  0.12049381893E+03  0.41800000000E+01 0.  1.
        -11    1    1    2    0    0  0.14195278425E+02  0.47691322077E+02 -0.94700703144E+02  0.10697752711E+03  0.00000000000E+00 0.  1.
         11    1    1    2    0    0  0.27549295664E+02  0.22787436908E+02  0.12582497855E+02  0.37901849885E+02  0.00000000000E+00 0. -1.
</event>
<event>
 7    1  0.2688177E-009  0.6218444E+02  0.7561462E-02  0.1388887E+00
         -1   -1    0    0    0  501 -0.00000000000E+00  0.00000000000E+00  0.27709288844E+03  0.27709288844E+03  0.00000000000E+00 0.  1.
          1   -1    0    0  501    0  0.00000000000E+00 -0.00000000000E+00 -0.81668499442E+02  0.81668499442E+02  0.00000000000E+00 0. -1.
         25    2    1    2    0    0 -0.20629445046E+02 -0.26073978410E+02 -0.11844174403E+02  0.12997394092E+03  0.12509002557E+03 0.  0.
          5    1    3    3  502    0 -0.25042247206E+02 -0.15236844306E+02  0.54742778070E+02  0.62237606962E+02  0.41800000000E+01 0. -1.
         -5    1    3    3    0  502  0.44128021604E+01 -0.10837134104E+02 -0.66586952473E+02  0.67736333959E+02  0.41800000000E+01 0. -1.
        -11    1    1    2    0    0 -0.95563733644E+01  0.45463450767E+02  0.17316344108E+03  0.17928699605E+03  0.00000000000E+00 0.  1.
         11    1    1    2    0    0  0.30185818410E+02 -0.19389472357E+02  0.34105122321E+02  0.49500450906E+02  0.00000000000E+00 0. -1.
</event>
<event>
 7    1  0.2688177E-009  0.1125570E+03  0.7561462E-02  0.1255907E+00
          2   -1    0    0  501    0  0.00000000000E+00  0.00000000000E+00  0.14754068055E+03  0.14754068055E+03  0.00000000000E+00 0. -1.
         -2   -1    0    0    0  501 -0.00000000000E+00 -0.00000000000E+00 -0.15511378761E+03  0.15511378761E+03  0.00000000000E+00 0.  1.
         25    2    1    2    0    0 -0.56067763661E+02  0.85896120972E+02  0.19355836300E+02  0.16292172128E+03  0.12508837334E+03 0.  0.
          5    1    3    3  502    0 -0.34686335897E+02  0.69077179448E+02  0.70590110073E+02  0.10476275416E+03  0.41800000000E+01 0. -1.
         -5    1    3    3    0  502 -0.21381427764E+02  0.16818941524E+02 -0.51234273773E+02  0.58158967118E+02  0.41800000000E+01 0. -1.
        -11    1    1    2    0    0  0.54158478654E+02 -0.95824816221E+02 -0.45089122280E+02  0.11894774131E+03  0.00000000000E+00 0.  1.
         11    1    1    2    0    0  0.19092850067E+01  0.99286952490E+01  0.18160178915E+02  0.20785005576E+02  0.00000000000E+00 0. -1.
</event>
<event>
 7    1  0.2688177E-009  0.1036108E+03  0.7561462E-02  0.1272881E+00
          1   -1    0    0  501    0  0.00000000000E+00  0.00000000000E+00  0.20033771571E+03  0.20033771571E+03  0.00000000000E+00 0. -1.
         -1   -1    0    0    0  501 -0.00000000000E+00 -0.00000000000E+00 -0.70208233482E+02  0.70208233482E+02  0.00000000000E+00 0.  1.
         25    2    1    2    0    0  0.39118208455E+02 -0.23129363591E+02  0.54802274890E+02  0.14392970714E+03  0.12508904657E+03 0.  0.
          5    1    3    3  502    0 -0.29365705528E+02 -0.24086392632E+02  0.64160727031E+02  0.74676437142E+02  0.41800000000E+01 0. -1.
         -5    1    3    3    0  502  0.68483913984E+02  0.95702904133E+00 -0.93584521405E+01  0.69253269999E+02  0.41800000000E+01 0. -1.
        -11    1    1    2    0    0 -0.64596319733E+02  0.33642488189E+02  0.63488561382E+02  0.96619350862E+02  0.00000000000E+00 0.  1.
         11    1    1    2    0    0  0.25478111277E+02 -0.10513124599E+02  0.11838645959E+02  0.29996891193E+02  0.00000000000E+00 0. -1.
</event>
<event>
 7    1  0.2688177E-009  0.1027043E+03  0.7561462E-02  0.1274710E+00
         -1   -1    0    0    0  501 -0.00000000000E+00  0.00000000000E+00  0.16793441739E+03  0.16793441739E+03  0.00000000000E+00 0.  1.
          1   -1    0    0  501    0  0.00000000000E+00 -0.00000000000E+00 -0.87215031162E+02  0.87215031162E+02  0.00000000000E+00 0. -1.
         25    2    1    2    0    0  0.14931527621E+02  0.17716611923E+02  0.94820800104E+02  0.15866542381E+03  0.12508758421E+03 0.  0.
          5    1    3    3  502    0 -0.29213043279E+02 -0.31972746515E+02  0.79038693550E+02  0.90223311264E+02  0.41800000000E+01 0. -1.
         -5    1    3    3    0  502  0.44144570901E+02  0.49689358438E+02  0.15782106555E+02  0.68442112543E+02  0.41800000000E+01 0. -1.
        -11    1    1    2    0    0  0.19402844896E+02  0.30476050742E+02 -0.79493671763E+01  0.36992600576E+02  0.00000000000E+00 0.  1.
         11    1    1    2    0    0 -0.34334372518E+02 -0.48192662665E+02 -0.61520467019E+01  0.59491424168E+02  0.00000000000E+00 0. -1.
</event>
<event>
 7    1  0.2688177E-009  0.2731044E+03  0.7561462E-02  0.1099516E+00
         -1   -1    0    0    0  501 -0.00000000000E+00  0.00000000000E+00  0.64416737540E+02  0.64416737540E+02  0.00000000000E+00 0.  1.
          1   -1    0    0  501    0  0.00000000000E+00 -0.00000000000E+00 -0.12667074746E+04  0.12667074746E+04  0.00000000000E+00 0. -1.
         25    2    1    2    0    0 -0.13191601896E+03  0.22759201002E+03 -0.56240722170E+03  0.63336315688E+03  0.12508815448E+03 0.  0.
          5    1    3    3  502    0 -0.76013940464E+02  0.37373027760E+02 -0.10611418986E+03  0.13584018565E+03  0.41800000000E+01 0. -1.
         -5    1    3    3    0  502 -0.55902078495E+02  0.19021898226E+03 -0.45629303184E+03  0.49752297123E+03  0.41800000000E+01 0. -1.
        -11    1    1    2    0    0  0.94495426067E+02 -0.16683300809E+03 -0.55319707925E+03  0.58548240505E+03  0.00000000000E+00 0. -1.
         11    1    1    2    0    0  0.37420592892E+02 -0.60759001928E+02 -0.86686436119E+02  0.11227865022E+03  0.00000000000E+00 0.  1.
</event>
<event>
 7    1  0.2688177E-009  0.8360296E+02  0.7561462E-02  0.1319127E+00
          3   -1    0    0  501    0  0.00000000000E+00  0.00000000000E+00  0.12616556855E+03  0.12616556855E+03  0.00000000000E+00 0. -1.
         -3   -1    0    0    0  501 -0.00000000000E+00 -0.00000000000E+00 -0.95333663051E+02  0.95333663051E+02  0.00000000000E+00 0.  1.
         25    2    1    2    0    0 -0.16631651450E+02  0.72394970057E+01  0.33961028294E+02  0.13087772773E+03  0.12508639425E+03 0.  0.
          5    1    3    3  502    0 -0.44136941788E+02 -0.13076583796E+02 -0.32167424180E+02  0.56314139011E+02  0.41800000000E+01 0. -1.
         -5    1    3    3    0  502  0.27505290338E+02  0.20316080801E+02  0.66128452474E+02  0.74563588717E+02  0.41800000000E+01 0. -1.
        -11    1    1    2    0    0  0.13373583025E+02  0.38459759762E+02  0.11870059987E+02  0.42413490400E+02  0.00000000000E+00 0.  1.
         11    1    1    2    0    0  0.32580684243E+01 -0.45699256767E+02 -0.14999182782E+02  0.48208013473E+02  0.00000000000E+00 0. -1.
</event>
<event>
 7    1  0.2688177E-009  0.9900279E+02  0.7561462E-02  0.1282407E+00
         -2   -1    0    0    0  501 -0.00000000000E+00  0.00000000000E+00  0.61492965040E+02  0.61492965040E+02  0.00000000000E+00 0. -1.
          2   -1    0    0  501    0  0.00000000000E+00 -0.00000000000E+00 -0.27463613197E+03  0.27463613197E+03  0.00000000000E+00 0.  1.
         25    2    1    2    0    0  0.49569198187E+02 -0.41832401791E+02 -0.77390780163E+02  0.16076267353E+03  0.12509296183E+03 0.  0.
          5    1    3    3  502    0  0.15896405474E+02  0.15220623114E+02 -0.90387169987E+02  0.93121834031E+02  0.41800000000E+01 0.  1.
         -5    1    3    3    0  502  0.33672792713E+02 -0.57053024905E+02  0.12996389824E+02  0.67640839501E+02  0.41800000000E+01 0.  1.
        -11    1    1    2    0    0 -0.75012995710E+02  0.35575723001E+02 -0.88570610875E+02  0.12139742461E+03  0.00000000000E+00 0. -1.
         11    1    1    2    0    0  0.25443797523E+02  0.62566787905E+01 -0.47181775888E+02  0.53968998859E+02  0.00000000000E+00 0.  1.
</event>
<event>
 7    1  0.2688177E-009  0.2107168E+03  0.7561462E-02  0.1141000E+00
         -1   -1    0    0    0  501 -0.00000000000E+00  0.00000000000E+00  0.33377555156E+03  0.33377555156E+03  0.00000000000E+00 0.  1.
          1   -1    0    0  501    0  0.00000000000E+00 -0.00000000000E+00 -0.25329699927E+03  0.25329699927E+03  0.00000000000E+00 0. -1.
         25    2    1    2    0    0 -0.14257080122E+03  0.15067434266E+03 -0.13262429133E+03  0.27617026231E+03  0.12510643565E+03 0.  0.
          5    1    3    3  502    0 -0.54769790318E+02  0.79815155083E+02  0.63685015742E+01  0.97099017115E+02  0.41800000000E+01 0.  1.
         -5    1    3    3    0  502 -0.87801010898E+02  0.70859187573E+02 -0.13899279290E+03  0.17907124520E+03  0.41800000000E+01 0.  1.
        -11    1    1    2    0    0  0.65973519898E+02 -0.99980438257E+02  0.64087724410E+02  0.13585223510E+03  0.00000000000E+00 0. -1.
         11    1    1    2    0    0  0.76597281318E+02 -0.50693904399E+02  0.14901511921E+03  0.17505005342E+03  0.00000000000E+00 0.  1.
</event>
<event>
 7    1  0.2688177E-009  0.8972802E+02  0.7561462E-02  0.1303512E+00
         -1   -1    0    0    0  501 -0.00000000000E+00  0.00000000000E+00  0.53047332708E+02  0.53047332708E+02  0.00000000000E+00 0.  1.
          1   -1    0    0  501    0  0.00000000000E+00 -0.00000000000E+00 -0.33438195898E+03  0.33438195898E+03  0.00000000000E+00 0. -1.
         25    2    1    2    0    0  0.59760905211E+02  0.16990693658E+02 -0.89773385395E+02  0.16603199306E+03  0.12508921829E+03 0.  0.
          5    1    3    3  502    0  0.24582945555E+02  0.48393446737E+02  0.10226844750E+02  0.55392306801E+02  0.41800000000E+01 0.  1.
         -5    1    3    3    0  502  0.35177959656E+02 -0.31402753079E+02 -0.10000023015E+03  0.11063968626E+03  0.41800000000E+01 0.  1.
        -11    1    1    2    0    0 -0.44278129035E+02  0.11057590999E+02 -0.18247546953E+03  0.18809603932E+03  0.00000000000E+00 0. -1.
         11    1    1    2    0    0 -0.15482776176E+02 -0.28048284657E+02 -0.90857713514E+01  0.33301259306E+02  0.00000000000E+00 0.  1.
</event>
<event>
 7    1  0.2688177E-009  0.1198703E+03  0.7561462E-02  0.1243311E+00
          3   -1    0    0  501    0  0.00000000000E+00  0.00000000000E+00  0.33079749874E+02  0.33079749874E+02  0.00000000000E+00 0. -1.
         -3   -1    0    0    0  501 -0.00000000000E+00 -0.00000000000E+00 -0.49873797747E+03  0.49873797747E+03  0.00000000000E+00 0.  1.
         25    2    1    2    0    0 -0.20346147341E+02  0.65619066718E+02 -0.28425230209E+03  0.31806636100E+03  0.12508801353E+03 0.  0.
          5    1    3    3  502    0  0.52180152152E+02  0.37187985755E+02 -0.11534514822E+03  0.13201397722E+03  0.41800000000E+01 0.  1.
         -5    1    3    3    0  502 -0.72526299492E+02  0.28431080963E+02 -0.16890715387E+03  0.18605238378E+03  0.41800000000E+01 0.  1.
        -11    1    1    2    0    0  0.23488638325E+01 -0.76466809106E+02 -0.17621616377E+03  0.19210628941E+03  0.00000000000E+00 0.  1.
         11    1    1    2    0    0  0.17997283508E+02  0.10847742388E+02 -0.51897617337E+01  0.21645076933E+02  0.00000000000E+00 0. -1.
</event>
<event>
 7    1  0.2688177E-009  0.1738654E+03  0.7561462E-02  0.1173876E+00
         -2   -1    0    0    0  501 -0.00000000000E+00  0.00000000000E+00  0.42129439666E+02  0.42129439666E+02  0.00000000000E+00 0.  1.
          2   -1    0    0  501    0  0.00000000000E+00 -0.00000000000E+00 -0.79629515480E+03  0.79629515480E+03  0.00000000000E+00 0. -1.
         25    2    1    2    0    0 -0.12606947009E+03 -0.46902329364E+02 -0.26670903779E+03  0.32384356688E+03  0.12509038806E+03 0.  0.
          5    1    3    3  502    0 -0.12083108222E+03  0.13955102743E+02 -0.16322773658E+03  0.20360663475E+03  0.41800000000E+01 0. -1.
         -5    1    3    3    0  502 -0.52383878662E+01 -0.60857432107E+02 -0.10348130121E+03  0.12023693214E+03  0.41800000000E+01 0. -1.
        -11    1    1    2    0    0  0.29797714525E+02  0.60627355194E+02 -0.19285671619E+03  0.20434601285E+03  0.00000000000E+00 0.  1.
         11    1    1    2    0    0  0.96271755562E+02 -0.13725025830E+02 -0.29459996115E+03  0.31023501473E+03  0.00000000000E+00 0. -1.
</event>
<event>
 7    1  0.2688177E-009  0.1081348E+03  0.7561462E-02  0.1264064E+00
         -3   -1    0    0    0  501 -0.00000000000E+00  0.00000000000E+00  0.78534893866E+02  0.78534893866E+02  0.00000000000E+00 0.  1.
          3   -1    0    0  501    0  0.00000000000E+00 -0.00000000000E+00 -0.22367500052E+03  0.22367500052E+03  0.00000000000E+00 0. -1.
         25    2    1    2    0    0  0.33333227665E+02  0.41213499289E+01 -0.15771364405E+03  0.20408024566E+03  0.12508822310E+03 0.  0.
          5    1    3    3  502    0  0.74459236564E+02 -0.11348110624E+02 -0.58395967163E+02  0.95396639906E+02  0.41800000000E+01 0.  1.
         -5    1    3    3    0  502 -0.41126008899E+02  0.15469460553E+02 -0.99317676891E+02  0.10868360576E+03  0.41800000000E+01 0.  1.
        -11    1    1    2    0    0 -0.25528528109E+02 -0.46800364723E+02  0.14062987097E+01  0.53328768612E+02  0.00000000000E+00 0.  1.
         11    1    1    2    0    0 -0.78046995559E+01  0.42679014794E+02  0.11167238688E+02  0.44800880113E+02  0.00000000000E+00 0. -1.
</event>
<event>
 7    1  0.2688177E-009  0.8269264E+02  0.7561462E-02  0.1321579E+00
          2   -1    0    0  501    0  0.00000000000E+00  0.00000000000E+00  0.24656196572E+03  0.24656196572E+03  0.00000000000E+00 0. -1.
         -2   -1    0    0    0  501 -0.00000000000E+00 -0.00000000000E+00 -0.50545389007E+02  0.50545389007E+02  0.00000000000E+00 0.  1.
         25    2    1    2    0    0  0.36146231520E+02  0.44987620855E+01  0.13043239670E+03  0.18435007447E+03  0.12508217673E+03 0.  0.
          5    1    3    3  502    0 -0.15773880933E+02 -0.34354681566E+02 -0.65605602677E+00  0.38038957329E+02  0.41800000000E+01 0.  1.
         -5    1    3    3    0  502  0.51920112453E+02  0.38853443651E+02  0.13108845273E+03  0.14631111714E+03  0.41800000000E+01 0.  1.
        -11    1    1    2    0    0  0.12081137317E+02  0.52396437794E+01  0.62047581491E+02  0.63429568142E+02  0.00000000000E+00 0. -1.
         11    1    1    2    0    0 -0.48227368837E+02 -0.97384058649E+01  0.35365985268E+01  0.49327712119E+02  0.00000000000E+00 0.  1.
</event>
<event>
 7    1  0.2688177E-009  0.1203645E+03  0.7561462E-02  0.1242497E+00
         -2   -1    0    0    0  501 -0.00000000000E+00  0.00000000000E+00  0.16088829537E+03  0.16088829537E+03  0.00000000000E+00 0.  1.
          2   -1    0    0  501    0  0.00000000000E+00 -0.00000000000E+00 -0.18260608655E+03  0.18260608655E+03  0.00000000000E+00 0. -1.
         25    2    1    2    0    0  0.55160748939E+02 -0.25436867155E+02 -0.12880753488E+03  0.18954792308E+03  0.12508913490E+03 0.  0.
          5    1    3    3  502    0  0.34030210746E+02 -0.74808809511E+02 -0.96142241882E+02  0.12655123981E+03  0.41800000000E+01 0. -1.
         -5    1    3    3    0  502  0.21130538192E+02  0.49371942357E+02 -0.32665292997E+02  0.62996683270E+02  0.41800000000E+01 0. -1.
        -11    1    1    2    0    0  0.33141440561E+01 -0.26291767771E+02  0.52102184292E+02  0.58454069245E+02  0.00000000000E+00 0.  1.
         11    1    1    2    0    0 -0.58474892995E+02  0.51728634925E+02  0.54987559405E+02  0.95492389599E+02  0.00000000000E+00 0. -1.
</event>
<event>
 7    1  0.2688177E-009  0.8148456E+02  0.7561462E-02  0.1324890E+00
         -3   -1    0    0    0  501 -0.00000000000E+00  0.00000000000E+00  0.15761054920E+03  0.15761054920E+03  0.00000000000E+00 0.  1.
          3   -1    0    0  501    0  0.00000000000E+00 -0.00000000000E+00 -0.10732875514E+03  0.10732875514E+03  0.00000000000E+00 0. -1.
         25    2    1    2    0    0  0.32039313703E+02  0.58673219494E+02  0.55057256339E+02  0.15215064553E+03  0.12509777436E+03 0.  0.
          5    1    3    3  502    0  0.23153356262E+01  0.10704797013E+02 -0.39913917418E+02  0.41599839684E+02  0.41800000000E+01 0.  1.
         -5    1    3    3    0  502  0.29723978076E+02  0.47968422481E+02  0.94971173757E+02  0.11055080584E+03  0.41800000000E+01 0.  1.
        -11    1    1    2    0    0 -0.49148875680E+02 -0.21317444885E+02  0.27798222450E+02  0.60355501890E+02  0.00000000000E+00 0.  1.
         11    1    1    2    0    0  0.17109561978E+02 -0.37355774609E+02 -0.32573684736E+02  0.52433156924E+02  0.00000000000E+00 0. -1.
</event>
<event>
 7    1  0.2688177E-009  0.1873180E+03  0.7561462E-02  0.1160903E+00
          1   -1    0    0  501    0  0.00000000000E+00  0.00000000000E+00  0.34795557053E+03  0.34795557053E+03  0.00000000000E+00 0. -1.
         -1   -1    0    0    0  501 -0.00000000000E+00 -0.00000000000E+00 -0.10820007973E+03  0.10820007973E+03  0.00000000000E+00 0.  1.
         25    2    1    2    0    0  0.14986941738E+03 -0.50199773078E+02  0.93136188519E+02  0.22204233073E+03  0.12509031753E+03 0.  0.
          5    1    3    3  502    0  0.15902489233E+03 -0.67220767924E+02  0.58828477168E+02  0.18244399181E+03  0.41800000000E+01 0. -1.
         -5    1    3    3    0  502 -0.91554749476E+01  0.17020994846E+02  0.34307711351E+02  0.39598338919E+02  0.41800000000E+01 0. -1.
        -11    1    1    2    0    0 -0.15822077301E+03  0.60064193468E+02  0.13222045285E+03  0.21476444888E+03  0.00000000000E+00 0.  1.
         11    1    1    2    0    0  0.83513556308E+01 -0.98644203904E+01  0.14398849430E+02  0.19348870650E+02  0.00000000000E+00 0. -1.
</event>
<event>
 7    1  0.2688177E-009  0.1000148E+03  0.7561462E-02  0.1280265E+00
          1   -1    0    0  501    0  0.00000000000E+00  0.00000000000E+00  0.31552414261E+02  0.31552414261E+02  0.00000000000E+00 0. -1.
         -1   -1    0    0    0  501 -0.00000000000E+00 -0.00000000000E+00 -0.41148094668E+03  0.41148094668E+03  0.00000000000E+00 0.  1.
         25    2    1    2    0    0  0.10174626260E+02 -0.86577569324E+01 -0.28158012441E+03  0.30840391075E+03  0.12508847241E+03 0.  0.
          5    1    3    3  502    0 -0.36861574815E+02  0.30776320918E+02 -0.20278962033E+03  0.20843958391E+03  0.41800000000E+01 0. -1.
         -5    1    3    3    0  502  0.47036201076E+02 -0.39434077851E+02 -0.78790504083E+02  0.99964326843E+02  0.41800000000E+01 0. -1.
        -11    1    1    2    0    0 -0.47692712968E+02 -0.94924575887E+01 -0.40232983299E+02  0.63114139196E+02  0.00000000000E+00 0.  1.
         11    1    1    2    0    0  0.37518086707E+02  0.18150214521E+02 -0.58115424708E+02  0.71515310992E+02  0.00000000000E+00 0. -1.
</event>
<event>
 7    1  0.2688177E-009  0.8079074E+02  0.7561462E-02  0.1326822E+00
         -2   -1    0    0    0  501 -0.00000000000E+00  0.00000000000E+00  0.80640478481E+03  0.80640478481E+03  0.00000000000E+00 0.  1.
          2   -1    0    0  501    0  0.00000000000E+00 -0.00000000000E+00 -0.18842382951E+02  0.18842382951E+02  0.00000000000E+00 0. -1.
         25    2    1    2    0    0 -0.24993329344E+02  0.13488252653E+02  0.60509544311E+03  0.61854190708E+03  0.12508795336E+03 0.  0.
          5    1    3    3  502    0 -0.60263335344E+02  0.60156351182E+01  0.14742800086E+03  0.15943759058E+03  0.41800000000E+01 0. -1.
         -5    1    3    3    0  502  0.35270005999E+02  0.74726175350E+01  0.45766744225E+03  0.45910431650E+03  0.41800000000E+01 0. -1.
        -11    1    1    2    0    0  0.15268693167E+01 -0.33624144218E+02  0.15779462243E+02  0.37173994042E+02  0.00000000000E+00 0. -1.
         11    1    1    2    0    0  0.23466460028E+02  0.20135891565E+02  0.16668749651E+03  0.16953126664E+03  0.00000000000E+00 0.  1.
</event>
<event>
 7    1  0.2688177E-009  0.1362007E+03  0.7561462E-02  0.1218535E+00
         -1   -1    0    0    0  501 -0.00000000000E+00  0.00000000000E+00  0.14603994398E+03  0.14603994398E+03  0.00000000000E+00 0.  1.
          1   -1    0    0  501    0  0.00000000000E+00 -0.00000000000E+00 -0.13721589267E+03  0.13721589267E+03  0.00000000000E+00 0. -1.
         25    2    1    2    0    0 -0.62958249597E+02 -0.58426619604E+02 -0.27752969969E+02  0.15425957473E+03  0.12509347698E+03 0.  0.
          5    1    3    3  502    0 -0.72292768572E+01 -0.86003501287E+02 -0.31141425838E+02  0.91848383115E+02  0.41800000000E+01 0. -1.
         -5    1    3    3    0  502 -0.55728972740E+02  0.27576881683E+02  0.33884558695E+01  0.62411191618E+02  0.41800000000E+01 0. -1.
        -11    1    1    2    0    0  0.85922123766E+02  0.43729964647E+02  0.29639027843E+02  0.10086323975E+03  0.00000000000E+00 0.  1.
         11    1    1    2    0    0 -0.22963874169E+02  0.14696654957E+02  0.69379934412E+01  0.28133022176E+02  0.00000000000E+00 0. -1.
</event>
<event>
 7    1  0.2688177E-009  0.9858360E+02  0.7561462E-02  0.1283303E+00
          2   -1    0    0  501    0  0.00000000000E+00  0.00000000000E+00  0.11957573884E+04  0.11957573884E+04  0.00000000000E+00 0.  1.
         -2   -1    0    0    0  501 -0.00000000000E+00 -0.00000000000E+00 -0.14287660017E+02  0.14287660017E+02  0.00000000000E+00 0. -1.
         25    2    1    2    0    0  0.46711426336E+01 -0.64075612470E+02  0.79665039924E+03  0.80896727200E+03  0.12509470367E+03 0.  0.
          5    1    3    3  502    0 -0.26312086446E+02 -0.13473298707E+02  0.39647798689E+02  0.49631401473E+02  0.41800000000E+01 0. -1.
         -5    1    3    3    0  502  0.30983229080E+02 -0.50602313762E+02  0.75700260055E+03  0.75933587053E+03  0.41800000000E+01 0. -1.
        -11    1    1    2    0    0 -0.35981435280E+02  0.67340668243E+02  0.32048845996E+03  0.32945755759E+03  0.00000000000E+00 0. -1.
         11    1    1    2    0    0  0.31310292647E+02 -0.32650557735E+01  0.64330869235E+02  0.71620218873E+02  0.00000000000E+00 0.  1.
</event>
<event>
 7    1  0.2688177E-009  0.1538833E+03  0.7561462E-02  0.1195781E+00
          1   -1    0    0  501    0  0.00000000000E+00  0.00000000000E+00  0.95415690155E+03  0.95415690155E+03  0.00000000000E+00 0. -1.
         -1   -1    0    0    0  501 -0.00000000000E+00 -0.00000000000E+00 -0.41527733447E+02  0.41527733447E+02  0.00000000000E+00 0.  1.
         25    2    1    2    0    0  0.14543921298E+03  0.16022183079E+02  0.67600448435E+03  0.70287919819E+03  0.12509128416E+03 0.  0.
          5    1    3    3  502    0  0.24600431273E+02  0.30765257201E+02  0.43835127379E+02  0.59081918230E+02  0.41800000000E+01 0.  1.
         -5    1    3    3    0  502  0.12083878170E+03 -0.14743074122E+02  0.63216935697E+03  0.64379727996E+03  0.41800000000E+01 0.  1.
        -11    1    1    2    0    0 -0.68044964475E+02 -0.60504311667E+01  0.35317340689E+02  0.76902792284E+02  0.00000000000E+00 0.  1.
         11    1    1    2    0    0 -0.77394248502E+02 -0.99717519125E+01  0.20130734307E+03  0.21590264452E+03  0.00000000000E+00 0. -1.
</event>
<event>
 7    1  0.2688177E-009  0.6969981E+02  0.7561462E-02  0.1361117E+00
         -1   -1    0    0    0  501 -0.00000000000E+00  0.00000000000E+00  0.90674769984E+02  0.90674769984E+02  0.00000000000E+00 0.  1.
          1   -1    0    0  501    0  0.00000000000E+00 -0.00000000000E+00 -0.14289190726E+03  0.14289190726E+03  0.00000000000E+00 0. -1.
         25    2    1    2    0    0 -0.19551589333E+01 -0.34079443522E+02 -0.38666635537E+02  0.13530562375E+03  0.12508905627E+03 0.  0.
          5    1    3    3  502    0 -0.28334895638E+02 -0.49519891445E+02  0.26620135239E+02  0.63096671543E+02  0.41800000000E+01 0.  1.
         -5    1    3    3    0  502  0.26379736705E+02  0.15440447924E+02 -0.65286770776E+02  0.72208952209E+02  0.41800000000E+01 0.  1.
        -11    1    1    2    0    0 -0.11448985852E+02  0.36022662536E+02  0.32754597435E+02  0.50015748983E+02  0.00000000000E+00 0.  1.
         11    1    1    2    0    0  0.13404144786E+02 -0.19432190144E+01 -0.46305099173E+02  0.48245304507E+02  0.00000000000E+00 0. -1.
</event>
<event>
 7    1  0.3514543E-009  0.1415982E+03  0.7561462E-02  0.1211195E+00
         -3   -1    0    0    0  501 -0.00000000000E+00  0.00000000000E+00  0.51089500757E+02  0.51089500757E+02  0.00000000000E+00 0.  1.
          3   -1    0    0  501    0  0.00000000000E+00 -0.00000000000E+00 -0.44637124149E+03  0.44637124149E+03  0.00000000000E+00 0. -1.
         25    2    1    2    0    0  0.71639771606E+02  0.59436530613E+02 -0.13524437712E+03  0.20640497239E+03  0.12508802116E+03 0.  0.
          5    1    3    3  502    0 -0.10482031200E+02  0.68976059447E+02 -0.41259549076E+02  0.81162753434E+02  0.41800000000E+01 0.  1.
         -5    1    3    3    0  502  0.82121802805E+02 -0.95395288349E+01 -0.93984828044E+02  0.12524221896E+03  0.41800000000E+01 0.  1.
        -11    1    1    2    0    0 -0.14263812215E+02 -0.70638621562E+02 -0.15192803930E+03  0.16815290756E+03  0.00000000000E+00 0.  1.
         11    1    1    2    0    0 -0.57375959391E+02  0.11202090950E+02 -0.10810932431E+03  0.12290286230E+03  0.00000000000E+00 0. -1.
</event>
<event>
 7    1  0.2688177E-009  0.1857544E+03  0.7561462E-02  0.1162347E+00
         -2   -1    0    0    0  501 -0.00000000000E+00  0.00000000000E+00  0.13299935139E+03  0.13299935139E+03  0.00000000000E+00 0.  1.
          2   -1    0    0  501    0  0.00000000000E+00 -0.00000000000E+00 -0.28066322951E+03  0.28066322951E+03  0.00000000000E+00 0. -1.
         25    2    1    2    0    0  0.13363257250E+03 -0.86575636209E+02 -0.87234512807E+02  0.22047749322E+03  0.12508980604E+03 0.  0.
          5    1    3    3  502    0  0.30602269034E+02 -0.93584289269E+02 -0.34226273345E+02  0.10432367064E+03  0.41800000000E+01 0. -1.
         -5    1    3    3    0  502  0.10303030347E+03  0.70086530602E+01 -0.53008239462E+02  0.11615382259E+03  0.41800000000E+01 0. -1.
        -11    1    1    2    0    0 -0.86786566499E+02  0.86822059912E+02 -0.75325112743E+02  0.14402725722E+03  0.00000000000E+00 0.  1.
         11    1    1    2    0    0 -0.46846006005E+02 -0.24642370359E+00  0.14895747432E+02  0.49157830453E+02  0.00000000000E+00 0. -1.
</event>
<event>
 7    1  0.2688177E-009  0.9574185E+02  0.7561462E-02  0.1289514E+00
          2   -1    0    0  501    0  0.00000000000E+00  0.00000000000E+00  0.18361518578E+03  0.18361518578E+03  0.00000000000E+00 0. -1.
         -2   -1    0    0    0  501 -0.00000000000E+00 -0.00000000000E+00 -0.90148642791E+02  0.90148642791E+02  0.00000000000E+00 0.  1.
         25    2    1    2    0    0 -0.21495434371E+02  0.14542346698E+01 -0.22521863032E+02  0.12891526940E+03  0.12509094241E+03 0.  0.
          5    1    3    3  502    0  0.10935354906E+02  0.48468025890E+02  0.23807835546E+02  0.55254112552E+02  0.41800000000E+01 0.  1.
         -5    1    3    3    0  502 -0.32430789276E+02 -0.47013791220E+02 -0.46329698579E+02  0.73661156849E+02  0.41800000000E+01 0.  1.
        -11    1    1    2    0    0  0.47686142635E+02  0.18787482184E+02  0.53221151707E+02  0.73887946753E+02  0.00000000000E+00 0. -1.
         11    1    1    2    0    0 -0.26190708265E+02 -0.20241716854E+02  0.62767254309E+02  0.70960612413E+02  0.00000000000E+00 0.  1.
</event>
<event>
 7    1  0.2688177E-009  0.9816292E+02  0.7561462E-02  0.1284207E+00
         -1   -1    0    0    0  501 -0.00000000000E+00  0.00000000000E+00  0.26698321283E+03  0.26698321283E+03  0.00000000000E+00 0.  1.
          1   -1    0    0  501    0  0.00000000000E+00 -0.00000000000E+00 -0.54479962445E+02  0.54479962445E+02  0.00000000000E+00 0. -1.
         25    2    1    2    0    0  0.42296375873E+02  0.22134756815E+01  0.14298868764E+03  0.19464455409E+03  0.12508738848E+03 0.  0.
          5    1    3    3  502    0  0.66528972832E+02  0.29910085139E+01  0.15389070241E+03  0.16773452550E+03  0.41800000000E+01 0.  1.
         -5    1    3    3    0  502 -0.24232596959E+02 -0.77753283241E+00 -0.10902014765E+02  0.26910028589E+02  0.41800000000E+01 0.  1.
        -11    1    1    2    0    0 -0.21120362941E+02  0.46941255523E+02  0.43089377935E+02  0.67128575821E+02  0.00000000000E+00 0.  1.
         11    1    1    2    0    0 -0.21176012932E+02 -0.49154731205E+02  0.26425184810E+02  0.59690045366E+02  0.00000000000E+00 0. -1.
</event>
<event>
 7    1  0.2688177E-009  0.1097001E+03  0.7561462E-02  0.1261126E+00
          1   -1    0    0  501    0  0.00000000000E+00  0.00000000000E+00  0.84822467180E+02  0.84822467180E+02  0.00000000000E+00 0. -1.
         -1   -1    0    0    0  501 -0.00000000000E+00 -0.00000000000E+00 -0.22301909955E+03  0.22301909955E+03  0.00000000000E+00 0.  1.
         25    2    1    2    0    0  0.14074884908E+02  0.78772626893E+02 -0.48372556513E+02  0.15617451772E+03  0.12508935457E+03 0.  0.
          5    1    3    3  502    0 -0.18096425006E+02  0.61741807236E+02  0.28899656847E+02  0.70655459270E+02  0.41800000000E+01 0.  1.
         -5    1    3    3    0  502  0.32171309914E+02  0.17030819657E+02 -0.77272213360E+02  0.85519058445E+02  0.41800000000E+01 0.  1.
        -11    1    1    2    0    0  0.19168473860E+02 -0.82624805429E+02 -0.45885869187E+02  0.96435480262E+02  0.00000000000E+00 0.  1.
         11    1    1    2    0    0 -0.33243358768E+02  0.38521785358E+01 -0.43938206673E+02  0.55231568756E+02  0.00000000000E+00 0. -1.
</event>
<event>
 7    1  0.2688177E-009  0.1021978E+03  0.7561462E-02  0.1275741E+00
         -4   -1    0    0    0  501 -0.00000000000E+00  0.00000000000E+00  0.36300872840E+03  0.36300872840E+03  0.00000000000E+00 0. -1.
          4   -1    0    0  501    0  0.00000000000E+00 -0.00000000000E+00 -0.35365872502E+02  0.35365872502E+02  0.00000000000E+00 0.  1.
         25    2    1    2    0    0  0.20404609784E+02  0.22604436952E+02  0.22691372533E+03  0.26089233661E+03  0.12509062270E+03 0.  0.
          5    1    3    3  502    0 -0.37001509588E+02  0.51599554084E+02  0.12595713564E+03  0.14111802901E+03  0.41800000000E+01 0.  1.
         -5    1    3    3    0  502  0.57406119372E+02 -0.28995117132E+02  0.10095658969E+03  0.11977430760E+03  0.41800000000E+01 0.  1.
        -11    1    1    2    0    0  0.19628069747E+02 -0.29757192056E+02  0.84436951413E+01  0.36633967689E+02  0.00000000000E+00 0.  1.
         11    1    1    2    0    0 -0.40032679530E+02  0.71527551034E+01  0.92285435436E+02  0.10084829661E+03  0.00000000000E+00 0. -1.
</event>
<event>
 7    1  0.3031105E-009  0.2349676E+03  0.7561462E-02  0.1123191E+00
          1   -1    0    0  501    0  0.00000000000E+00  0.00000000000E+00  0.15205842962E+03  0.15205842962E+03  0.00000000000E+00 0.  1.
         -1   -1    0    0    0  501 -0.00000000000E+00 -0.00000000000E+00 -0.42033800086E+03  0.42033800086E+03  0.00000000000E+00 0. -1.
         25    2    1    2    0    0 -0.16803009285E+03  0.14632836259E+03 -0.82684567586E+02  0.26857035263E+03  0.12508874767E+03 0.  0.
          5    1    3    3  502    0 -0.18269631714E+03  0.12882859284E+03 -0.94242886764E+02  0.24263953663E+03  0.41800000000E+01 0.  1.
         -5    1    3    3    0  502  0.14666224291E+02  0.17499769748E+02  0.11558319178E+02  0.25930815999E+02  0.41800000000E+01 0.  1.
        -11    1    1    2    0    0  0.66089506777E+02 -0.65355431969E+02 -0.23402551225E+02  0.95847977536E+02  0.00000000000E+00 0.  1.
         11    1    1    2    0    0  0.10194058608E+03 -0.80972930618E+02 -0.16219245244E+03  0.20797810031E+03  0.00000000000E+00 0. -1.
</event>
<event>
 7    1  0.2688177E-009  0.1638735E+03  0.7561462E-02  0.1184392E+00
         -1   -1    0    0    0  501 -0.00000000000E+00  0.00000000000E+00  0.93277527788E+02  0.93277527788E+02  0.00000000000E+00 0.  1.
          1   -1    0    0  501    0  0.00000000000E+00 -0.00000000000E+00 -0.38605018926E+03  0.38605018926E+03  0.00000000000E+00 0. -1.
         25    2    1    2    0    0 -0.14698364408E+03 -0.82622994477E+01 -0.21371748865E+03  0.28808951514E+03  0.12509175254E+03 0.  0.
          5    1    3    3  502    0 -0.47973973034E+02 -0.23962805151E+02 -0.20285455344E+01  0.53826624605E+02  0.41800000000E+01 0.  1.
         -5    1    3    3    0  502 -0.99009671049E+02  0.15700505704E+02 -0.21168894312E+03  0.23426289053E+03  0.41800000000E+01 0.  1.
        -11    1    1    2    0    0  0.11233920665E+03  0.46894082364E+02 -0.62023607393E+02  0.13662386390E+03  0.00000000000E+00 0.  1.
         11    1    1    2    0    0  0.34644437430E+02 -0.38631782916E+02 -0.17031565427E+02  0.54614338017E+02  0.00000000000E+00 0. -1.
</event>
<event>
 7    1  0.2688177E-009  0.1455688E+03  0.7561462E-02  0.1206026E+00
          2   -1    0    0  501    0  0.00000000000E+00  0.00000000000E+00  0.85408920829E+02  0.85408920829E+02  0.00000000000E+00 0. -1.
         -2   -1    0    0    0  501 -0.00000000000E+00 -0.00000000000E+00 -0.39222894990E+03  0.39222894990E+03  0.00000000000E+00 0.  1.
         25    2    1    2    0    0 -0.10202315506E+03  0.67416852909E+02 -0.60467366194E+02  0.18508694729E+03  0.12508844655E+03 0.  0.
          5    1    3    3  502    0  0.16405715672E+02 -0.38604618851E+00 -0.44517620260E+02  0.47629690866E+02  0.41800000000E+01 0.  1.
         -5    1    3    3    0  502 -0.11842887073E+03  0.67802899098E+02 -0.15949745934E+02  0.13745725643E+03  0.41800000000E+01 0.  1.
        -11    1    1    2    0    0  0.20643221119E+02 -0.50498036298E+02 -0.17399984358E+03  0.18235169266E+03  0.00000000000E+00 0.  1.
         11    1    1    2    0    0  0.81379933944E+02 -0.16918816612E+02 -0.72352819300E+02  0.11019923078E+03  0.00000000000E+00 0. -1.
</event>
<event>
 7    1  0.2688177E-009  0.1474124E+03  0.7561462E-02  0.1203689E+00
          2   -1    0    0  501    0  0.00000000000E+00  0.00000000000E+00  0.58924580249E+03  0.58924580249E+03  0.00000000000E+00 0. -1.
         -2   -1    0    0    0  501 -0.00000000000E+00 -0.00000000000E+00 -0.42258532457E+02  0.42258532457E+02  0.00000000000E+00 0.  1.
         25    2    1    2    0    0 -0.96026400922E+02  0.53686732164E+02  0.22819213769E+03  0.28252355146E+03  0.12507825766E+03 0.  0.
          5    1    3    3  502    0  0.16441044605E+02  0.47912666530E+02  0.47488089007E+02  0.69559489354E+02  0.41800000000E+01 0.  1.
         -5    1    3    3    0  502 -0.11246744553E+03  0.57740656346E+01  0.18070404868E+03  0.21296406210E+03  0.41800000000E+01 0.  1.
        -11    1    1    2    0    0  0.57090122505E+01 -0.39463206149E+02  0.44025440463E+02  0.59398458468E+02  0.00000000000E+00 0.  1.
         11    1    1    2    0    0  0.90317388671E+02 -0.14223526015E+02  0.27476969188E+03  0.28958232502E+03  0.00000000000E+00 0. -1.
</event>
<event>
 7    1  0.2688177E-009  0.1295129E+03  0.7561462E-02  0.1228180E+00
          1   -1    0    0  501    0  0.00000000000E+00  0.00000000000E+00  0.26507536150E+02  0.26507536150E+02  0.00000000000E+00 0. -1.
         -1   -1    0    0    0  501 -0.00000000000E+00 -0.00000000000E+00 -0.81439670400E+03  0.81439670400E+03  0.00000000000E+00 0.  1.
         25    2    1    2    0    0 -0.63381343737E+02  0.75870322363E+02 -0.37403948863E+03  0.40660368506E+03  0.12509003599E+03 0.  0.
          5    1    3    3  502    0 -0.95073011958E+02  0.33991087851E+02 -0.29306797779E+03  0.31000094139E+03  0.41800000000E+01 0. -1.
         -5    1    3    3    0  502  0.31691668221E+02  0.41879234512E+02 -0.80971510837E+02  0.96602743673E+02  0.41800000000E+01 0. -1.
        -11    1    1    2    0    0  0.55533803582E+02 -0.39672372651E+02 -0.37286273858E+03  0.37905741296E+03  0.00000000000E+00 0.  1.
         11    1    1    2    0    0  0.78475401547E+01 -0.36197949712E+02 -0.40986940640E+02  0.55243142134E+02  0.00000000000E+00 0. -1.
</event>
<event>
 7    1  0.2688177E-009  0.6714404E+02  0.7561462E-02  0.1370083E+00
         -1   -1    0    0    0  501 -0.00000000000E+00  0.00000000000E+00  0.28088140449E+02  0.28088140449E+02  0.00000000000E+00 0.  1.
          1   -1    0    0  501    0  0.00000000000E+00 -0.00000000000E+00 -0.49230837602E+03  0.49230837602E+03  0.00000000000E+00 0. -1.
         25    2    1    2    0    0 -0.32580639873E+02 -0.27392710153E+02 -0.38989116687E+03  0.41167308621E+03  0.12509096387E+03 0.  0.
          5    1    3    3  502    0 -0.15269961506E+02 -0.40889407071E+02 -0.35064726833E+02  0.56143769047E+02  0.41800000000E+01 0.  1.
         -5    1    3    3    0  502 -0.17310678367E+02  0.13496696918E+02 -0.35482644004E+03  0.35552931716E+03  0.41800000000E+01 0.  1.
        -11    1    1    2    0    0 -0.11308357878E+02  0.20853656221E+02 -0.55806478731E+02  0.60639236506E+02  0.00000000000E+00 0.  1.
         11    1    1    2    0    0  0.43888997750E+02  0.65390539319E+01 -0.18522589974E+02  0.48084193756E+02  0.00000000000E+00 0. -1.
</event>
<event>
 7    1  0.2688177E-009  0.2345917E+03  0.7561462E-02  0.1123449E+00
         -1   -1    0    0    0  501 -0.00000000000E+00  0.00000000000E+00  0.30210171533E+02  0.30210171533E+02  0.00000000000E+00 0.  1.
          1   -1    0    0  501    0  0.00000000000E+00 -0.00000000000E+00 -0.21679634172E+04  0.21679634172E+04  0.00000000000E+00 0. -1.
         25    2    1    2    0    0 -0.31764705682E+02 -0.21361615989E+03 -0.14552536069E+04  0.14765003812E+04  0.12509778199E+03 0.  0.
          5    1    3    3  502    0  0.96863702705E+01 -0.18611386342E+03 -0.90574844428E+03  0.92473234649E+03  0.41800000000E+01 0. -1.
         -5    1    3    3    0  502 -0.41451075952E+02 -0.27502296474E+02 -0.54950516257E+03  0.55176803469E+03  0.41800000000E+01 0. -1.
        -11    1    1    2    0    0 -0.30042863067E+02  0.85020855622E+02 -0.22333393195E+03  0.24085091794E+03  0.00000000000E+00 0.  1.
         11    1    1    2    0    0  0.61807568748E+02  0.12859530427E+03 -0.45916570688E+03  0.48082228963E+03  0.00000000000E+00 0. -1.
</event>
<event>
 7    1  0.2688177E-009  0.9516436E+02  0.7561462E-02  0.1290806E+00
         -2   -1    0    0    0  501 -0.00000000000E+00  0.00000000000E+00  0.50016235833E+02  0.50016235833E+02  0.00000000000E+00 0.  1.
          2   -1    0    0  501    0  0.00000000000E+00 -0.00000000000E+00 -0.55624979257E+03  0.55624979257E+03  0.00000000000E+00 0. -1.
         25    2    1    2    0    0  0.37101325045E+02 -0.28299757276E+02 -0.48204950453E+03  0.50019675860E+03  0.12509071874E+03 0.  0.
          5    1    3    3  502    0  0.14462313192E+02 -0.57091649736E+02 -0.44135834522E+03  0.44529010349E+03  0.41800000000E+01 0. -1.
         -5    1    3    3    0  502  0.22639011853E+02  0.28791892460E+02 -0.40691159306E+02  0.54906655105E+02  0.41800000000E+01 0. -1.
        -11    1    1    2    0    0  0.22967451430E+02 -0.78999508362E+01 -0.26436431252E+02  0.35899832113E+02  0.00000000000E+00 0.  1.
         11    1    1    2    0    0 -0.60068776475E+02  0.36199708112E+02  0.22523790422E+01  0.70169437692E+02  0.00000000000E+00 0. -1.
</event>
<event>
 7    1  0.2688177E-009  0.9159996E+02  0.7561462E-02  0.1299023E+00
          4   -1    0    0  501    0  0.00000000000E+00  0.00000000000E+00  0.20982897738E+03  0.20982897738E+03  0.00000000000E+00 0. -1.
         -4   -1    0    0    0  501 -0.00000000000E+00 -0.00000000000E+00 -0.69014209925E+02  0.69014209925E+02  0.00000000000E+00 0.  1.
         25    2    1    2    0    0  0.48804267868E+02 -0.16581143199E+02  0.71567762414E+02  0.15305802407E+03  0.12509205908E+03 0.  0.
          5    1    3    3  502    0  0.61834504468E+02 -0.81196117079E+01 -0.15596176956E+02  0.64421635906E+02  0.41800000000E+01 0.  1.
         -5    1    3    3    0  502 -0.13030236600E+02 -0.84615314907E+01  0.87163939369E+02  0.88636388168E+02  0.41800000000E+01 0.  1.
        -11    1    1    2    0    0 -0.70440251570E+02  0.32665733722E+02  0.56091155595E+02  0.95786726309E+02  0.00000000000E+00 0.  1.
         11    1    1    2    0    0  0.21635983703E+02 -0.16084590524E+02  0.13155849443E+02  0.29998436920E+02  0.00000000000E+00 0. -1.
</event>
<event>
 7    1  0.2688177E-009  0.1149291E+03  0.7561462E-02  0.1251705E+00
         -1   -1    0    0    0  501 -0.00000000000E+00  0.00000000000E+00  0.68091277939E+02  0.68091277939E+02  0.00000000000E+00 0.  1.
          1   -1    0    0  501    0  0.00000000000E+00 -0.00000000000E+00 -0.25646654400E+03  0.25646654400E+03  0.00000000000E+00 0. -1.
         25    2    1    2    0    0 -0.32401196356E+02 -0.68566974053E+02 -0.11140801982E+03  0.18387957085E+03  0.12509469309E+03 0.  0.
          5    1    3    3  502    0 -0.15428817589E+02 -0.10031224048E+03 -0.10672747649E+03  0.14733913479E+03  0.41800000000E+01 0. -1.
         -5    1    3    3    0  502 -0.16972378767E+02  0.31745266429E+02 -0.46805433281E+01  0.36540436060E+02  0.41800000000E+01 0. -1.
        -11    1    1    2    0    0 -0.13841946487E+02  0.24630495940E+02  0.12421849402E+02  0.30863621877E+02  0.00000000000E+00 0.  1.
         11    1    1    2    0    0  0.46243142843E+02  0.43936478113E+02 -0.89389095650E+02  0.10981462922E+03  0.00000000000E+00 0. -1.
</event>
<event>
 7    1  0.2688177E-009  0.1143385E+03  0.7561462E-02  0.1252740E+00
         -1   -1    0    0    0  501 -0.00000000000E+00  0.00000000000E+00  0.79867111465E+02  0.79867111465E+02  0.00000000000E+00 0.  1.
          1   -1    0    0  501    0  0.00000000000E+00 -0.00000000000E+00 -0.27033023763E+03  0.27033023763E+03  0.00000000000E+00 0. -1.
         25    2    1    2    0    0  0.24366248359E+02 -0.74222462707E+02 -0.32058038584E+02  0.15092564768E+03  0.12509254678E+03 0.  0.
          5    1    3    3  502    0  0.56757660309E+02 -0.84674568686E+02  0.27545209595E+01  0.10206015075E+03  0.41800000000E+01 0.  1.
         -5    1    3    3    0  502 -0.32391411950E+02  0.10452105979E+02 -0.34812559544E+02  0.48865496923E+02  0.41800000000E+01 0.  1.
        -11    1    1    2    0    0  0.11006970905E+02  0.45453263904E+02 -0.14407846514E+03  0.15147856853E+03  0.00000000000E+00 0. -1.
         11    1    1    2    0    0 -0.35373219265E+02  0.28769198803E+02 -0.14326622447E+02  0.47793132892E+02  0.00000000000E+00 0.  1.
</event>
<event>
 7    1  0.2688177E-009  0.8272748E+02  0.7561462E-02  0.1321485E+00
          1   -1    0    0  501    0  0.00000000000E+00  0.00000000000E+00  0.11709682736E+03  0.11709682736E+03  0.00000000000E+00 0. -1.
         -1   -1    0    0    0  501 -0.00000000000E+00 -0.00000000000E+00 -0.13939731559E+03  0.13939731559E+03  0.00000000000E+00 0.  1.
         25    2    1    2    0    0 -0.44014042752E+02  0.45007520373E+02 -0.35444677703E+02  0.14445579787E+03  0.12509292351E+03 0.  0.
          5    1    3    3  502    0 -0.30546410747E+02 -0.11329797616E+01 -0.75620122878E+02  0.81671550963E+02  0.41800000000E+01 0.  1.
         -5    1    3    3    0  502 -0.13467632005E+02  0.46140500135E+02  0.40175445175E+02  0.62784246906E+02  0.41800000000E+01 0.  1.
        -11    1    1    2    0    0 -0.97337415214E+01 -0.28521172988E+02  0.39716197837E+02  0.49855585477E+02  0.00000000000E+00 0. -1.
         11    1    1    2    0    0  0.53747784273E+02 -0.16486347385E+02 -0.26572008359E+02  0.62182759609E+02  0.00000000000E+00 0.  1.
</event>
<event>
 7    1  0.2688177E-009  0.1080371E+03  0.7561462E-02  0.1264249E+00
          1   -1    0    0  501    0  0.00000000000E+00  0.00000000000E+00  0.66435020879E+03  0.66435020879E+03  0.00000000000E+00 0. -1.
         -1   -1    0    0    0  501 -0.00000000000E+00 -0.00000000000E+00 -0.18227556809E+02  0.18227556809E+02  0.00000000000E+00 0.  1.
         25    2    1    2    0    0  0.12425920454E+02 -0.56960731413E+00  0.42739197436E+03  0.44549575851E+03  0.12509133922E+03 0.  0.
          5    1    3    3  502    0  0.48181030778E+02  0.45374506670E+02  0.25543285243E+03  0.26390087549E+03  0.41800000000E+01 0.  1.
         -5    1    3    3    0  502 -0.35755110324E+02 -0.45944113984E+02  0.17195912193E+03  0.18159488302E+03  0.41800000000E+01 0.  1.
        -11    1    1    2    0    0 -0.51745327525E+02  0.41368552735E+01  0.11969654329E+03  0.13046821440E+03  0.00000000000E+00 0.  1.
         11    1    1    2    0    0  0.39319407071E+02 -0.35672479593E+01  0.99034134327E+02  0.10661379269E+03  0.00000000000E+00 0. -1.
</event>
<event>
 7    1  0.2688177E-009  0.3965480E+03  0.7561462E-02  0.1044982E+00
         -1   -1    0    0    0  501 -0.00000000000E+00  0.00000000000E+00  0.11797531548E+04  0.11797531548E+04  0.00000000000E+00 0.  1.
          1   -1    0    0  501    0  0.00000000000E+00 -0.00000000000E+00 -0.24990673711E+03  0.24990673711E+03  0.00000000000E+00 0. -1.
         25    2    1    2    0    0 -0.20611556904E+03  0.32183579876E+03  0.95479938952E+03  0.10360266892E+04  0.12509003655E+03 0.  0.
          5    1    3    3  502    0 -0.19942666943E+03  0.21455102127E+03  0.73762884448E+03  0.79367305726E+03  0.41800000000E+01 0. -1.
         -5    1    3    3    0  502 -0.66888996105E+01  0.10728477750E+03  0.21717054504E+03  0.24235363189E+03  0.41800000000E+01 0. -1.
        -11    1    1    2    0    0 -0.63503580640E+00 -0.55028113679E+02  0.15719487893E+01  0.55054224076E+02  0.00000000000E+00 0.  1.
         11    1    1    2    0    0  0.20675060484E+03 -0.26680768509E+03 -0.26524920583E+02  0.33857897873E+03  0.00000000000E+00 0. -1.
</event>
<event>
 7    1  0.2688177E-009  0.1497996E+03  0.7561462E-02  0.1200719E+00
         -2   -1    0    0    0  501 -0.00000000000E+00  0.00000000000E+00  0.10896481414E+03  0.10896481414E+03  0.00000000000E+00 0.  1.
          2   -1    0    0  501    0  0.00000000000E+00 -0.00000000000E+00 -0.32145990568E+03  0.32145990568E+03  0.00000000000E+00 0. -1.
         25    2    1    2    0    0 -0.13397078615E+02  0.14838084060E+03 -0.15039837199E+03  0.24588965008E+03  0.12508274921E+03 0.  0.
          5    1    3    3  502    0 -0.15644647947E+02  0.11273227619E+03 -0.26574107570E+02  0.11694860708E+03  0.41800000000E+01 0.  1.
         -5    1    3    3    0  502  0.22475693315E+01  0.35648564409E+02 -0.12382426442E+03  0.12894104300E+03  0.41800000000E+01 0.  1.
        -11    1    1    2    0    0  0.15252923580E+02 -0.86260405099E+02  0.11340947864E+02  0.88329645443E+02  0.00000000000E+00 0.  1.
         11    1    1    2    0    0 -0.18558449649E+01 -0.62120435501E+02 -0.73437667417E+02  0.96205424291E+02  0.00000000000E+00 0. -1.
</event>
<event>
 7    1  0.2688177E-009  0.7729170E+02  0.7561462E-02  0.1336918E+00
          1   -1    0    0  501    0  0.00000000000E+00  0.00000000000E+00  0.30382536328E+02  0.30382536328E+02  0.00000000000E+00 0. -1.
         -1   -1    0    0    0  501 -0.00000000000E+00 -0.00000000000E+00 -0.45486032818E+03  0.45486032818E+03  0.00000000000E+00 0.  1.
         25    2    1    2    0    0  0.16828233612E+02 -0.29051450653E+02 -0.29001441900E+03  0.31762102649E+03  0.12509027544E+03 0.  0.
          5    1    3    3  502    0  0.51996602061E+01  0.32620144414E+02 -0.22392063126E+03  0.22638249003E+03  0.41800000000E+01 0. -1.
         -5    1    3    3    0  502  0.11628573405E+02 -0.61671595067E+02 -0.66093787740E+02  0.91238536460E+02  0.41800000000E+01 0. -1.
        -11    1    1    2    0    0 -0.12270717390E+02  0.42476332744E+02 -0.14393437914E+03  0.15057195903E+03  0.00000000000E+00 0.  1.
         11    1    1    2    0    0 -0.45575162212E+01 -0.13424882091E+02  0.94710062892E+01  0.17049878984E+02  0.00000000000E+00 0. -1.
</event>
<event>
 7    1  0.2688177E-009  0.1095556E+03  0.7561462E-02  0.1261395E+00
         -2   -1    0    0    0  501 -0.00000000000E+00  0.00000000000E+00  0.44008785998E+03  0.44008785998E+03  0.00000000000E+00 0.  1.
          2   -1    0    0  501    0  0.00000000000E+00 -0.00000000000E+00 -0.52506015027E+02  0.52506015027E+02  0.00000000000E+00 0. -1.
         25    2    1    2    0    0  0.94346498027E+01  0.10659770211E+03  0.22281883558E+03  0.27703370861E+03  0.12508940605E+03 0.  0.
          5    1    3    3  502    0  0.18882723316E+02  0.50327389684E+02  0.77306816975E+01  0.54466863612E+02  0.41800000000E+01 0. -1.
         -5    1    3    3    0  502 -0.94480735138E+01  0.56270312430E+02  0.21508815388E+03  0.22256684500E+03  0.41800000000E+01 0. -1.
        -11    1    1    2    0    0 -0.93453435198E+01 -0.30787302788E+02  0.12671810866E+03  0.13073894799E+03  0.00000000000E+00 0.  1.
         11    1    1    2    0    0 -0.89306282830E-01 -0.75810399326E+02  0.38044900717E+02  0.84821218408E+02  0.00000000000E+00 0. -1.
</event>
<event>
 7    1  0.2688177E-009  0.8504036E+02  0.7561462E-02  0.1315327E+00
         -3   -1    0    0    0  501 -0.00000000000E+00  0.00000000000E+00  0.17296003533E+03  0.17296003533E+03  0.00000000000E+00 0.  1.
          3   -1    0    0  501    0  0.00000000000E+00 -0.00000000000E+00 -0.68846320458E+02  0.68846320458E+02  0.00000000000E+00 0. -1.
         25    2    1    2    0    0  0.22625474092E+02 -0.61844129850E+01  0.51418365933E+02  0.13725145284E+03  0.12507579266E+03 0.  0.
          5    1    3    3  502    0  0.12669699325E+00 -0.46674137804E+02 -0.20866472002E+02  0.51296912633E+02  0.41800000000E+01 0.  1.
         -5    1    3    3    0  502  0.22498777099E+02  0.40489724819E+02  0.72284837935E+02  0.85954540207E+02  0.41800000000E+01 0.  1.
        -11    1    1    2    0    0 -0.11041183671E+02  0.39722403610E+02  0.55299830574E+02  0.68977158154E+02  0.00000000000E+00 0.  1.
         11    1    1    2    0    0 -0.11584290422E+02 -0.33537990625E+02 -0.26044816387E+01  0.35577744790E+02  0.00000000000E+00 0. -1.
</event>
<event>
 7    1  0.2688177E-009  0.1563125E+03  0.7561462E-02  0.1192924E+00
         -1   -1    0    0    0  501 -0.00000000000E+00  0.00000000000E+00  0.34601901722E+03  0.34601901722E+03  0.00000000000E+00 0.  1.
          1   -1    0    0  501    0  0.00000000000E+00 -0.00000000000E+00 -0.78258831608E+02  0.78258831608E+02  0.00000000000E+00 0. -1.
         25    2    1    2    0    0 -0.95688322039E+02 -0.77862245047E+02  0.15975720555E+03  0.23745892012E+03  0.12508233224E+03 0.  0.
          5    1    3    3  502    0 -0.96437004988E+02 -0.10493010149E+03  0.15321245718E+03  0.20928915778E+03  0.41800000000E+01 0.  1.
         -5    1    3    3    0  502  0.74868294917E+00  0.27067856445E+02  0.65447483703E+01  0.28169762333E+02  0.41800000000E+01 0.  1.
        -11    1    1    2    0    0  0.55713418418E+01  0.47098486517E+02  0.69424188537E+02  0.84077495421E+02  0.00000000000E+00 0.  1.
         11    1    1    2    0    0  0.90116980197E+02  0.30763758530E+02  0.38578791520E+02  0.10274143329E+03  0.00000000000E+00 0. -1.
</event>
<event>
 7    1  0.2688177E-009  0.7796440E+02  0.7561462E-02  0.1334929E+00
          1   -1    0    0  501    0  0.00000000000E+00  0.00000000000E+00  0.13336450513E+03  0.13336450513E+03  0.00000000000E+00 0. -1.
         -1   -1    0    0    0  501 -0.00000000000E+00 -0.00000000000E+00 -0.95610596409E+02  0.95610596409E+02  0.00000000000E+00 0.  1.
         25    2    1    2    0    0  0.16587800800E+02  0.12191365407E+02 -0.38198596472E+01  0.12683416906E+03  0.12509408695E+03 0.  0.
          5    1    3    3  502    0  0.31351387305E+02 -0.31404871031E+02  0.42366667502E+02  0.61494571513E+02  0.41800000000E+01 0. -1.
         -5    1    3    3    0  502 -0.14763586505E+02  0.43596236437E+02 -0.46186527149E+02  0.65339597551E+02  0.41800000000E+01 0. -1.
        -11    1    1    2    0    0 -0.34889789422E+02  0.10076166782E+02  0.58396186654E+02  0.68767297159E+02  0.00000000000E+00 0. -1.
         11    1    1    2    0    0  0.18301988622E+02 -0.22267532189E+02 -0.16822418284E+02  0.33373635316E+02  0.00000000000E+00 0.  1.
</event>
<event>
 7    1  0.2688177E-009  0.1132954E+03  0.7561462E-02  0.1254586E+00
         -1   -1    0    0    0  501 -0.00000000000E+00  0.00000000000E+00  0.24825234620E+03  0.24825234620E+03  0.00000000000E+00 0.  1.
          1   -1    0    0  501    0  0.00000000000E+00 -0.00000000000E+00 -0.92285793515E+02  0.92285793515E+02  0.00000000000E+00 0. -1.
         25    2    1    2    0    0  0.38315406789E+02 -0.67323327135E+02 -0.18312168460E+01  0.14715303573E+03  0.12510060669E+03 0.  0.
          5    1    3    3  502    0  0.13647492680E+02 -0.86513144679E+02 -0.41062124758E+02  0.96821220548E+02  0.41800000000E+01 0.  1.
         -5    1    3    3    0  502  0.24667914110E+02  0.19189817544E+02  0.39230907912E+02  0.50331815182E+02  0.41800000000E+01 0.  1.
        -11    1    1    2    0    0  0.22610353505E+02  0.20754925403E+02  0.23195372022E+02  0.38471031925E+02  0.00000000000E+00 0.  1.
         11    1    1    2    0    0 -0.60925760294E+02  0.46568401732E+02  0.13460239751E+03  0.15491407206E+03  0.00000000000E+00 0. -1.
</event>
<event>
 7    1  0.2688177E-009  0.1082620E+03  0.7561462E-02  0.1263823E+00
          4   -1    0    0  501    0  0.00000000000E+00  0.00000000000E+00  0.47098625495E+03  0.47098625495E+03  0.00000000000E+00 0.  1.
         -4   -1    0    0    0  501 -0.00000000000E+00 -0.00000000000E+00 -0.34582740224E+02  0.34582740224E+02  0.00000000000E+00 0. -1.
         25    2    1    2    0    0 -0.45521289348E+02 -0.49027163651E+02  0.23309106091E+03  0.27286302135E+03  0.12508770996E+03 0.  0.
          5    1    3    3  502    0  0.31626659700E+02  0.33057805043E+01  0.12961523290E+03  0.13352436028E+03  0.41800000000E+01 0.  1.
         -5    1    3    3    0  502 -0.77147949048E+02 -0.52332944155E+02  0.10347582801E+03  0.13933866107E+03  0.41800000000E+01 0.  1.
        -11    1    1    2    0    0 -0.78301538106E+01  0.35145068611E+02  0.15586882160E+03  0.15997367504E+03  0.00000000000E+00 0.  1.
         11    1    1    2    0    0  0.53351443159E+02  0.13882095040E+02  0.47443632213E+02  0.72732298791E+02  0.00000000000E+00 0. -1.
</event>
<event>
 7    1  0.2688177E-009  0.9223921E+02  0.7561462E-02  0.1297518E+00
          3   -1    0    0  501    0  0.00000000000E+00  0.00000000000E+00  0.12138650390E+03  0.12138650390E+03  0.00000000000E+00 0. -1.
         -3   -1    0    0    0  501 -0.00000000000E+00 -0.00000000000E+00 -0.15804857348E+03  0.15804857348E+03  0.00000000000E+00 0.  1.
         25    2    1    2    0    0 -0.25266503638E+01 -0.27129730445E+02 -0.10309923071E+03  0.16437377515E+03  0.12508749077E+03 0.  0.
          5    1    3    3  502    0 -0.15334761816E+02 -0.72923255713E+02 -0.38294019948E+02  0.83885997088E+02  0.41800000000E+01 0.  1.
         -5    1    3    3    0  502  0.12808111452E+02  0.45793525268E+02 -0.64805210766E+02  0.80487778065E+02  0.41800000000E+01 0.  1.
        -11    1    1    2    0    0  0.26810701107E+02  0.15763967736E+01 -0.11734589146E+02  0.29308689890E+02  0.00000000000E+00 0.  1.
         11    1    1    2    0    0 -0.24284050743E+02  0.25553333671E+02  0.78171750278E+02  0.85752612343E+02  0.00000000000E+00 0. -1.
</event>
<event>
 7    1  0.2688177E-009  0.1240161E+03  0.7561462E-02  0.1236615E+00
          1   -1    0    0  501    0  0.00000000000E+00  0.00000000000E+00  0.57117292654E+03  0.57117292654E+03  0.00000000000E+00 0. -1.
         -1   -1    0    0    0  501 -0.00000000000E+00 -0.00000000000E+00 -0.38314874461E+02  0.38314874461E+02  0.00000000000E+00 0.  1.
         25    2    1    2    0    0 -0.62097397710E+02  0.19674503916E+02  0.44621941964E+03  0.46797681565E+03  0.12508939449E+03 0.  0.
          5    1    3    3  502    0 -0.88273743234E+02  0.48906815439E+02  0.30117323990E+03  0.31765850087E+03  0.41800000000E+01 0. -1.
         -5    1    3    3    0  502  0.26176345524E+02 -0.29232311523E+02  0.14504617973E+03  0.15031831478E+03  0.41800000000E+01 0. -1.
        -11    1    1    2    0    0  0.77108957058E+02  0.65123739139E+01  0.43231678481E+02  0.88640737231E+02  0.00000000000E+00 0.  1.
         11    1    1    2    0    0 -0.15011559348E+02 -0.26186877830E+02  0.43406953959E+02  0.52870248123E+02  0.00000000000E+00 0. -1.
</event>
<event>
 7    1  0.2688177E-009  0.8463520E+02  0.7561462E-02  0.1316389E+00
         -2   -1    0    0    0  501 -0.00000000000E+00  0.00000000000E+00  0.16104050300E+02  0.16104050300E+02  0.00000000000E+00 0. -1.
          2   -1    0    0  501    0  0.00000000000E+00 -0.00000000000E+00 -0.97039764476E+03  0.97039764476E+03  0.00000000000E+00 0.  1.
         25    2    1    2    0    0 -0.24553497185E+02  0.55118049203E+02 -0.45448616863E+03  0.47523259218E+03  0.12508983018E+03 0.  0.
          5    1    3    3  502    0 -0.25622563163E+02  0.37925088656E+02 -0.41675437711E+02  0.62041458727E+02  0.41800000000E+01 0. -1.
         -5    1    3    3    0  502  0.10690659778E+01  0.17192960547E+02 -0.41281073092E+03  0.41319113345E+03  0.41800000000E+01 0. -1.
        -11    1    1    2    0    0 -0.23344811812E+02 -0.52683937978E+02 -0.32154860188E+03  0.32667121227E+03  0.00000000000E+00 0.  1.
         11    1    1    2    0    0  0.47898308997E+02 -0.24341112245E+01 -0.17825882394E+03  0.18459789061E+03  0.00000000000E+00 0. -1.
</event>
<event>
 7    1  0.2688177E-009  0.9813594E+02  0.7561462E-02  0.1284265E+00
          2   -1    0    0  501    0  0.00000000000E+00  0.00000000000E+00  0.74785601868E+03  0.74785601868E+03  0.00000000000E+00 0. -1.
         -2   -1    0    0    0  501 -0.00000000000E+00 -0.00000000000E+00 -0.28676884286E+02  0.28676884286E+02  0.00000000000E+00 0.  1.
         25    2    1    2    0    0 -0.32113487755E+02  0.26164881543E+02  0.61553598553E+03  0.62948197040E+03  0.12508846650E+03 0.  0.
          5    1    3    3  502    0  0.20880866411E+02  0.32480550315E+02  0.60652675157E+02  0.72022330805E+02  0.41800000000E+01 0. -1.
         -5    1    3    3    0  502 -0.52994354165E+02 -0.63156687725E+01  0.55488331037E+03  0.55745963959E+03  0.41800000000E+01 0. -1.
        -11    1    1    2    0    0  0.38753355905E+02  0.28958722148E+02  0.41733617184E+02  0.63891509495E+02  0.00000000000E+00 0.  1.
         11    1    1    2    0    0 -0.66398681502E+01 -0.55123603691E+02  0.61909531682E+02  0.83159423075E+02  0.00000000000E+00 0. -1.
</event>
<event>
 7    1  0.2688177E-009  0.9792029E+02  0.7561462E-02  0.1284731E+00
         -1   -1    0    0    0  501 -0.00000000000E+00  0.00000000000E+00  0.40972724101E+03  0.40972724101E+03  0.00000000000E+00 0.  1.
          1   -1    0    0  501    0  0.00000000000E+00 -0.00000000000E+00 -0.34999841296E+02  0.34999841296E+02  0.00000000000E+00 0. -1.
         25    2    1    2    0    0 -0.34577520609E+02 -0.17740310817E+02  0.16263369162E+03  0.20882694564E+03  0.12509457228E+03 0.  0.
          5    1    3    3  502    0 -0.39345446661E+02 -0.53168705204E+02  0.32514210095E+02  0.73821552707E+02  0.41800000000E+01 0. -1.
         -5    1    3    3    0  502  0.47679260515E+01  0.35428394386E+02  0.13011948153E+03  0.13500539293E+03  0.41800000000E+01 0. -1.
        -11    1    1    2    0    0 -0.10715826977E+02  0.41196267908E+02  0.14793088457E+03  0.15393345331E+03  0.00000000000E+00 0.  1.
         11    1    1    2    0    0  0.45293347587E+02 -0.23455957091E+02  0.64162823520E+02  0.81966683358E+02  0.00000000000E+00 0. -1.
</event>
<event>
 7    1  0.2688177E-009  0.2414010E+03  0.7561462E-02  0.1118863E+00
         -1   -1    0    0    0  501 -0.00000000000E+00  0.00000000000E+00  0.54477844558E+02  0.54477844558E+02  0.00000000000E+00 0.  1.
          1   -1    0    0  501    0  0.00000000000E+00 -0.00000000000E+00 -0.13278210192E+04  0.13278210192E+04  0.00000000000E+00 0. -1.
         25    2    1    2    0    0 -0.12033294101E+03  0.20776956815E+03 -0.79448769053E+03  0.83935072890E+03  0.12510293980E+03 0.  0.
          5    1    3    3  502    0 -0.12571755841E+02  0.38852597916E+02 -0.35245232327E+02  0.54104271657E+02  0.41800000000E+01 0. -1.
         -5    1    3    3    0  502 -0.10776118517E+03  0.16891697024E+03 -0.75924245821E+03  0.78524645724E+03  0.41800000000E+01 0. -1.
        -11    1    1    2    0    0  0.91117074445E+02 -0.13441650862E+03 -0.22769886068E+03  0.27967282707E+03  0.00000000000E+00 0. -1.
         11    1    1    2    0    0  0.29215866568E+02 -0.73353059533E+02 -0.25115662344E+03  0.26327530781E+03  0.00000000000E+00 0.  1.
</event>
<event>
 7    1  0.2688177E-009  0.1805026E+03  0.7561462E-02  0.1167318E+00
          1   -1    0    0  501    0  0.00000000000E+00  0.00000000000E+00  0.13340637602E+04  0.13340637602E+04  0.00000000000E+00 0. -1.
         -1   -1    0    0    0  501 -0.00000000000E+00 -0.00000000000E+00 -0.51152072944E+02  0.51152072944E+02  0.00000000000E+00 0.  1.
         25    2    1    2    0    0 -0.12681869375E+03  0.71287425604E+02  0.11438203591E+04  0.11598007865E+04  0.12509185543E+03 0.  0.
          5    1    3    3  502    0 -0.27729154470E+02  0.86698202878E+02  0.50804240846E+03  0.51614924739E+03  0.41800000000E+01 0.  1.
         -5    1    3    3    0  502 -0.99089539279E+02 -0.15410777274E+02  0.63577795066E+03  0.64365153911E+03  0.41800000000E+01 0.  1.
        -11    1    1    2    0    0  0.63488858820E+02  0.12278014558E+02  0.22156134620E+02  0.68355534794E+02  0.00000000000E+00 0.  1.
         11    1    1    2    0    0  0.63329834929E+02 -0.83565440162E+02  0.11693519354E+03  0.15705951187E+03  0.00000000000E+00 0. -1.
</event>
<event>
 7    1  0.2688177E-009  0.1226347E+03  0.7561462E-02  0.1238813E+00
         -1   -1    0    0    0  501 -0.00000000000E+00  0.00000000000E+00  0.16656208154E+03  0.16656208154E+03  0.00000000000E+00 0.  1.
          1   -1    0    0  501    0  0.00000000000E+00 -0.00000000000E+00 -0.92890650034E+02  0.92890650034E+02  0.00000000000E+00 0. -1.
         25    2    1    2    0    0  0.18730763647E+02 -0.41876403521E+02  0.25902925297E+02  0.13572648369E+03  0.12508493977E+03 0.  0.
          5    1    3    3  502    0 -0.83847112846E+01 -0.82319163882E+02  0.26070468272E+02  0.86855568857E+02  0.41800000000E+01 0.  1.
         -5    1    3    3    0  502  0.27115474932E+02  0.40442760360E+02 -0.16754297543E+00  0.48870914837E+02  0.41800000000E+01 0.  1.
        -11    1    1    2    0    0  0.23913640884E+01  0.74579010616E+02  0.25372419388E+02  0.78813115103E+02  0.00000000000E+00 0. -1.
         11    1    1    2    0    0 -0.21122127735E+02 -0.32702607095E+02  0.22396086820E+02  0.44913132776E+02  0.00000000000E+00 0.  1.
</event>
<event>
 7    1  0.2688177E-009  0.3622721E+03  0.7561462E-02  0.1057688E+00
          2   -1    0    0  501    0  0.00000000000E+00  0.00000000000E+00  0.13543102190E+04  0.13543102190E+04  0.00000000000E+00 0. -1.
         -2   -1    0    0    0  501 -0.00000000000E+00 -0.00000000000E+00 -0.10613478459E+03  0.10613478459E+03  0.00000000000E+00 0.  1.
         25    2    1    2    0    0 -0.30460600709E+02 -0.36001410227E+03  0.56454201944E+03  0.68182874773E+03  0.12507896503E+03 0.  0.
          5    1    3    3  502    0  0.13455597315E+01 -0.11463989177E+03  0.87013144053E+02  0.14398914874E+03  0.41800000000E+01 0. -1.
         -5    1    3    3    0  502 -0.31806160441E+02 -0.24537421051E+03  0.47752887539E+03  0.53783959900E+03  0.41800000000E+01 0. -1.
        -11    1    1    2    0    0  0.30162798618E+02  0.19294183466E+03  0.27625681871E+03  0.33831076818E+03  0.00000000000E+00 0.  1.
         11    1    1    2    0    0  0.29780209087E+00  0.16707226761E+03  0.40737659630E+03  0.44030548771E+03  0.00000000000E+00 0. -1.
</event>
<event>
 7    1  0.2688177E-009  0.1895244E+03  0.7561462E-02  0.1158891E+00
          1   -1    0    0  501    0  0.00000000000E+00  0.00000000000E+00  0.96957179329E+02  0.96957179329E+02  0.00000000000E+00 0. -1.
         -1   -1    0    0    0  501 -0.00000000000E+00 -0.00000000000E+00 -0.43432895701E+03  0.43432895701E+03  0.00000000000E+00 0.  1.
         25    2    1    2    0    0  0.84489709076E+02 -0.13551460883E+03 -0.26458164977E+03  0.33339793601E+03  0.12509202291E+03 0.  0.
          5    1    3    3  502    0  0.12995114805E+02  0.22809609307E+02 -0.55464111611E+02  0.61505214107E+02  0.41800000000E+01 0.  1.
         -5    1    3    3    0  502  0.71494594272E+02 -0.15832421813E+03 -0.20911753816E+03  0.27189272191E+03  0.41800000000E+01 0.  1.
        -11    1    1    2    0    0  0.15451730674E+02  0.27472316401E+02  0.41847658555E+01  0.31796169808E+02  0.00000000000E+00 0.  1.
         11    1    1    2    0    0 -0.99941439750E+02  0.10804229243E+03 -0.76974893762E+02  0.16609203052E+03  0.00000000000E+00 0. -1.
</event>
<event>
 7    1  0.2688177E-009  0.1289091E+03  0.7561462E-02  0.1229084E+00
          1   -1    0    0  501    0  0.00000000000E+00  0.00000000000E+00  0.33055227485E+02  0.33055227485E+02  0.00000000000E+00 0. -1.
         -1   -1    0    0    0  501 -0.00000000000E+00 -0.00000000000E+00 -0.56328918551E+03  0.56328918551E+03  0.00000000000E+00 0.  1.
         25    2    1    2    0    0 -0.77013485843E+02  0.27849255134E+02 -0.32829943411E+03  0.36074304319E+03  0.12509343213E+03 0.  0.
          5    1    3    3  502    0 -0.86919113186E+02  0.60743445077E+02 -0.18455355838E+03  0.21289008118E+03  0.41800000000E+01 0.  1.
         -5    1    3    3    0  502  0.99056273428E+01 -0.32894189942E+02 -0.14374587573E+03  0.14785296201E+03  0.41800000000E+01 0.  1.
        -11    1    1    2    0    0  0.82316801137E+02  0.62736526481E+01 -0.16798881260E+03  0.18717813875E+03  0.00000000000E+00 0.  1.
         11    1    1    2    0    0 -0.53033152941E+01 -0.34122907782E+02 -0.33945711313E+02  0.48423231048E+02  0.00000000000E+00 0. -1.
</event>
<event>
 7    1  0.2688177E-009  0.8977957E+02  0.7561462E-02  0.1303386E+00
          1   -1    0    0  501    0  0.00000000000E+00  0.00000000000E+00  0.11353113649E+03  0.11353113649E+03  0.00000000000E+00 0. -1.
         -1   -1    0    0    0  501 -0.00000000000E+00 -0.00000000000E+00 -0.20412758195E+03  0.20412758195E+03  0.00000000000E+00 0.  1.
         25    2    1    2    0    0  0.34091778125E+02  0.39481283739E+02 -0.14569604202E+03  0.19898879520E+03  0.12509269705E+03 0.  0.
          5    1    3    3  502    0  0.43133701344E+02  0.54115189313E+02 -0.20145181942E+02  0.72196057105E+02  0.41800000000E+01 0. -1.
         -5    1    3    3    0  502 -0.90419232189E+01 -0.14633905575E+02 -0.12555086008E+03  0.12679273810E+03  0.41800000000E+01 0. -1.
        -11    1    1    2    0    0 -0.58807754510E+02 -0.25170477759E+02  0.62218572463E+02  0.89235955200E+02  0.00000000000E+00 0. -1.
         11    1    1    2    0    0  0.24715976385E+02 -0.14310805980E+02 -0.71189759000E+01  0.29433968035E+02  0.00000000000E+00 0.  1.
</event>
<event>
 7    1  0.2688177E-009  0.1534643E+03  0.7561462E-02  0.1196280E+00
         -1   -1    0    0    0  501 -0.00000000000E+00  0.00000000000E+00  0.19832596307E+03  0.19832596307E+03  0.00000000000E+00 0.  1.
          1   -1    0    0  501    0  0.00000000000E+00 -0.00000000000E+00 -0.14957027652E+03  0.14957027652E+03  0.00000000000E+00 0. -1.
         25    2    1    2    0    0 -0.98177267430E+02  0.81877245548E+02 -0.12994081773E+02  0.17932787092E+03  0.12508788890E+03 0.  0.
          5    1    3    3  502    0  0.25800956637E+02  0.26645518619E+02 -0.21850814989E+02  0.43250474466E+02  0.41800000000E+01 0.  1.
         -5    1    3    3    0  502 -0.12397822407E+03  0.55231726930E+02  0.88567332169E+01  0.13607739645E+03  0.41800000000E+01 0.  1.
        -11    1    1    2    0    0  0.51673258613E+02 -0.67761020684E+02 -0.57317027837E+01  0.85408044098E+02  0.00000000000E+00 0.  1.
         11    1    1    2    0    0  0.46504008817E+02 -0.14116224864E+02  0.67481471107E+02  0.83160324574E+02  0.00000000000E+00 0. -1.
</event>
<event>
 7    1  0.2688177E-009  0.9761838E+02  0.7561462E-02  0.1285385E+00
          1   -1    0    0  501    0  0.00000000000E+00  0.00000000000E+00  0.84881614341E+02  0.84881614341E+02  0.00000000000E+00 0. -1.
         -1   -1    0    0    0  501 -0.00000000000E+00 -0.00000000000E+00 -0.20520172296E+03  0.20520172296E+03  0.00000000000E+00 0.  1.
         25    2    1    2    0    0  0.43806998768E+02  0.46312524272E+02 -0.11031167762E+03  0.17855080035E+03  0.12509124286E+03 0.  0.
          5    1    3    3  502    0  0.20173499864E+00  0.39988553136E+02  0.17083973269E+02  0.43685920175E+02  0.41800000000E+01 0. -1.
         -5    1    3    3    0  502  0.43605263769E+02  0.63239711366E+01 -0.12739565089E+03  0.13486488018E+03  0.41800000000E+01 0. -1.
        -11    1    1    2    0    0  0.17746448881E+02 -0.45904827038E+02 -0.29883230420E+00  0.49216652609E+02  0.00000000000E+00 0. -1.
         11    1    1    2    0    0 -0.61553447649E+02 -0.40769723418E+00 -0.97095986946E+01  0.62315884342E+02  0.00000000000E+00 0.  1.
</event>
<event>
 6    1  0.2688177E-009  0.1957807E+03  0.7561462E-02  0.1153348E+00
         -1   -1    0    0    0  501 -0.00000000000E+00  0.00000000000E+00  0.38711145876E+02  0.38711145876E+02  0.00000000000E+00 0.  1.
          1   -1    0    0  501    0  0.00000000000E+00 -0.00000000000E+00 -0.14691560549E+04  0.14691560549E+04  0.00000000000E+00 0. -1.
          5    1    1    2  502    0 -0.32072772989E+02 -0.77209020036E+02 -0.75785314670E+03  0.76246230065E+03  0.41800000000E+01 0.  1.
         -5    1    1    2    0  502  0.35464088165E+02 -0.10194248723E+03 -0.33419154570E+03  0.35121422789E+03  0.41800000000E+01 0.  1.
        -11    1    1    2    0    0 -0.43411841346E+02  0.59394014744E+02 -0.96786481389E+02  0.12157244727E+03  0.00000000000E+00 0.  1.
         11    1    1    2    0    0  0.40020526169E+02  0.11975749252E+03 -0.24161373522E+03  0.27261822495E+03  0.00000000000E+00 0. -1.
</event>
<event>
 7    1  0.2688177E-009  0.9293563E+02  0.7561462E-02  0.1295894E+00
         -1   -1    0    0    0  501 -0.00000000000E+00  0.00000000000E+00  0.10399014736E+03  0.10399014736E+03  0.00000000000E+00 0.  1.
          1   -1    0    0  501    0  0.00000000000E+00 -0.00000000000E+00 -0.11025274127E+03  0.11025274127E+03  0.00000000000E+00 0. -1.
         25    2    1    2    0    0  0.40480840824E+02 -0.91582608815E+01 -0.10247662838E+01  0.13179574312E+03  0.12508595262E+03 0.  0.
          5    1    3    3  502    0 -0.42138544105E+02  0.20146282499E+01 -0.18918935662E+02  0.46423207051E+02  0.41800000000E+01 0. -1.
         -5    1    3    3    0  502  0.82619384930E+02 -0.11172889131E+02  0.17894169379E+02  0.85372536072E+02  0.41800000000E+01 0. -1.
        -11    1    1    2    0    0 -0.27734789987E+02  0.26580179567E+02 -0.30621043022E+02  0.49126090799E+02  0.00000000000E+00 0. -1.
         11    1    1    2    0    0 -0.12746050838E+02 -0.17421918686E+02  0.25383215399E+02  0.33321054704E+02  0.00000000000E+00 0.  1.
</event>
<event>
 7    1  0.2688177E-009  0.1445291E+03  0.7561462E-02  0.1207361E+00
          1   -1    0    0  501    0  0.00000000000E+00  0.00000000000E+00  0.17655611876E+03  0.17655611876E+03  0.00000000000E+00 0.  1.
         -1   -1    0    0    0  501 -0.00000000000E+00 -0.00000000000E+00 -0.12726560268E+03  0.12726560268E+03  0.00000000000E+00 0. -1.
         25    2    1    2    0    0  0.52593222763E+02  0.88931540234E+02  0.24763242901E+02  0.16411740483E+03  0.12508572436E+03 0.  0.
          5    1    3    3  502    0  0.49327135593E+02 -0.11928513323E+02  0.36193560992E+02  0.62473210204E+02  0.41800000000E+01 0. -1.
         -5    1    3    3    0  502  0.32660871700E+01  0.10086005356E+03 -0.11430318090E+02  0.10164419462E+03  0.41800000000E+01 0. -1.
        -11    1    1    2    0    0 -0.55823715708E+02 -0.82948615765E+01  0.48897097860E+01  0.56648046973E+02  0.00000000000E+00 0.  1.
         11    1    1    2    0    0  0.32304929457E+01 -0.80636678658E+02  0.19637563389E+02  0.83056269634E+02  0.00000000000E+00 0. -1.
</event>
<event>
 7    1  0.2688177E-009  0.1741886E+03  0.7561462E-02  0.1173549E+00
          1   -1    0    0  501    0  0.00000000000E+00  0.00000000000E+00  0.10176913250E+04  0.10176913250E+04  0.00000000000E+00 0. -1.
         -1   -1    0    0    0  501 -0.00000000000E+00 -0.00000000000E+00 -0.32703719570E+02  0.32703719570E+02  0.00000000000E+00 0.  1.
         25    2    1    2    0    0 -0.50563227180E+02  0.13464916287E+03  0.45447680143E+03  0.49283210574E+03  0.12508910588E+03 0.  0.
          5    1    3    3  502    0 -0.67775268369E+02  0.15155181699E+03  0.39171418467E+03  0.42546317715E+03  0.41800000000E+01 0.  1.
         -5    1    3    3    0  502  0.17212041189E+02 -0.16902654114E+02  0.62762616753E+02  0.67368928593E+02  0.41800000000E+01 0.  1.
        -11    1    1    2    0    0  0.85821836194E+01  0.63712007974E+01  0.49219879730E+01  0.11767414367E+02  0.00000000000E+00 0. -1.
         11    1    1    2    0    0  0.41981043561E+02 -0.14102036367E+03  0.52558881607E+03  0.54579552450E+03  0.00000000000E+00 0.  1.
</event>
<event>
 7    1  0.2688177E-009  0.9021452E+02  0.7561462E-02  0.1302333E+00
          2   -1    0    0  501    0  0.00000000000E+00  0.00000000000E+00  0.71057275042E+03  0.71057275042E+03  0.00000000000E+00 0. -1.
         -2   -1    0    0    0  501 -0.00000000000E+00 -0.00000000000E+00 -0.29582603204E+02  0.29582603204E+02  0.00000000000E+00 0.  1.
         25    2    1    2    0    0  0.29758833314E+01 -0.74582014154E+02  0.52133359936E+03  0.54130134157E+03  0.12508832019E+03 0.  0.
          5    1    3    3  502    0 -0.17648869390E+02 -0.15038841071E+02  0.42777462722E+03  0.42842298424E+03  0.41800000000E+01 0. -1.
         -5    1    3    3    0  502  0.20624752721E+02 -0.59543173084E+02  0.93558972138E+02  0.11287835733E+03  0.41800000000E+01 0. -1.
        -11    1    1    2    0    0 -0.28714621997E+02  0.26001023108E+02  0.13149651082E+03  0.13708360615E+03  0.00000000000E+00 0. -1.
         11    1    1    2    0    0  0.25738738665E+02  0.48580991046E+02  0.28160037040E+02  0.61770405901E+02  0.00000000000E+00 0.  1.
</event>
<event>
 7    1  0.3360054E-009  0.1133671E+03  0.7561462E-02  0.1254459E+00
         -1   -1    0    0    0  501 -0.00000000000E+00  0.00000000000E+00  0.39584542167E+03  0.39584542167E+03  0.00000000000E+00 0.  1.
          1   -1    0    0  501    0  0.00000000000E+00 -0.00000000000E+00 -0.47532559447E+02  0.47532559447E+02  0.00000000000E+00 0. -1.
         25    2    1    2    0    0  0.22638590950E+02 -0.72185379689E+02  0.24891552520E+03  0.28866828238E+03  0.12508878337E+03 0.  0.
          5    1    3    3  502    0  0.73313839127E+02 -0.48900209396E+02  0.12816122734E+03  0.15559216587E+03  0.41800000000E+01 0. -1.
         -5    1    3    3    0  502 -0.50675248176E+02 -0.23285170293E+02  0.12075429786E+03  0.13307611651E+03  0.41800000000E+01 0. -1.
        -11    1    1    2    0    0  0.84692972486E+01  0.21573467304E+02 -0.13725914710E+02  0.26935928089E+02  0.00000000000E+00 0. -1.
         11    1    1    2    0    0 -0.31107888199E+02  0.50611912385E+02  0.11312325173E+03  0.12777377065E+03  0.00000000000E+00 0.  1.
</event>
<event>
 7    1  0.3075096E-009  0.1528649E+03  0.7561462E-02  0.1196996E+00
         -1   -1    0    0    0  501 -0.00000000000E+00  0.00000000000E+00  0.13034812721E+03  0.13034812721E+03  0.00000000000E+00 0.  1.
          1   -1    0    0  501    0  0.00000000000E+00 -0.00000000000E+00 -0.22355331881E+03  0.22355331881E+03  0.00000000000E+00 0. -1.
         25    2    1    2    0    0  0.10236050254E+03 -0.53348292893E+02  0.15634984116E+02  0.17092661494E+03  0.12509093545E+03 0.  0.
          5    1    3    3  502    0  0.12321106073E+03 -0.62935532219E+02  0.32451331072E+02  0.14217034850E+03  0.41800000000E+01 0. -1.
         -5    1    3    3    0  502 -0.20850558194E+02  0.95872393253E+01 -0.16816346956E+02  0.28756266444E+02  0.41800000000E+01 0. -1.
        -11    1    1    2    0    0 -0.64485781404E+02 -0.14670279727E+02 -0.68793246763E+02  0.95426117551E+02  0.00000000000E+00 0.  1.
         11    1    1    2    0    0 -0.37874721137E+02  0.68018572620E+02 -0.40046928952E+02  0.87548713531E+02  0.00000000000E+00 0. -1.
</event>
<event>
 7    1  0.2688177E-009  0.1607465E+03  0.7561462E-02  0.1187857E+00
         -1   -1    0    0    0  501 -0.00000000000E+00  0.00000000000E+00  0.59845757741E+02  0.59845757741E+02  0.00000000000E+00 0.  1.
          1   -1    0    0  501    0  0.00000000000E+00 -0.00000000000E+00 -0.66506812488E+03  0.66506812488E+03  0.00000000000E+00 0. -1.
         25    2    1    2    0    0 -0.12289893980E+03 -0.79528901060E+02 -0.17202107819E+03  0.25821002958E+03  0.12510864289E+03 0.  0.
          5    1    3    3  502    0 -0.64258325226E+01 -0.85187908670E+01 -0.10597378383E+03  0.10659163373E+03  0.41800000000E+01 0. -1.
         -5    1    3    3    0  502 -0.11647310728E+03 -0.71010110193E+02 -0.66047294363E+02  0.15161839585E+03  0.41800000000E+01 0. -1.
        -11    1    1    2    0    0  0.69620703555E+02  0.95273370011E+02 -0.28789808688E+03  0.31114203481E+03  0.00000000000E+00 0.  1.
         11    1    1    2    0    0  0.53278236246E+02 -0.15744468951E+02 -0.14530320206E+03  0.15556181823E+03  0.00000000000E+00 0. -1.
</event>
<event>
 7    1  0.2688177E-009  0.1066799E+03  0.7561462E-02  0.1266845E+00
          3   -1    0    0  501    0  0.00000000000E+00  0.00000000000E+00  0.24607617845E+04  0.24607617845E+04  0.00000000000E+00 0. -1.
         -3   -1    0    0    0  501 -0.00000000000E+00 -0.00000000000E+00 -0.81097222547E+01  0.81097222547E+01  0.00000000000E+00 0.  1.
         25    2    1    2    0    0  0.35902734329E+02  0.14512144086E+02  0.20295972576E+04  0.20338181508E+04  0.12510648962E+03 0.  0.
          5    1    3    3  502    0  0.49867601297E+02  0.52867736422E+02  0.17165956626E+04  0.17181385032E+04  0.41800000000E+01 0. -1.
         -5    1    3    3    0  502 -0.13964866969E+02 -0.38355592337E+02  0.31300159506E+03  0.31567964756E+03  0.41800000000E+01 0. -1.
        -11    1    1    2    0    0 -0.54042236324E+02  0.22323948315E+02  0.20545004613E+03  0.21360862208E+03  0.00000000000E+00 0.  1.
         11    1    1    2    0    0  0.18139501995E+02 -0.36836092401E+02  0.21760475853E+03  0.22144473389E+03  0.00000000000E+00 0. -1.
</event>
<event>
 7    1  0.2688177E-009  0.2527485E+03  0.7561462E-02  0.1111580E+00
          2   -1    0    0  501    0  0.00000000000E+00  0.00000000000E+00  0.72716814697E+02  0.72716814697E+02  0.00000000000E+00 0. -1.
         -2   -1    0    0    0  501 -0.00000000000E+00 -0.00000000000E+00 -0.91862319115E+03  0.91862319115E+03  0.00000000000E+00 0.  1.
         25    2    1    2    0    0  0.12383310931E+03 -0.19678404080E+03 -0.38541383636E+03  0.46716832960E+03  0.12507527832E+03 0.  0.
          5    1    3    3  502    0 -0.21007852942E+02 -0.17108116908E+02 -0.78455082173E+02  0.83106497147E+02  0.41800000000E+01 0. -1.
         -5    1    3    3    0  502  0.14484096225E+03 -0.17967592389E+03 -0.30695875419E+03  0.38406183245E+03  0.41800000000E+01 0. -1.
        -11    1    1    2    0    0 -0.71260089258E+02  0.17748500201E+03 -0.31819944902E+03  0.37125438127E+03  0.00000000000E+00 0.  1.
         11    1    1    2    0    0 -0.52573020049E+02  0.19299038790E+02 -0.14229309108E+03  0.15291729498E+03  0.00000000000E+00 0. -1.
</event>
<event>
 7    1  0.3007896E-009  0.6818217E+02  0.7561462E-02  0.1366386E+00
          3   -1    0    0  501    0  0.00000000000E+00  0.00000000000E+00  0.54555925954E+02  0.54555925954E+02  0.00000000000E+00 0. -1.
         -3   -1    0    0    0  501 -0.00000000000E+00 -0.00000000000E+00 -0.26201333252E+03  0.26201333252E+03  0.00000000000E+00 0.  1.
         25    2    1    2    0    0  0.42539658853E+02  0.16788201838E+02 -0.90826154841E+02  0.16120555352E+03  0.12508546593E+03 0.  0.
          5    1    3    3  502    0  0.53356161849E+02 -0.13990761859E+02 -0.11000542324E+03  0.12313117789E+03  0.41800000000E+01 0.  1.
         -5    1    3    3    0  502 -0.10816502996E+02  0.30778963697E+02  0.19179268403E+02  0.38074375633E+02  0.41800000000E+01 0.  1.
        -11    1    1    2    0    0 -0.25781080959E+02 -0.20923176618E+01  0.92910377979E+01  0.27483910056E+02  0.00000000000E+00 0. -1.
         11    1    1    2    0    0 -0.16758577894E+02 -0.14695884176E+02 -0.12592228952E+03  0.12787979489E+03  0.00000000000E+00 0.  1.
</event>
<event>
 7    1  0.2688177E-009  0.1172848E+03  0.7561462E-02  0.1247645E+00
          2   -1    0    0  501    0  0.00000000000E+00  0.00000000000E+00  0.89682637160E+03  0.89682637160E+03  0.00000000000E+00 0. -1.
         -2   -1    0    0    0  501 -0.00000000000E+00 -0.00000000000E+00 -0.15998362941E+02  0.15998362941E+02  0.00000000000E+00 0.  1.
         25    2    1    2    0    0  0.14508514488E+02  0.43262605998E+02  0.40796627016E+03  0.42914604010E+03  0.12509075135E+03 0.  0.
          5    1    3    3  502    0  0.17665928585E+02  0.87063667389E+02  0.28058395608E+03  0.29434163148E+03  0.41800000000E+01 0.  1.
         -5    1    3    3    0  502 -0.31574140977E+01 -0.43801061391E+02  0.12738231408E+03  0.13480440862E+03  0.41800000000E+01 0.  1.
        -11    1    1    2    0    0  0.37191770591E+02 -0.57251675354E+01  0.16089412432E+03  0.16523596638E+03  0.00000000000E+00 0.  1.
         11    1    1    2    0    0 -0.51700285079E+02 -0.37537438463E+02  0.31196761417E+03  0.31844272806E+03  0.00000000000E+00 0. -1.
</event>
<event>
 7    1  0.2688177E-009  0.1012403E+03  0.7561462E-02  0.1277709E+00
         -2   -1    0    0    0  501 -0.00000000000E+00  0.00000000000E+00  0.14505265582E+02  0.14505265582E+02  0.00000000000E+00 0.  1.
          2   -1    0    0  501    0  0.00000000000E+00 -0.00000000000E+00 -0.79800671804E+03  0.79800671804E+03  0.00000000000E+00 0. -1.
         25    2    1    2    0    0  0.10247540222E+02 -0.52930387606E+01 -0.48981704983E+03  0.50566927421E+03  0.12509054416E+03 0.  0.
          5    1    3    3  502    0 -0.13860689212E+02  0.56937429292E+02 -0.23113077430E+03  0.23848039078E+03  0.41800000000E+01 0.  1.
         -5    1    3    3    0  502  0.24108229433E+02 -0.62230468053E+02 -0.25868627553E+03  0.26718888343E+03  0.41800000000E+01 0.  1.
        -11    1    1    2    0    0 -0.16858271466E+02 -0.33504570539E+02 -0.67148627508E+02  0.76913560183E+02  0.00000000000E+00 0.  1.
         11    1    1    2    0    0  0.66107312446E+01  0.38797609299E+02 -0.22653577512E+03  0.22992914923E+03  0.00000000000E+00 0. -1.
</event>
<event>
 7    1  0.2688177E-009  0.1122649E+03  0.7561462E-02  0.1256432E+00
         -2   -1    0    0    0  501 -0.00000000000E+00  0.00000000000E+00  0.79308181610E+02  0.79308181610E+02  0.00000000000E+00 0. -1.
          2   -1    0    0  501    0  0.00000000000E+00 -0.00000000000E+00 -0.17258527606E+03  0.17258527606E+03  0.00000000000E+00 0.  1.
         25    2    1    2    0    0  0.17045250159E+01  0.41631441143E+02 -0.55558874938E+02  0.14307388599E+03  0.12508903218E+03 0.  0.
          5    1    3    3  502    0  0.17692487319E+01 -0.44749853594E+02 -0.24239340867E+02  0.51094986872E+02  0.41800000000E+01 0.  1.
         -5    1    3    3    0  502 -0.64723716000E-01  0.86381294736E+02 -0.31319534071E+02  0.91978899123E+02  0.41800000000E+01 0.  1.
        -11    1    1    2    0    0  0.31406615161E+02  0.89102009099E+01 -0.35682646540E+02  0.48363399593E+02  0.00000000000E+00 0.  1.
         11    1    1    2    0    0 -0.33111140176E+02 -0.50541642053E+02 -0.20355729683E+01  0.60456172079E+02  0.00000000000E+00 0. -1.
</event>
<event>
 7    1  0.2688177E-009  0.7615565E+02  0.7561462E-02  0.1340329E+00
         -2   -1    0    0    0  501 -0.00000000000E+00  0.00000000000E+00  0.39856521523E+02  0.39856521523E+02  0.00000000000E+00 0.  1.
          2   -1    0    0  501    0  0.00000000000E+00 -0.00000000000E+00 -0.40673875017E+03  0.40673875017E+03  0.00000000000E+00 0. -1.
         25    2    1    2    0    0  0.21353306722E+02  0.26089689455E+01 -0.31502615169E+03  0.33963519861E+03  0.12509125255E+03 0.  0.
          5    1    3    3  502    0  0.33080223751E+02 -0.23460677626E+02 -0.24269175760E+02  0.47446495025E+02  0.41800000000E+01 0.  1.
         -5    1    3    3    0  502 -0.11726917029E+02  0.26069646572E+02 -0.29075697593E+03  0.29218870359E+03  0.41800000000E+01 0.  1.
        -11    1    1    2    0    0 -0.51245771465E+02 -0.91390601322E+01 -0.55564840790E+02  0.76138709243E+02  0.00000000000E+00 0. -1.
         11    1    1    2    0    0  0.29892464743E+02  0.65300911867E+01  0.37087638320E+01  0.30821363832E+02  0.00000000000E+00 0.  1.
</event>
<event>
 7    1  0.2688177E-009  0.1158505E+03  0.7561462E-02  0.1250104E+00
          2   -1    0    0  501    0  0.00000000000E+00  0.00000000000E+00  0.50443030623E+03  0.50443030623E+03  0.00000000000E+00 0.  1.
         -2   -1    0    0    0  501 -0.00000000000E+00 -0.00000000000E+00 -0.36321917830E+02  0.36321917830E+02  0.00000000000E+00 0. -1.
         25    2    1    2    0    0 -0.35822965980E+02 -0.61916402201E+02  0.18279356125E+03  0.23276221895E+03  0.12509132178E+03 0.  0.
          5    1    3    3  502    0  0.23603234667E+02 -0.50962465077E+02  0.15723897498E+03  0.16702051726E+03  0.41800000000E+01 0. -1.
         -5    1    3    3    0  502 -0.59426200647E+02 -0.10953937124E+02  0.25554586264E+02  0.65741701689E+02  0.41800000000E+01 0. -1.
        -11    1    1    2    0    0 -0.24643273444E+02 -0.44367187562E+01  0.82011236602E+02  0.85748576247E+02  0.00000000000E+00 0. -1.
         11    1    1    2    0    0  0.60466239424E+02  0.66353120957E+02  0.20330359055E+03  0.22224142886E+03  0.00000000000E+00 0.  1.
</event>
<event>
 7    1  0.2688177E-009  0.1353313E+03  0.7561462E-02  0.1219753E+00
         -2   -1    0    0    0  501 -0.00000000000E+00  0.00000000000E+00  0.25815272269E+03  0.25815272269E+03  0.00000000000E+00 0.  1.
          2   -1    0    0  501    0  0.00000000000E+00 -0.00000000000E+00 -0.83193311892E+02  0.83193311892E+02  0.00000000000E+00 0. -1.
         25    2    1    2    0    0  0.92168984529E+02 -0.29978316546E+02  0.10456066243E+03  0.18967132838E+03  0.12509380285E+03 0.  0.
          5    1    3    3  502    0  0.12410805120E+02 -0.63209297459E+02  0.73346594673E+02  0.97706902106E+02  0.41800000000E+01 0. -1.
         -5    1    3    3    0  502  0.79758179409E+02  0.33230980913E+02  0.31214067752E+02  0.91964426278E+02  0.41800000000E+01 0. -1.
        -11    1    1    2    0    0 -0.37280889392E+02 -0.22601580884E+02  0.61157427233E+02  0.75106105465E+02  0.00000000000E+00 0.  1.
         11    1    1    2    0    0 -0.54888095137E+02  0.52579897430E+02  0.92413211383E+01  0.76568600731E+02  0.00000000000E+00 0. -1.
</event>
<event>
 7    1  0.2688177E-009  0.9909469E+02  0.7561462E-02  0.1282211E+00
          2   -1    0    0  501    0  0.00000000000E+00  0.00000000000E+00  0.55201062621E+03  0.55201062621E+03  0.00000000000E+00 0. -1.
         -2   -1    0    0    0  501 -0.00000000000E+00 -0.00000000000E+00 -0.28565864269E+02  0.28565864269E+02  0.00000000000E+00 0.  1.
         25    2    1    2    0    0  0.25885694249E+02  0.54960382213E+02  0.32882234825E+03  0.35701885762E+03  0.12509042811E+03 0.  0.
          5    1    3    3  502    0  0.32462326655E+02 -0.52979477251E+01  0.27140033046E+03  0.27341814621E+03  0.41800000000E+01 0.  1.
         -5    1    3    3    0  502 -0.65766324060E+01  0.60258329938E+02  0.57422017785E+02  0.83600711404E+02  0.41800000000E+01 0.  1.
        -11    1    1    2    0    0  0.17808162081E+02  0.13988383647E+02  0.77898394737E+02  0.81123149694E+02  0.00000000000E+00 0. -1.
         11    1    1    2    0    0 -0.43693856331E+02 -0.68948765860E+02  0.11672401896E+03  0.14243448317E+03  0.00000000000E+00 0.  1.
</event>
<event>
 7    1  0.2688177E-009  0.1310434E+03  0.7561462E-02  0.1225916E+00
         -1   -1    0    0    0  501 -0.00000000000E+00  0.00000000000E+00  0.11723935969E+03  0.11723935969E+03  0.00000000000E+00 0.  1.
          1   -1    0    0  501    0  0.00000000000E+00 -0.00000000000E+00 -0.20387238504E+03  0.20387238504E+03  0.00000000000E+00 0. -1.
         25    2    1    2    0    0 -0.93976768059E+02  0.56592007625E+02 -0.53056488750E+02  0.17463879781E+03  0.12509768359E+03 0.  0.
          5    1    3    3  502    0 -0.10182930707E+03  0.33274563567E+02  0.91633642587E+01  0.10760039035E+03  0.41800000000E+01 0.  1.
         -5    1    3    3    0  502  0.78525390074E+01  0.23317444058E+02 -0.62219853008E+02  0.67038407459E+02  0.41800000000E+01 0.  1.
        -11    1    1    2    0    0  0.20565359921E+02  0.16470322190E+02 -0.33855266848E+02  0.42899704370E+02  0.00000000000E+00 0.  1.
         11    1    1    2    0    0  0.73411408138E+02 -0.73062329815E+02  0.27873023885E+00  0.10357324256E+03  0.00000000000E+00 0. -1.
</event>
<event>
 7    1  0.2688177E-009  0.1389619E+03  0.7561462E-02  0.1214733E+00
         -2   -1    0    0    0  501 -0.00000000000E+00  0.00000000000E+00  0.26252740374E+02  0.26252740374E+02  0.00000000000E+00 0.  1.
          2   -1    0    0  501    0  0.00000000000E+00 -0.00000000000E+00 -0.80085948334E+03  0.80085948334E+03  0.00000000000E+00 0. -1.
         25    2    1    2    0    0 -0.93816680943E+02 -0.29202165692E+01 -0.47953258797E+03  0.50439499941E+03  0.12511081175E+03 0.  0.
          5    1    3    3  502    0  0.24485589019E+02  0.13407408537E+02 -0.40332798727E+02  0.49229155248E+02  0.41800000000E+01 0.  1.
         -5    1    3    3    0  502 -0.11830226996E+03 -0.16327625106E+02 -0.43919978924E+03  0.45516584416E+03  0.41800000000E+01 0.  1.
        -11    1    1    2    0    0 -0.12887958480E+02  0.18310161483E+02 -0.61932017933E+02  0.65855419918E+02  0.00000000000E+00 0.  1.
         11    1    1    2    0    0  0.10670463942E+03 -0.15389944914E+02 -0.23314213706E+03  0.25686180439E+03  0.00000000000E+00 0. -1.
</event>
<event>
 7    1  0.3390658E-009  0.1110552E+03  0.7561462E-02  0.1258628E+00
          1   -1    0    0  501    0  0.00000000000E+00  0.00000000000E+00  0.27747019343E+03  0.27747019343E+03  0.00000000000E+00 0. -1.
         -1   -1    0    0    0  501 -0.00000000000E+00 -0.00000000000E+00 -0.54813274434E+02  0.54813274434E+02  0.00000000000E+00 0.  1.
         25    2    1    2    0    0  0.37347836293E+02  0.18670952661E+02  0.17902722386E+03  0.22235510956E+03  0.12509029744E+03 0.  0.
          5    1    3    3  502    0  0.30611073433E+02 -0.50820860744E+02  0.10383680456E+03  0.11966349520E+03  0.41800000000E+01 0.  1.
         -5    1    3    3    0  502  0.67367628598E+01  0.69491813405E+02  0.75190419305E+02  0.10269161436E+03  0.41800000000E+01 0.  1.
        -11    1    1    2    0    0  0.26643106446E+02 -0.30032866019E+01  0.34073890947E+02  0.43357870056E+02  0.00000000000E+00 0. -1.
         11    1    1    2    0    0 -0.63990942739E+02 -0.15667666059E+02  0.95558041899E+01  0.66570488251E+02  0.00000000000E+00 0.  1.
</event>
<event>
 7    1  0.2688177E-009  0.1409305E+03  0.7561462E-02  0.1212082E+00
         -1   -1    0    0    0  501 -0.00000000000E+00  0.00000000000E+00  0.37605893730E+03  0.37605893730E+03  0.00000000000E+00 0.  1.
          1   -1    0    0  501    0  0.00000000000E+00 -0.00000000000E+00 -0.96253071655E+02  0.96253071655E+02  0.00000000000E+00 0. -1.
         25    2    1    2    0    0  0.11571537890E+03  0.18501294330E+02  0.19739226991E+02  0.17253798115E+03  0.12508945219E+03 0.  0.
          5    1    3    3  502    0  0.11098355381E+03  0.57190752026E+02 -0.69471589720E+01  0.12511541372E+03  0.41800000000E+01 0. -1.
         -5    1    3    3    0  502  0.47318250973E+01 -0.38689457696E+02  0.26686385963E+02  0.47422567426E+02  0.41800000000E+01 0. -1.
        -11    1    1    2    0    0 -0.33654257398E+02 -0.10661314093E+02  0.18481757864E+03  0.18815900200E+03  0.00000000000E+00 0.  1.
         11    1    1    2    0    0 -0.82061121507E+02 -0.78399802366E+01  0.75249060015E+02  0.11161502581E+03  0.00000000000E+00 0. -1.
</event>
<event>
 7    1  0.2688177E-009  0.8405183E+02  0.7561462E-02  0.1317931E+00
         -1   -1    0    0    0  501 -0.00000000000E+00  0.00000000000E+00  0.89178539180E+02  0.89178539180E+02  0.00000000000E+00 0.  1.
          1   -1    0    0  501    0  0.00000000000E+00 -0.00000000000E+00 -0.16866902721E+03  0.16866902721E+03  0.00000000000E+00 0. -1.
         25    2    1    2    0    0  0.72639898541E+01  0.54956530116E+02 -0.29745913180E+02  0.13999126076E+03  0.12505897803E+03 0.  0.
          5    1    3    3  502    0 -0.93491057648E+01  0.42186997474E+00  0.44853393411E+02  0.46009597405E+02  0.41800000000E+01 0. -1.
         -5    1    3    3    0  502  0.16613095619E+02  0.54534660141E+02 -0.74599306592E+02  0.93981663354E+02  0.41800000000E+01 0. -1.
        -11    1    1    2    0    0  0.27990091250E+02  0.74956446748E+01  0.25658225527E+01  0.29089746349E+02  0.00000000000E+00 0.  1.
         11    1    1    2    0    0 -0.35254081104E+02 -0.62452174791E+02 -0.52310397406E+02  0.88766559285E+02  0.00000000000E+00 0. -1.
</event>
<event>
 7    1  0.2688177E-009  0.8743246E+02  0.7561462E-02  0.1309191E+00
         -2   -1    0    0    0  501 -0.00000000000E+00  0.00000000000E+00  0.22865826530E+03  0.22865826530E+03  0.00000000000E+00 0.  1.
          2   -1    0    0  501    0  0.00000000000E+00 -0.00000000000E+00 -0.55617894193E+02  0.55617894193E+02  0.00000000000E+00 0. -1.
         25    2    1    2    0    0 -0.29640740505E+02  0.48398149038E+02  0.92577545766E+02  0.16564563569E+03  0.12508765053E+03 0.  0.
          5    1    3    3  502    0 -0.65618594258E+02  0.46739720668E+02  0.10015585688E+03  0.12860431356E+03  0.41800000000E+01 0.  1.
         -5    1    3    3    0  502  0.35977853753E+02  0.16584283692E+01 -0.75783111111E+01  0.37041322123E+02  0.41800000000E+01 0.  1.
        -11    1    1    2    0    0  0.18963069317E+02 -0.40286313841E+02  0.91175687641E+02  0.10146719222E+03  0.00000000000E+00 0.  1.
         11    1    1    2    0    0  0.10677671188E+02 -0.81118351961E+01 -0.10712862302E+02  0.17163331581E+02  0.00000000000E+00 0. -1.
</event>
<event>
 7    1  0.2688177E-009  0.9027579E+02  0.7561462E-02  0.1302185E+00
         -1   -1    0    0    0  501 -0.00000000000E+00  0.00000000000E+00  0.16394852216E+02  0.16394852216E+02  0.00000000000E+00 0.  1.
          1   -1    0    0  501    0  0.00000000000E+00 -0.00000000000E+00 -0.86751807779E+03  0.86751807779E+03  0.00000000000E+00 0. -1.
         25    2    1    2    0    0 -0.21449757576E+02  0.22449717309E+02 -0.62454460562E+03  0.63770496109E+03  0.12509025176E+03 0.  0.
          5    1    3    3  502    0  0.29600985068E+02 -0.52440714776E+01 -0.49198289620E+03  0.49291820939E+03  0.41800000000E+01 0.  1.
         -5    1    3    3    0  502 -0.51050742644E+02  0.27693788786E+02 -0.13256170943E+03  0.14478675170E+03  0.41800000000E+01 0.  1.
        -11    1    1    2    0    0  0.54273980870E+02 -0.42515006895E+01 -0.96211095153E+02  0.11054553400E+03  0.00000000000E+00 0. -1.
         11    1    1    2    0    0 -0.32824223294E+02 -0.18198216619E+02 -0.13036752480E+03  0.13566243490E+03  0.00000000000E+00 0.  1.
</event>
<event>
 7    1  0.2688177E-009  0.2700755E+03  0.7561462E-02  0.1101236E+00
          2   -1    0    0  501    0  0.00000000000E+00  0.00000000000E+00  0.18291341873E+04  0.18291341873E+04  0.00000000000E+00 0.  1.
         -2   -1    0    0    0  501 -0.00000000000E+00 -0.00000000000E+00 -0.44789021692E+02  0.44789021692E+02  0.00000000000E+00 0. -1.
         25    2    1    2    0    0  0.75967697694E+02 -0.24275432278E+03  0.11504746131E+04  0.11848796434E+04  0.12508869552E+03 0.  0.
          5    1    3    3  502    0 -0.24864042165E+02 -0.59216953385E+02  0.15918830452E+03  0.17170689228E+03  0.41800000000E+01 0. -1.
         -5    1    3    3    0  502  0.10083173986E+03 -0.18353736939E+03  0.99128630857E+03  0.10131727512E+04  0.41800000000E+01 0. -1.
        -11    1    1    2    0    0 -0.24321299862E+02  0.74575124133E+01  0.32892420733E+02  0.41581864557E+02  0.00000000000E+00 0.  1.
         11    1    1    2    0    0 -0.51646397831E+02  0.23529681036E+03  0.60097813179E+03  0.64746170101E+03  0.00000000000E+00 0. -1.
</event>
<event>
 7    1  0.2688177E-009  0.1343415E+03  0.7561462E-02  0.1221152E+00
          1   -1    0    0  501    0  0.00000000000E+00  0.00000000000E+00  0.26409137893E+03  0.26409137893E+03  0.00000000000E+00 0. -1.
         -1   -1    0    0    0  501 -0.00000000000E+00 -0.00000000000E+00 -0.96199036167E+02  0.96199036167E+02  0.00000000000E+00 0.  1.
         25    2    1    2    0    0 -0.31761498540E+02 -0.92092762228E+02  0.17833402103E+02  0.15954751629E+03  0.12509000791E+03 0.  0.
          5    1    3    3  502    0  0.45512845650E+02 -0.27746247376E+02  0.24227699215E+02  0.58700316625E+02  0.41800000000E+01 0.  1.
         -5    1    3    3    0  502 -0.77274344191E+02 -0.64346514852E+02 -0.63942971124E+01  0.10084719966E+03  0.41800000000E+01 0.  1.
        -11    1    1    2    0    0  0.44785557022E+02  0.37395985529E+02  0.12739630424E+03  0.14012146226E+03  0.00000000000E+00 0. -1.
         11    1    1    2    0    0 -0.13024058482E+02  0.54696776699E+02  0.22662636426E+02  0.60621436558E+02  0.00000000000E+00 0.  1.
</event>
<event>
 7    1  0.2688177E-009  0.1477122E+03  0.7561462E-02  0.1203313E+00
          1   -1    0    0  501    0  0.00000000000E+00  0.00000000000E+00  0.11049320371E+03  0.11049320371E+03  0.00000000000E+00 0. -1.
         -1   -1    0    0    0  501 -0.00000000000E+00 -0.00000000000E+00 -0.24263725213E+03  0.24263725213E+03  0.00000000000E+00 0.  1.
         25    2    1    2    0    0  0.82264862520E+02  0.86984736657E+02 -0.53152235432E+02  0.18111505912E+03  0.12507458771E+03 0.  0.
          5    1    3    3  502    0  0.10489752985E+03  0.30179115177E+02 -0.48894617871E+02  0.11967634193E+03  0.41800000000E+01 0.  1.
         -5    1    3    3    0  502 -0.22632667330E+02  0.56805621480E+02 -0.42576175611E+01  0.61438717186E+02  0.41800000000E+01 0.  1.
        -11    1    1    2    0    0 -0.16265147788E+02 -0.71580519380E+00 -0.59465930234E+02  0.61654393746E+02  0.00000000000E+00 0.  1.
         11    1    1    2    0    0 -0.65999714731E+02 -0.86268931463E+02 -0.19525882755E+02  0.11036100298E+03  0.00000000000E+00 0. -1.
</event>
<event>
 7    1  0.2785429E-009  0.1088829E+03  0.7561462E-02  0.1262653E+00
         -2   -1    0    0    0  501 -0.00000000000E+00  0.00000000000E+00  0.86921637869E+02  0.86921637869E+02  0.00000000000E+00 0. -1.
          2   -1    0    0  501    0  0.00000000000E+00 -0.00000000000E+00 -0.19967926018E+03  0.19967926018E+03  0.00000000000E+00 0.  1.
         25    2    1    2    0    0 -0.82246661193E+01 -0.71046847884E+02 -0.84902486150E+02  0.16725047847E+03  0.12509592587E+03 0.  0.
          5    1    3    3  502    0  0.18039264685E+02 -0.10067456851E+03 -0.72895946199E+02  0.12566652373E+03  0.41800000000E+01 0.  1.
         -5    1    3    3    0  502 -0.26263930805E+02  0.29627720622E+02 -0.12006539951E+02  0.41583954744E+02  0.41800000000E+01 0.  1.
        -11    1    1    2    0    0 -0.81884691455E+01  0.13902644468E+02 -0.52549951747E+02  0.54971192263E+02  0.00000000000E+00 0.  1.
         11    1    1    2    0    0  0.16413135265E+02  0.57144203416E+02  0.24694815583E+02  0.64379227317E+02  0.00000000000E+00 0. -1.
</event>
<event>
 7    1  0.2688177E-009  0.1569188E+03  0.7561462E-02  0.1192220E+00
         -2   -1    0    0    0  501 -0.00000000000E+00  0.00000000000E+00  0.80491998035E+03  0.80491998035E+03  0.00000000000E+00 0.  1.
          2   -1    0    0  501    0  0.00000000000E+00 -0.00000000000E+00 -0.39191539232E+02  0.39191539232E+02  0.00000000000E+00 0. -1.
         25    2    1    2    0    0  0.54451649567E+02 -0.12194584109E+03  0.30181837648E+03  0.35295631567E+03  0.12509219834E+03 0.  0.
          5    1    3    3  502    0  0.21711777108E+02  0.38789997773E+01 -0.19248223070E+01  0.22530540281E+02  0.41800000000E+01 0. -1.
         -5    1    3    3    0  502  0.32739872460E+02 -0.12582484087E+03  0.30374319879E+03  0.33042577539E+03  0.41800000000E+01 0. -1.
        -11    1    1    2    0    0 -0.21902147809E+00  0.10426574005E+03  0.30107628677E+03  0.31861940144E+03  0.00000000000E+00 0. -1.
         11    1    1    2    0    0 -0.54232628089E+02  0.17680101041E+02  0.16283377786E+03  0.17253580247E+03  0.00000000000E+00 0.  1.
</event>
<event>
 7    1  0.2688177E-009  0.1329882E+03  0.7561462E-02  0.1223088E+00
          2   -1    0    0  501    0  0.00000000000E+00  0.00000000000E+00  0.78616624358E+03  0.78616624358E+03  0.00000000000E+00 0. -1.
         -2   -1    0    0    0  501 -0.00000000000E+00 -0.00000000000E+00 -0.47361563290E+02  0.47361563290E+02  0.00000000000E+00 0.  1.
         25    2    1    2    0    0 -0.84157576676E+02  0.77307951790E+02  0.14783060067E+03  0.22485577937E+03  0.12508884003E+03 0.  0.
          5    1    3    3  502    0 -0.69707192493E+02  0.38009771005E+02  0.92682805973E+01  0.80045042335E+02  0.41800000000E+01 0. -1.
         -5    1    3    3    0  502 -0.14450384183E+02  0.39298180785E+02  0.13856232008E+03  0.14481073704E+03  0.41800000000E+01 0. -1.
        -11    1    1    2    0    0  0.93481756973E+02 -0.33035722616E+02  0.36585610747E+03  0.37905262066E+03  0.00000000000E+00 0. -1.
         11    1    1    2    0    0 -0.93241802968E+01 -0.44272229174E+02  0.22511797215E+03  0.22961940684E+03  0.00000000000E+00 0.  1.
</event>
<event>
 7    1  0.2688177E-009  0.9183801E+02  0.7561462E-02  0.1298461E+00
          2   -1    0    0  501    0  0.00000000000E+00  0.00000000000E+00  0.26949223427E+03  0.26949223427E+03  0.00000000000E+00 0. -1.
         -2   -1    0    0    0  501 -0.00000000000E+00 -0.00000000000E+00 -0.70079442155E+02  0.70079442155E+02  0.00000000000E+00 0.  1.
         25    2    1    2    0    0  0.64916229919E+02 -0.15840998412E+02  0.17370914864E+03  0.22424207013E+03  0.12507830971E+03 0.  0.
          5    1    3    3  502    0  0.80097795930E+02 -0.26075806779E+02  0.18430020153E+03  0.20268113207E+03  0.41800000000E+01 0. -1.
         -5    1    3    3    0  502 -0.15181566011E+02  0.10234808367E+02 -0.10591052896E+02  0.21560938066E+02  0.41800000000E+01 0. -1.
        -11    1    1    2    0    0 -0.26443584392E+02  0.29605542369E+02  0.52979768777E+02  0.66201262784E+02  0.00000000000E+00 0. -1.
         11    1    1    2    0    0 -0.38472645527E+02 -0.13764543957E+02 -0.27276125299E+02  0.49128343505E+02  0.00000000000E+00 0.  1.
</event>
<event>
 7    1  0.2688177E-009  0.1240523E+03  0.7561462E-02  0.1236558E+00
         -2   -1    0    0    0  501 -0.00000000000E+00  0.00000000000E+00  0.17539447856E+03  0.17539447856E+03  0.00000000000E+00 0.  1.
          2   -1    0    0  501    0  0.00000000000E+00 -0.00000000000E+00 -0.94990426626E+02  0.94990426626E+02  0.00000000000E+00 0. -1.
         25    2    1    2    0    0 -0.30754509250E+02  0.57308002044E+02  0.16655577096E+02  0.14197019880E+03  0.12509229457E+03 0.  0.
          5    1    3    3  502    0 -0.16910332220E+02 -0.39465520787E+02  0.55157009969E+01  0.43490022123E+02  0.41800000000E+01 0. -1.
         -5    1    3    3    0  502 -0.13844177030E+02  0.96773522831E+02  0.11139876099E+02  0.98480176677E+02  0.41800000000E+01 0. -1.
        -11    1    1    2    0    0 -0.28874006932E+02 -0.86103293248E+01  0.35127755109E+02  0.46279641597E+02  0.00000000000E+00 0.  1.
         11    1    1    2    0    0  0.59628516182E+02 -0.48697672719E+02  0.28620719731E+02  0.82135064791E+02  0.00000000000E+00 0. -1.
</event>
<event>
 7    1  0.2688177E-009  0.9075781E+02  0.7561462E-02  0.1301027E+00
         -2   -1    0    0    0  501 -0.00000000000E+00  0.00000000000E+00  0.14339741661E+03  0.14339741661E+03  0.00000000000E+00 0.  1.
          2   -1    0    0  501    0  0.00000000000E+00 -0.00000000000E+00 -0.17823701707E+03  0.17823701707E+03  0.00000000000E+00 0. -1.
         25    2    1    2    0    0 -0.73798895865E+02 -0.67015755630E+01  0.74699650577E+02  0.16345828761E+03  0.12508951133E+03 0.  0.
          5    1    3    3  502    0 -0.76244863055E+02  0.92178408678E+01  0.10424572439E+03  0.12954879848E+03  0.41800000000E+01 0. -1.
         -5    1    3    3    0  502  0.24459671902E+01 -0.15919416431E+02 -0.29546073818E+02  0.33909489130E+02  0.41800000000E+01 0. -1.
        -11    1    1    2    0    0  0.12309074506E+02  0.21447654232E+02 -0.87947740029E+02  0.91358197023E+02  0.00000000000E+00 0. -1.
         11    1    1    2    0    0  0.61489821359E+02 -0.14746078669E+02 -0.21591511010E+02  0.66817949045E+02  0.00000000000E+00 0.  1.
</event>
<event>
 7    1  0.2688177E-009  0.1036208E+03  0.7561462E-02  0.1272861E+00
         -1   -1    0    0    0  501 -0.00000000000E+00  0.00000000000E+00  0.33290156596E+02  0.33290156596E+02  0.00000000000E+00 0.  1.
          1   -1    0    0  501    0  0.00000000000E+00 -0.00000000000E+00 -0.57527219482E+03  0.57527219482E+03  0.00000000000E+00 0. -1.
         25    2    1    2    0    0 -0.40652166760E+02  0.89797569609E+00 -0.13179218365E+03  0.18619959432E+03  0.12509078396E+03 0.  0.
          5    1    3    3  502    0  0.34862750926E+02  0.33917568707E+00 -0.96592795685E+02  0.10277726899E+03  0.41800000000E+01 0. -1.
         -5    1    3    3    0  502 -0.75514917685E+02  0.55880000902E+00 -0.35199387962E+02  0.83422325329E+02  0.41800000000E+01 0. -1.
        -11    1    1    2    0    0 -0.19512410863E+02  0.24387659099E+02 -0.81995093957E+02  0.87742165046E+02  0.00000000000E+00 0. -1.
         11    1    1    2    0    0  0.60164577622E+02 -0.25285634795E+02 -0.32819476062E+03  0.33462059206E+03  0.00000000000E+00 0.  1.
</event>
<event>
 7    1  0.2688177E-009  0.1003971E+03  0.7561462E-02  0.1279463E+00
         -2   -1    0    0    0  501 -0.00000000000E+00  0.00000000000E+00  0.39010444529E+02  0.39010444529E+02  0.00000000000E+00 0.  1.
          2   -1    0    0  501    0  0.00000000000E+00 -0.00000000000E+00 -0.45625389968E+03  0.45625389968E+03  0.00000000000E+00 0. -1.
         25    2    1    2    0    0 -0.68846079536E+02 -0.19786610736E+01 -0.16527075450E+03  0.21841718494E+03  0.12509175279E+03 0.  0.
          5    1    3    3  502    0  0.37266391936E+01 -0.33844648061E+02 -0.12459376624E+03  0.12923013204E+03  0.41800000000E+01 0. -1.
         -5    1    3    3    0  502 -0.72572718729E+02  0.31865986988E+02 -0.40676988268E+02  0.89187052900E+02  0.41800000000E+01 0. -1.
        -11    1    1    2    0    0  0.27851089466E+02 -0.25503816734E+02 -0.26745585786E+02  0.46275849117E+02  0.00000000000E+00 0.  1.
         11    1    1    2    0    0  0.40994990070E+02  0.27482477808E+02 -0.22522711486E+03  0.23057131016E+03  0.00000000000E+00 0. -1.
</event>
<event>
 7    1  0.2688177E-009  0.8192927E+02  0.7561462E-02  0.1323664E+00
          1   -1    0    0  501    0  0.00000000000E+00  0.00000000000E+00  0.41508850389E+02  0.41508850389E+02  0.00000000000E+00 0. -1.
         -1   -1    0    0    0  501 -0.00000000000E+00 -0.00000000000E+00 -0.30100493416E+03  0.30100493416E+03  0.00000000000E+00 0.  1.
         25    2    1    2    0    0 -0.24705308791E+02 -0.13330530698E+02 -0.18524979158E+03  0.22528457863E+03  0.12509037037E+03 0.  0.
          5    1    3    3  502    0 -0.38677371869E+02  0.18834046227E+02 -0.72630647727E+01  0.43827900953E+02  0.41800000000E+01 0.  1.
         -5    1    3    3    0  502  0.13972063079E+02 -0.32164576926E+02 -0.17798672681E+03  0.18145667768E+03  0.41800000000E+01 0.  1.
        -11    1    1    2    0    0  0.50138159521E+02  0.26466974549E+02 -0.66869121843E+02  0.87668781433E+02  0.00000000000E+00 0.  1.
         11    1    1    2    0    0 -0.25432850731E+02 -0.13136443850E+02 -0.73771703492E+01  0.29560424484E+02  0.00000000000E+00 0. -1.
</event>
<event>
 7    1  0.2688177E-009  0.5991641E+02  0.7561462E-02  0.1398183E+00
         -1   -1    0    0    0  501 -0.00000000000E+00  0.00000000000E+00  0.32123131914E+02  0.32123131914E+02  0.00000000000E+00 0.  1.
          1   -1    0    0  501    0  0.00000000000E+00 -0.00000000000E+00 -0.17908765835E+04  0.17908765835E+04  0.00000000000E+00 0. -1.
         25    2    1    2    0    0  0.26811422182E+02 -0.18480363846E+02 -0.17038316207E+04  0.17087276532E+04  0.12509046702E+03 0.  0.
          5    1    3    3  502    0 -0.55000941917E+01 -0.40591535592E+02 -0.15274308160E+04  0.15279856982E+04  0.41800000000E+01 0. -1.
         -5    1    3    3    0  502  0.32311516374E+02  0.22111171746E+02 -0.17640080468E+03  0.18074195500E+03  0.41800000000E+01 0. -1.
        -11    1    1    2    0    0 -0.11255160256E+02  0.20706422812E+02 -0.80705847964E+02  0.84076563166E+02  0.00000000000E+00 0. -1.
         11    1    1    2    0    0 -0.15556261926E+02 -0.22260589663E+01  0.25784017095E+02  0.30195499022E+02  0.00000000000E+00 0.  1.
</event>
<event>
 7    1  0.2688177E-009  0.1436717E+03  0.7561462E-02  0.1208472E+00
          2   -1    0    0  501    0  0.00000000000E+00  0.00000000000E+00  0.13149309438E+03  0.13149309438E+03  0.00000000000E+00 0. -1.
         -2   -1    0    0    0  501 -0.00000000000E+00 -0.00000000000E+00 -0.20026446916E+03  0.20026446916E+03  0.00000000000E+00 0.  1.
         25    2    1    2    0    0 -0.83856802054E+02 -0.76243318695E+02 -0.79942133400E+02  0.18677019074E+03  0.12508937829E+03 0.  0.
          5    1    3    3  502    0 -0.12262201402E+02  0.32533109541E+02 -0.33468827313E+02  0.48439649063E+02  0.41800000000E+01 0. -1.
         -5    1    3    3    0  502 -0.71594600651E+02 -0.10877642824E+03 -0.46473306087E+02  0.13833054168E+03  0.41800000000E+01 0. -1.
        -11    1    1    2    0    0  0.52284087178E+01  0.30756585177E+02  0.39036729641E+02  0.49971692492E+02  0.00000000000E+00 0. -1.
         11    1    1    2    0    0  0.78628393336E+02  0.45486733518E+02 -0.27865971022E+02  0.95015680315E+02  0.00000000000E+00 0.  1.
</event>
<event>
 7    1  0.3622848E-009  0.1761922E+03  0.7561462E-02  0.1171540E+00
         -2   -1    0    0    0  501 -0.00000000000E+00  0.00000000000E+00  0.77475745102E+02  0.77475745102E+02  0.00000000000E+00 0.  1.
          2   -1    0    0  501    0  0.00000000000E+00 -0.00000000000E+00 -0.46112912316E+03  0.46112912316E+03  0.00000000000E+00 0. -1.
         25    2    1    2    0    0  0.10800755731E+03  0.11043296674E+03 -0.19708175886E+03  0.27991066346E+03  0.12509071613E+03 0.  0.
          5    1    3    3  502    0  0.13498942610E+02  0.10042127722E+03 -0.12250637232E+03  0.15903439260E+03  0.41800000000E+01 0. -1.
         -5    1    3    3    0  502  0.94508614700E+02  0.10011689526E+02 -0.74575386543E+02  0.12087627086E+03  0.41800000000E+01 0. -1.
        -11    1    1    2    0    0 -0.98274271359E+02 -0.90207706328E+02 -0.19365796816E+03  0.23515669525E+03  0.00000000000E+00 0. -1.
         11    1    1    2    0    0 -0.97332859505E+01 -0.20225260415E+02  0.70863489609E+01  0.23537509551E+02  0.00000000000E+00 0.  1.
</event>
<event>
 7    1  0.2688177E-009  0.8660121E+02  0.7561462E-02  0.1311298E+00
         -1   -1    0    0    0  501 -0.00000000000E+00  0.00000000000E+00  0.20587754389E+03  0.20587754389E+03  0.00000000000E+00 0.  1.
          1   -1    0    0  501    0  0.00000000000E+00 -0.00000000000E+00 -0.86723919248E+02  0.86723919248E+02  0.00000000000E+00 0. -1.
         25    2    1    2    0    0  0.10484881313E+02 -0.27421581292E+02  0.14380286872E+03  0.19284377297E+03  0.12509028684E+03 0.  0.
          5    1    3    3  502    0  0.10202610379E+02 -0.64446512023E+02  0.27878751688E+02  0.71078431090E+02  0.41800000000E+01 0. -1.
         -5    1    3    3    0  502  0.28227093425E+00  0.37024930731E+02  0.11592411703E+03  0.12176534188E+03  0.41800000000E+01 0. -1.
        -11    1    1    2    0    0 -0.31773647966E+02  0.35632172704E+02  0.18296283562E+02  0.51127002932E+02  0.00000000000E+00 0.  1.
         11    1    1    2    0    0  0.21288766653E+02 -0.82105914112E+01 -0.42945527642E+02  0.48630687240E+02  0.00000000000E+00 0. -1.
</event>
<event>
 7    1  0.2688177E-009  0.1529154E+03  0.7561462E-02  0.1196936E+00
          2   -1    0    0  501    0  0.00000000000E+00  0.00000000000E+00  0.30882733451E+03  0.30882733451E+03  0.00000000000E+00 0.  1.
         -2   -1    0    0    0  501 -0.00000000000E+00 -0.00000000000E+00 -0.91139587722E+02  0.91139587722E+02  0.00000000000E+00 0. -1.
         25    2    1    2    0    0  0.74191186276E+02  0.10351466467E+03  0.12959054300E+03  0.22059141724E+03  0.12508895475E+03 0.  0.
          5    1    3    3  502    0 -0.27855189897E+02  0.40703362222E+02  0.85753546472E+01  0.50236285768E+02  0.41800000000E+01 0. -1.
         -5    1    3    3    0  502  0.10204637617E+03  0.62811302451E+02  0.12101518835E+03  0.17035513147E+03  0.41800000000E+01 0. -1.
        -11    1    1    2    0    0 -0.44027551096E+02 -0.95592745346E+02  0.10077361802E+03  0.14571108505E+03  0.00000000000E+00 0.  1.
         11    1    1    2    0    0 -0.30163635180E+02 -0.79219193276E+01 -0.12676414221E+02  0.33664419951E+02  0.00000000000E+00 0. -1.
</event>
<event>
 7    1  0.2688177E-009  0.1090315E+03  0.7561462E-02  0.1262374E+00
          4   -1    0    0  501    0  0.00000000000E+00  0.00000000000E+00  0.53630865961E+03  0.53630865961E+03  0.00000000000E+00 0.  1.
         -4   -1    0    0    0  501 -0.00000000000E+00 -0.00000000000E+00 -0.24574146980E+02  0.24574146980E+02  0.00000000000E+00 0. -1.
         25    2    1    2    0    0  0.38235001989E+02 -0.45833279552E+01  0.24502009656E+03  0.27778629339E+03  0.12508978698E+03 0.  0.
          5    1    3    3  502    0 -0.35061614549E+02 -0.33104458634E+02  0.62915973521E+02  0.79379557320E+02  0.41800000000E+01 0. -1.
         -5    1    3    3    0  502  0.73296616537E+02  0.28521130679E+02  0.18210412304E+03  0.19840673607E+03  0.41800000000E+01 0. -1.
        -11    1    1    2    0    0 -0.61503185443E+01  0.41520867177E+02  0.83423102241E+02  0.93387487475E+02  0.00000000000E+00 0. -1.
         11    1    1    2    0    0 -0.32084683444E+02 -0.36937539222E+02  0.18329131383E+03  0.18970902573E+03  0.00000000000E+00 0.  1.
</event>
<event>
 7    1  0.2688177E-009  0.9116729E+02  0.7561462E-02  0.1300049E+00
          2   -1    0    0  501    0  0.00000000000E+00  0.00000000000E+00  0.28294952330E+03  0.28294952330E+03  0.00000000000E+00 0. -1.
         -2   -1    0    0    0  501 -0.00000000000E+00 -0.00000000000E+00 -0.45163089127E+02  0.45163089127E+02  0.00000000000E+00 0.  1.
         25    2    1    2    0    0  0.30218114739E+02  0.11387826936E+02  0.14365013302E+03  0.19319866959E+03  0.12509016009E+03 0.  0.
          5    1    3    3  502    0 -0.24614565644E+02  0.33478286048E+02  0.12387189815E+03  0.13072257658E+03  0.41800000000E+01 0. -1.
         -5    1    3    3    0  502  0.54832680384E+02 -0.22090459112E+02  0.19778234877E+02  0.62476093001E+02  0.41800000000E+01 0. -1.
        -11    1    1    2    0    0  0.62074574533E+01  0.27402530671E+02  0.15671018263E+01  0.28140487262E+02  0.00000000000E+00 0.  1.
         11    1    1    2    0    0 -0.36425572192E+02 -0.38790357607E+02  0.92569199323E+02  0.10677345558E+03  0.00000000000E+00 0. -1.
</event>
<event>
 7    1  0.2688177E-009  0.7869261E+02  0.7561462E-02  0.1332803E+00
          2   -1    0    0  501    0  0.00000000000E+00  0.00000000000E+00  0.95435226112E+02  0.95435226112E+02  0.00000000000E+00 0. -1.
         -2   -1    0    0    0  501 -0.00000000000E+00 -0.00000000000E+00 -0.11897565003E+03  0.11897565003E+03  0.00000000000E+00 0.  1.
         25    2    1    2    0    0 -0.27509257115E+01  0.26817971644E+02 -0.38304343910E+02  0.13356574266E+03  0.12508322691E+03 0.  0.
          5    1    3    3  502    0 -0.51818598000E+02  0.22357257449E+02  0.17280682197E+02  0.59170165087E+02  0.41800000000E+01 0.  1.
         -5    1    3    3    0  502  0.49067672288E+02  0.44607141952E+01 -0.55585026106E+02  0.74395577571E+02  0.41800000000E+01 0.  1.
        -11    1    1    2    0    0 -0.24917485094E+01  0.11960066541E+02 -0.23266130100E+02  0.26278599889E+02  0.00000000000E+00 0.  1.
         11    1    1    2    0    0  0.52426742209E+01 -0.38778038185E+02  0.38030050093E+02  0.54566533594E+02  0.00000000000E+00 0. -1.
</event>
<event>
 7    1  0.2688177E-009  0.1474632E+03  0.7561462E-02  0.1203625E+00
          1   -1    0    0  501    0  0.00000000000E+00  0.00000000000E+00  0.10810503594E+04  0.10810503594E+04  0.00000000000E+00 0. -1.
         -1   -1    0    0    0  501 -0.00000000000E+00 -0.00000000000E+00 -0.31028921012E+02  0.31028921012E+02  0.00000000000E+00 0.  1.
         25    2    1    2    0    0  0.11705738115E+03 -0.65977637619E+01  0.82436641269E+03  0.84200516666E+03  0.12508699909E+03 0.  0.
          5    1    3    3  502    0 -0.21087915526E+02 -0.17653973115E+02  0.76635841350E+02  0.81528446124E+02  0.41800000000E+01 0.  1.
         -5    1    3    3    0  502  0.13814529668E+03  0.11056209354E+02  0.74773057135E+03  0.76047672054E+03  0.41800000000E+01 0.  1.
        -11    1    1    2    0    0 -0.19020945873E+02  0.22149891291E+02  0.71195050478E+01  0.30051645849E+02  0.00000000000E+00 0.  1.
         11    1    1    2    0    0 -0.98036435276E+02 -0.15552127529E+02  0.21853552064E+03  0.24002246789E+03  0.00000000000E+00 0. -1.
</event>
<event>
 7    1  0.2688177E-009  0.1279722E+03  0.7561462E-02  0.1230496E+00
         -2   -1    0    0    0  501 -0.00000000000E+00  0.00000000000E+00  0.15653636479E+02  0.15653636479E+02  0.00000000000E+00 0.  1.
          2   -1    0    0  501    0  0.00000000000E+00 -0.00000000000E+00 -0.11743597545E+04  0.11743597545E+04  0.00000000000E+00 0. -1.
         25    2    1    2    0    0 -0.38135205037E+02  0.68466659322E+02 -0.51809185461E+03  0.53871043601E+03  0.12509111379E+03 0.  0.
          5    1    3    3  502    0  0.38003342935E+02  0.44408205559E+02 -0.13194531848E+03  0.14437237362E+03  0.41800000000E+01 0.  1.
         -5    1    3    3    0  502 -0.76138547973E+02  0.24058453762E+02 -0.38614653613E+03  0.39433806239E+03  0.41800000000E+01 0.  1.
        -11    1    1    2    0    0  0.28204389779E+01  0.21007442430E+02 -0.10458235422E+03  0.10670865161E+03  0.00000000000E+00 0.  1.
         11    1    1    2    0    0  0.35314766060E+02 -0.89474101752E+02 -0.53603190920E+03  0.54459430337E+03  0.00000000000E+00 0. -1.
</event>
<event>
 7    1  0.2688177E-009  0.1033281E+03  0.7561462E-02  0.1273449E+00
         -1   -1    0    0    0  501 -0.00000000000E+00  0.00000000000E+00  0.38917636186E+02  0.38917636186E+02  0.00000000000E+00 0.  1.
          1   -1    0    0  501    0  0.00000000000E+00 -0.00000000000E+00 -0.54165626227E+03  0.54165626227E+03  0.00000000000E+00 0. -1.
         25    2    1    2    0    0 -0.52834268739E+02  0.29986129717E+02 -0.43022017672E+03  0.45213621739E+03  0.12508849143E+03 0.  0.
          5    1    3    3  502    0  0.21541268873E+02  0.55938585249E+02 -0.19400126589E+03  0.20309385798E+03  0.41800000000E+01 0. -1.
         -5    1    3    3    0  502 -0.74375537612E+02 -0.25952455532E+02 -0.23621891083E+03  0.24904235941E+03  0.41800000000E+01 0. -1.
        -11    1    1    2    0    0  0.11891968204E+02  0.58682434008E+01  0.18277011929E+02  0.22581061831E+02  0.00000000000E+00 0.  1.
         11    1    1    2    0    0  0.40942300535E+02 -0.35854373118E+02 -0.90795461290E+02  0.10585661923E+03  0.00000000000E+00 0. -1.
</event>
<event>
 7    1  0.2688177E-009  0.1454216E+03  0.7561462E-02  0.1206214E+00
         -2   -1    0    0    0  501 -0.00000000000E+00  0.00000000000E+00  0.25264554890E+03  0.25264554890E+03  0.00000000000E+00 0.  1.
          2   -1    0    0  501    0  0.00000000000E+00 -0.00000000000E+00 -0.10043420154E+03  0.10043420154E+03  0.00000000000E+00 0. -1.
         25    2    1    2    0    0 -0.92335402840E+02  0.64151593130E+02  0.11668844981E+03  0.20470289153E+03  0.12508327611E+03 0.  0.
          5    1    3    3  502    0  0.14315441416E+02  0.38842459985E+02  0.77971642589E+02  0.88378266609E+02  0.41800000000E+01 0. -1.
         -5    1    3    3    0  502 -0.10665084426E+03  0.25309133145E+02  0.38716807218E+02  0.11632462492E+03  0.41800000000E+01 0. -1.
        -11    1    1    2    0    0  0.84559971282E+01  0.19393368938E+02  0.19752000122E+02  0.28943879405E+02  0.00000000000E+00 0.  1.
         11    1    1    2    0    0  0.83879405711E+02 -0.83544962068E+02  0.15770897431E+02  0.11943297951E+03  0.00000000000E+00 0. -1.
</event>
<event>
 7    1  0.2688177E-009  0.8872492E+02  0.7561462E-02  0.1305969E+00
         -2   -1    0    0    0  501 -0.00000000000E+00  0.00000000000E+00  0.46333296531E+02  0.46333296531E+02  0.00000000000E+00 0.  1.
          2   -1    0    0  501    0  0.00000000000E+00 -0.00000000000E+00 -0.37838607190E+03  0.37838607190E+03  0.00000000000E+00 0. -1.
         25    2    1    2    0    0  0.26979340899E+02  0.24185427915E+02 -0.76568495605E+02  0.15107551311E+03  0.12509299094E+03 0.  0.
          5    1    3    3  502    0  0.14071237093E+02 -0.39543232342E+02 -0.74825448805E+02  0.85895210148E+02  0.41800000000E+01 0. -1.
         -5    1    3    3    0  502  0.12908103807E+02  0.63728660257E+02 -0.17430467995E+01  0.65180302962E+02  0.41800000000E+01 0. -1.
        -11    1    1    2    0    0 -0.22694828282E+02  0.17218868461E+02 -0.20740174087E+02  0.35237756498E+02  0.00000000000E+00 0.  1.
         11    1    1    2    0    0 -0.42845126176E+01 -0.41404296376E+02 -0.23474410568E+03  0.23840609883E+03  0.00000000000E+00 0. -1.
</event>
<event>
 7    1  0.2688177E-009  0.1104410E+03  0.7561462E-02  0.1259755E+00
         -2   -1    0    0    0  501 -0.00000000000E+00  0.00000000000E+00  0.44090430958E+02  0.44090430958E+02  0.00000000000E+00 0.  1.
          2   -1    0    0  501    0  0.00000000000E+00 -0.00000000000E+00 -0.45935559969E+03  0.45935559969E+03  0.00000000000E+00 0. -1.
         25    2    1    2    0    0  0.58890316321E+02 -0.19282622755E+02 -0.34938609159E+03  0.37624192894E+03  0.12508980456E+03 0.  0.
          5    1    3    3  502    0  0.66835041621E+02 -0.60678018371E+02 -0.17707292995E+03  0.19879899302E+03  0.41800000000E+01 0.  1.
         -5    1    3    3    0  502 -0.79447252995E+01  0.41395395616E+02 -0.17231316163E+03  0.17744293593E+03  0.41800000000E+01 0.  1.
        -11    1    1    2    0    0  0.11523855574E+02  0.13137271457E+02  0.12632617255E+02  0.21563166913E+02  0.00000000000E+00 0.  1.
         11    1    1    2    0    0 -0.70414171895E+02  0.61453512980E+01 -0.78511694404E+02  0.10564093480E+03  0.00000000000E+00 0. -1.
</event>
<event>
 7    1  0.2688177E-009  0.1642592E+03  0.7561462E-02  0.1183970E+00
         -1   -1    0    0    0  501 -0.00000000000E+00  0.00000000000E+00  0.51435076350E+02  0.51435076350E+02  0.00000000000E+00 0.  1.
          1   -1    0    0  501    0  0.00000000000E+00 -0.00000000000E+00 -0.64989826181E+03  0.64989826181E+03  0.00000000000E+00 0. -1.
         25    2    1    2    0    0 -0.12256000200E+03 -0.66543290656E+02 -0.40007041493E+03  0.44176079608E+03  0.12508916991E+03 0.  0.
          5    1    3    3  502    0 -0.42949691130E+02  0.35928269560E+02 -0.97518147006E+02  0.11252900923E+03  0.41800000000E+01 0. -1.
         -5    1    3    3    0  502 -0.79610310875E+02 -0.10247156022E+03 -0.30255226792E+03  0.32923178685E+03  0.41800000000E+01 0. -1.
        -11    1    1    2    0    0  0.39281545058E+02  0.37589697123E+02 -0.14878259071E+03  0.15840544312E+03  0.00000000000E+00 0. -1.
         11    1    1    2    0    0  0.83278456946E+02  0.28953593534E+02 -0.49610179824E+02  0.10116709896E+03  0.00000000000E+00 0.  1.
</event>
<event>
 7    1  0.2688177E-009  0.1938391E+03  0.7561462E-02  0.1155044E+00
         -2   -1    0    0    0  501 -0.00000000000E+00  0.00000000000E+00  0.16589423562E+03  0.16589423562E+03  0.00000000000E+00 0.  1.
          2   -1    0    0  501    0  0.00000000000E+00 -0.00000000000E+00 -0.25343610379E+03  0.25343610379E+03  0.00000000000E+00 0. -1.
         25    2    1    2    0    0 -0.24466143955E+02  0.17111982387E+03 -0.50507213733E+02  0.21927134629E+03  0.12509339849E+03 0.  0.
          5    1    3    3  502    0  0.41070304735E+02  0.10164620824E+03  0.29352401679E+01  0.10974884790E+03  0.41800000000E+01 0. -1.
         -5    1    3    3    0  502 -0.65536448690E+02  0.69473615633E+02 -0.53442453901E+02  0.10952249840E+03  0.41800000000E+01 0. -1.
        -11    1    1    2    0    0  0.38286073929E+02 -0.65647171927E+02  0.21053026115E+02  0.78858129242E+02  0.00000000000E+00 0.  1.
         11    1    1    2    0    0 -0.13819929974E+02 -0.10547265194E+03 -0.58087680545E+02  0.12120086387E+03  0.00000000000E+00 0. -1.
</event>
<event>
 7    1  0.2688177E-009  0.1126933E+03  0.7561462E-02  0.1255662E+00
          2   -1    0    0  501    0  0.00000000000E+00  0.00000000000E+00  0.38628573929E+03  0.38628573929E+03  0.00000000000E+00 0. -1.
         -2   -1    0    0    0  501 -0.00000000000E+00 -0.00000000000E+00 -0.54015525957E+02  0.54015525957E+02  0.00000000000E+00 0.  1.
         25    2    1    2    0    0 -0.19563052539E+02  0.49064542869E+02  0.29558092263E+03  0.32527551507E+03  0.12508411766E+03 0.  0.
          5    1    3    3  502    0 -0.46691695786E+02  0.80880645276E+02  0.21327139294E+03  0.23286037164E+03  0.41800000000E+01 0. -1.
         -5    1    3    3    0  502  0.27128643247E+02 -0.31816102407E+02  0.82309529689E+02  0.92415143426E+02  0.41800000000E+01 0. -1.
        -11    1    1    2    0    0 -0.23662259880E+02  0.10700587737E+01  0.42417050160E+02  0.48582442432E+02  0.00000000000E+00 0. -1.
         11    1    1    2    0    0  0.43225312419E+02 -0.50134601642E+02 -0.57277594569E+01  0.66443307744E+02  0.00000000000E+00 0.  1.
</event>
<event>
 7    1  0.2688177E-009  0.1682526E+03  0.7561462E-02  0.1179682E+00
         -2   -1    0    0    0  501 -0.00000000000E+00  0.00000000000E+00  0.36961708301E+02  0.36961708301E+02  0.00000000000E+00 0. -1.
          2   -1    0    0  501    0  0.00000000000E+00 -0.00000000000E+00 -0.10147812981E+04  0.10147812981E+04  0.00000000000E+00 0.  1.
         25    2    1    2    0    0 -0.10114200925E+03  0.11744123643E+03 -0.61752572461E+03  0.64885094581E+03  0.12508948507E+03 0.  0.
          5    1    3    3  502    0 -0.35214931130E+02  0.56431044978E+02 -0.47954884033E+03  0.48415815275E+03  0.41800000000E+01 0.  1.
         -5    1    3    3    0  502 -0.65927078124E+02  0.61010191447E+02 -0.13797688428E+03  0.16469279306E+03  0.41800000000E+01 0.  1.
        -11    1    1    2    0    0  0.10018589566E+03 -0.13179351913E+03 -0.32381432982E+03  0.36367906947E+03  0.00000000000E+00 0. -1.
         11    1    1    2    0    0  0.95611359829E+00  0.14352282708E+02 -0.36479535405E+02  0.39212991157E+02  0.00000000000E+00 0.  1.
</event>
<event>
 7    1  0.2688177E-009  0.1150280E+03  0.7561462E-02  0.1251532E+00
         -2   -1    0    0    0  501 -0.00000000000E+00  0.00000000000E+00  0.58529776157E+02  0.58529776157E+02  0.00000000000E+00 0.  1.
          2   -1    0    0  501    0  0.00000000000E+00 -0.00000000000E+00 -0.42359931574E+03  0.42359931574E+03  0.00000000000E+00 0. -1.
         25    2    1    2    0    0 -0.50190527656E+02 -0.43043315727E+02 -0.51834186169E+02  0.15068511435E+03  0.12508958684E+03 0.  0.
          5    1    3    3  502    0 -0.84942851211E+02 -0.20170706980E+02 -0.62597828781E+02  0.10750863203E+03  0.41800000000E+01 0.  1.
         -5    1    3    3    0  502  0.34752323555E+02 -0.22872608747E+02  0.10763642611E+02  0.43176482321E+02  0.41800000000E+01 0.  1.
        -11    1    1    2    0    0  0.43568453071E+02  0.64806036373E+02 -0.28318468665E+03  0.29375431776E+03  0.00000000000E+00 0. -1.
         11    1    1    2    0    0  0.66220745851E+01 -0.21762720646E+02 -0.30050666764E+02  0.37689659784E+02  0.00000000000E+00 0.  1.
</event>
<event>
 7    1  0.2688177E-009  0.1295551E+03  0.7561462E-02  0.1228117E+00
          1   -1    0    0  501    0  0.00000000000E+00  0.00000000000E+00  0.29044017475E+03  0.29044017475E+03  0.00000000000E+00 0. -1.
         -1   -1    0    0    0  501 -0.00000000000E+00 -0.00000000000E+00 -0.63344029270E+02  0.63344029270E+02  0.00000000000E+00 0.  1.
         25    2    1    2    0    0  0.73396455238E+02 -0.37110859329E+02  0.96049633745E+02  0.17786970248E+03  0.12509134021E+03 0.  0.
          5    1    3    3  502    0 -0.34120846076E+02 -0.22205156504E+02  0.22701536923E+02  0.46798859933E+02  0.41800000000E+01 0. -1.
         -5    1    3    3    0  502  0.10751730131E+03 -0.14905702825E+02  0.73348096821E+02  0.13107084255E+03  0.41800000000E+01 0. -1.
        -11    1    1    2    0    0 -0.83548156390E+02  0.14529833920E+02  0.12390670557E+03  0.15014753477E+03  0.00000000000E+00 0. -1.
         11    1    1    2    0    0  0.10151701152E+02  0.22581025409E+02  0.71398061633E+01  0.25766966776E+02  0.00000000000E+00 0.  1.
</event>
<event>
 7    1  0.2688177E-009  0.9101589E+02  0.7561462E-02  0.1300410E+00
          1   -1    0    0  501    0  0.00000000000E+00  0.00000000000E+00  0.79871525852E+02  0.79871525852E+02  0.00000000000E+00 0. -1.
         -1   -1    0    0    0  501 -0.00000000000E+00 -0.00000000000E+00 -0.19843247284E+03  0.19843247284E+03  0.00000000000E+00 0.  1.
         25    2    1    2    0    0  0.18527024073E+02  0.58676908904E+02 -0.95772119173E+02  0.16913701065E+03  0.12509516099E+03 0.  0.
          5    1    3    3  502    0  0.31044546376E+02  0.79141993374E+02 -0.11140551587E+03  0.14019943060E+03  0.41800000000E+01 0.  1.
         -5    1    3    3    0  502 -0.12517522303E+02 -0.20465084470E+02  0.15633396696E+02  0.28937580052E+02  0.41800000000E+01 0.  1.
        -11    1    1    2    0    0 -0.21882210241E+02 -0.10499579861E+02  0.29358547728E+02  0.38091949635E+02  0.00000000000E+00 0. -1.
         11    1    1    2    0    0  0.33551861679E+01 -0.48177329043E+02 -0.52147375539E+02  0.71075038400E+02  0.00000000000E+00 0.  1.
</event>
<event>
 7    1  0.2688177E-009  0.8642808E+02  0.7561462E-02  0.1311740E+00
          1   -1    0    0  501    0  0.00000000000E+00  0.00000000000E+00  0.23998734398E+03  0.23998734398E+03  0.00000000000E+00 0. -1.
         -1   -1    0    0    0  501 -0.00000000000E+00 -0.00000000000E+00 -0.66675083220E+02  0.66675083220E+02  0.00000000000E+00 0.  1.
         25    2    1    2    0    0  0.59164437778E+02 -0.24176223517E+02  0.46877745748E+02  0.14808629467E+03  0.12508839732E+03 0.  0.
          5    1    3    3  502    0  0.23831847968E+02  0.12954224238E+02  0.81563337305E+02  0.86057069992E+02  0.41800000000E+01 0.  1.
         -5    1    3    3    0  502  0.35332589810E+02 -0.37130447755E+02 -0.34685591557E+02  0.62029224683E+02  0.41800000000E+01 0.  1.
        -11    1    1    2    0    0 -0.45704644066E+02 -0.18447728131E+02  0.81164534302E+02  0.94957436733E+02  0.00000000000E+00 0.  1.
         11    1    1    2    0    0 -0.13459793712E+02  0.42623951648E+02  0.45269980709E+02  0.63618695792E+02  0.00000000000E+00 0. -1.
</event>
<event>
 7    1  0.2688177E-009  0.1095012E+03  0.7561462E-02  0.1261496E+00
         -2   -1    0    0    0  501 -0.00000000000E+00  0.00000000000E+00  0.23335822258E+02  0.23335822258E+02  0.00000000000E+00 0.  1.
          2   -1    0    0  501    0  0.00000000000E+00 -0.00000000000E+00 -0.11625553053E+04  0.11625553053E+04  0.00000000000E+00 0. -1.
         25    2    1    2    0    0 -0.66776391213E+02  0.70856124304E+02 -0.88289853217E+03  0.89701309890E+03  0.12507199817E+03 0.  0.
          5    1    3    3  502    0 -0.43806184907E+02  0.50803917891E+02 -0.16109819574E+03  0.17455692762E+03  0.41800000000E+01 0. -1.
         -5    1    3    3    0  502 -0.22970206306E+02  0.20052206413E+02 -0.72180033643E+03  0.72245617129E+03  0.41800000000E+01 0. -1.
        -11    1    1    2    0    0  0.51192977680E+02 -0.28798656787E+01 -0.17186165611E+03  0.17934727048E+03  0.00000000000E+00 0. -1.
         11    1    1    2    0    0  0.15583413533E+02 -0.67976258625E+02 -0.84459294792E+02  0.10953075819E+03  0.00000000000E+00 0.  1.
</event>
<event>
 7    1  0.2688177E-009  0.7527965E+02  0.7561462E-02  0.1343007E+00
         -1   -1    0    0    0  501 -0.00000000000E+00  0.00000000000E+00  0.31519439703E+02  0.31519439703E+02  0.00000000000E+00 0.  1.
          1   -1    0    0  501    0  0.00000000000E+00 -0.00000000000E+00 -0.57241167972E+03  0.57241167972E+03  0.00000000000E+00 0. -1.
         25    2    1    2    0    0  0.33090518253E+02 -0.57765833661E+02 -0.22965953872E+03  0.26985690105E+03  0.12508944554E+03 0.  0.
          5    1    3    3  502    0  0.33539859240E+02 -0.41599771991E+02 -0.24277370428E+03  0.24862020650E+03  0.41800000000E+01 0. -1.
         -5    1    3    3    0  502 -0.44934098687E+00 -0.16166061670E+02  0.13114165564E+02  0.21236694557E+02  0.41800000000E+01 0. -1.
        -11    1    1    2    0    0 -0.14736188303E+02 -0.44464889867E+01  0.75914443354E+00  0.15411126185E+02  0.00000000000E+00 0.  1.
         11    1    1    2    0    0 -0.18354329950E+02  0.62212322648E+02 -0.31199184574E+03  0.31866309219E+03  0.00000000000E+00 0. -1.
</event>
<event>
 7    1  0.2688177E-009  0.2513362E+03  0.7561462E-02  0.1112463E+00
         -1   -1    0    0    0  501 -0.00000000000E+00  0.00000000000E+00  0.64741619407E+02  0.64741619407E+02  0.00000000000E+00 0.  1.
          1   -1    0    0  501    0  0.00000000000E+00 -0.00000000000E+00 -0.11174666919E+04  0.11174666919E+04  0.00000000000E+00 0. -1.
         25    2    1    2    0    0 -0.17891683565E+03 -0.15529414273E+03 -0.39519494544E+03  0.47744531302E+03  0.12508987643E+03 0.  0.
          5    1    3    3  502    0 -0.13234525810E+03 -0.16268398889E+03 -0.36594333934E+03  0.42179775674E+03  0.41800000000E+01 0. -1.
         -5    1    3    3    0  502 -0.46571577547E+02  0.73898461584E+01 -0.29251606100E+02  0.55647556289E+02  0.41800000000E+01 0. -1.
        -11    1    1    2    0    0  0.13531206767E+03  0.76293244202E+02 -0.32513032977E+03  0.36033282685E+03  0.00000000000E+00 0.  1.
         11    1    1    2    0    0  0.43604767981E+02  0.79000898529E+02 -0.33239979732E+03  0.34443017147E+03  0.00000000000E+00 0. -1.
</event>
<event>
 7    1  0.2688177E-009  0.8721121E+02  0.7561462E-02  0.1309749E+00
          4   -1    0    0  501    0  0.00000000000E+00  0.00000000000E+00  0.30872822552E+03  0.30872822552E+03  0.00000000000E+00 0. -1.
         -4   -1    0    0    0  501 -0.00000000000E+00 -0.00000000000E+00 -0.44266308489E+02  0.44266308489E+02  0.00000000000E+00 0.  1.
         25    2    1    2    0    0  0.32519230430E+02  0.90138374285E+01  0.19621708727E+03  0.23512954993E+03  0.12508401297E+03 0.  0.
          5    1    3    3  502    0 -0.31329933877E+02 -0.38233534189E+02  0.66422301796E+02  0.82902125842E+02  0.41800000000E+01 0. -1.
         -5    1    3    3    0  502  0.63849164307E+02  0.47247371618E+02  0.12979478547E+03  0.15222742408E+03  0.41800000000E+01 0. -1.
        -11    1    1    2    0    0 -0.41317209965E+01 -0.15597366980E+02  0.83450061771E+02  0.84995657446E+02  0.00000000000E+00 0. -1.
         11    1    1    2    0    0 -0.28387509434E+02  0.65835295516E+01 -0.15205232007E+02  0.32869326638E+02  0.00000000000E+00 0.  1.
</event>
<event>
 7    1  0.3010629E-009  0.1521054E+03  0.7561462E-02  0.1197910E+00
          1   -1    0    0  501    0  0.00000000000E+00  0.00000000000E+00  0.19834304020E+04  0.19834304020E+04  0.00000000000E+00 0. -1.
         -1   -1    0    0    0  501 -0.00000000000E+00 -0.00000000000E+00 -0.16728143234E+02  0.16728143234E+02  0.00000000000E+00 0.  1.
         25    2    1    2    0    0  0.11971493084E+02 -0.11666878287E+03  0.15111363458E+04  0.15208334055E+04  0.12508505227E+03 0.  0.
          5    1    3    3  502    0  0.47374639980E+02  0.18505882788E+01  0.44435949431E+03  0.44690112304E+03  0.41800000000E+01 0.  1.
         -5    1    3    3    0  502 -0.35403146896E+02 -0.11851937115E+03  0.10667768515E+04  0.10739322825E+04  0.41800000000E+01 0.  1.
        -11    1    1    2    0    0  0.23721745661E+02  0.24925126147E+02  0.42460457365E+02  0.54652297026E+02  0.00000000000E+00 0.  1.
         11    1    1    2    0    0 -0.35693238745E+02  0.91743656725E+02  0.41310545558E+03  0.42467284264E+03  0.00000000000E+00 0. -1.
</event>
<event>
 7    1  0.2688177E-009  0.1080496E+03  0.7561462E-02  0.1264225E+00
         -2   -1    0    0    0  501 -0.00000000000E+00  0.00000000000E+00  0.70847227300E+03  0.70847227300E+03  0.00000000000E+00 0.  1.
          2   -1    0    0  501    0  0.00000000000E+00 -0.00000000000E+00 -0.20842210345E+02  0.20842210345E+02  0.00000000000E+00 0. -1.
         25    2    1    2    0    0 -0.20156289293E+02  0.37881551542E+02  0.29411567888E+03  0.32247887316E+03  0.12508918069E+03 0.  0.
          5    1    3    3  502    0  0.38231572380E+02  0.43100672470E+02  0.69852341188E+02  0.90642942712E+02  0.41800000000E+01 0.  1.
         -5    1    3    3    0  502 -0.58387861672E+02 -0.52191209282E+01  0.22426333770E+03  0.23183593045E+03  0.41800000000E+01 0.  1.
        -11    1    1    2    0    0  0.54036330664E+02 -0.84635677913E+01  0.16115685294E+03  0.17018545255E+03  0.00000000000E+00 0.  1.
         11    1    1    2    0    0 -0.33880041372E+02 -0.29417983750E+02  0.23235753083E+03  0.23665015762E+03  0.00000000000E+00 0. -1.
</event>
<event>
 7    1  0.2688177E-009  0.1367303E+03  0.7561462E-02  0.1217798E+00
          3   -1    0    0  501    0  0.00000000000E+00  0.00000000000E+00  0.55145021005E+02  0.55145021005E+02  0.00000000000E+00 0. -1.
         -3   -1    0    0    0  501 -0.00000000000E+00 -0.00000000000E+00 -0.48074276933E+03  0.48074276933E+03  0.00000000000E+00 0.  1.
         25    2    1    2    0    0  0.11687184103E+03 -0.14042221013E+02 -0.18331965817E+03  0.25121621738E+03  0.12508908667E+03 0.  0.
          5    1    3    3  502    0  0.12635077960E+03 -0.22492196825E+02 -0.19498904828E+03  0.23347081140E+03  0.41800000000E+01 0. -1.
         -5    1    3    3    0  502 -0.94789385730E+01  0.84499758125E+01  0.11669390111E+02  0.17745405976E+02  0.41800000000E+01 0. -1.
        -11    1    1    2    0    0 -0.64937093248E+02  0.37183623777E+02 -0.20080877358E+03  0.21429795030E+03  0.00000000000E+00 0.  1.
         11    1    1    2    0    0 -0.51934747783E+02 -0.23141402764E+02 -0.41469316575E+02  0.70373622661E+02  0.00000000000E+00 0. -1.
</event>
<event>
 7    1  0.2688177E-009  0.1211433E+03  0.7561462E-02  0.1241223E+00
          1   -1    0    0  501    0  0.00000000000E+00  0.00000000000E+00  0.54176285818E+02  0.54176285818E+02  0.00000000000E+00 0. -1.
         -1   -1    0    0    0  501 -0.00000000000E+00 -0.00000000000E+00 -0.28255284680E+03  0.28255284680E+03  0.00000000000E+00 0.  1.
         25    2    1    2    0    0 -0.23132812528E+02 -0.52442802396E+02 -0.10632620131E+03  0.17388945023E+03  0.12508759042E+03 0.  0.
          5    1    3    3  502    0 -0.24219966179E+02 -0.92465937925E+02 -0.86650877582E+02  0.12908293235E+03  0.41800000000E+01 0. -1.
         -5    1    3    3    0  502  0.10871536510E+01  0.40023135529E+02 -0.19675323727E+02  0.44806517879E+02  0.41800000000E+01 0. -1.
        -11    1    1    2    0    0 -0.79529098153E+01  0.70136430483E+02 -0.67901810515E+02  0.97943981575E+02  0.00000000000E+00 0. -1.
         11    1    1    2    0    0  0.31085722344E+02 -0.17693628087E+02 -0.54148549156E+02  0.64895700815E+02  0.00000000000E+00 0.  1.
</event>
<event>
 7    1  0.2688177E-009  0.2207931E+03  0.7561462E-02  0.1133293E+00
          2   -1    0    0  501    0  0.00000000000E+00  0.00000000000E+00  0.11201275929E+04  0.11201275929E+04  0.00000000000E+00 0.  1.
         -2   -1    0    0    0  501 -0.00000000000E+00 -0.00000000000E+00 -0.51036415211E+02  0.51036415211E+02  0.00000000000E+00 0. -1.
         25    2    1    2    0    0 -0.73530287857E+02  0.19913881113E+03  0.51374917660E+03  0.56977970752E+03  0.12509088422E+03 0.  0.
          5    1    3    3  502    0  0.14801925244E+02  0.33486464654E+02  0.20886918619E+02  0.42357715653E+02  0.41800000000E+01 0. -1.
         -5    1    3    3    0  502 -0.88332213101E+02  0.16565234647E+03  0.49286225798E+03  0.52742199187E+03  0.41800000000E+01 0. -1.
        -11    1    1    2    0    0  0.56131107053E+02 -0.87398086135E+02  0.16483579632E+03  0.19483317579E+03  0.00000000000E+00 0. -1.
         11    1    1    2    0    0  0.17399180804E+02 -0.11174072499E+03  0.39050620474E+03  0.40655112478E+03  0.00000000000E+00 0.  1.
</event>
<event>
 7    1  0.2688177E-009  0.1053487E+03  0.7561462E-02  0.1269434E+00
          2   -1    0    0  501    0  0.00000000000E+00  0.00000000000E+00  0.29337519743E+03  0.29337519743E+03  0.00000000000E+00 0. -1.
         -2   -1    0    0    0  501 -0.00000000000E+00 -0.00000000000E+00 -0.51775694231E+02  0.51775694231E+02  0.00000000000E+00 0.  1.
         25    2    1    2    0    0  0.34818056245E+02  0.43956291450E+02  0.15800573009E+03  0.20918419075E+03  0.12509101614E+03 0.  0.
          5    1    3    3  502    0  0.12016451412E+02  0.77326183625E+02  0.47960014315E+02  0.91876923935E+02  0.41800000000E+01 0. -1.
         -5    1    3    3    0  502  0.22801604833E+02 -0.33369892176E+02  0.11004571578E+03  0.11730726681E+03  0.41800000000E+01 0. -1.
        -11    1    1    2    0    0 -0.56603900970E+02 -0.21884752821E+02  0.85553803939E+02  0.10489231325E+03  0.00000000000E+00 0. -1.
         11    1    1    2    0    0  0.21785844725E+02 -0.22071538629E+02 -0.19600308266E+01  0.31074387664E+02  0.00000000000E+00 0.  1.
</event>
<event>
 7    1  0.2688177E-009  0.2087140E+03  0.7561462E-02  0.1142588E+00
         -1   -1    0    0    0  501 -0.00000000000E+00  0.00000000000E+00  0.79396180209E+02  0.79396180209E+02  0.00000000000E+00 0.  1.
          1   -1    0    0  501    0  0.00000000000E+00 -0.00000000000E+00 -0.75696136670E+03  0.75696136670E+03  0.00000000000E+00 0. -1.
         25    2    1    2    0    0 -0.16969641980E+03 -0.10457259575E+03 -0.19173678018E+03  0.30356084277E+03  0.12511550548E+03 0.  0.
          5    1    3    3  502    0 -0.25483548907E+02 -0.13127691182E+02 -0.11083424711E+03  0.11455762861E+03  0.41800000000E+01 0.  1.
         -5    1    3    3    0  502 -0.14421287089E+03 -0.91444904570E+02 -0.80902533070E+02  0.18900321415E+03  0.41800000000E+01 0.  1.
        -11    1    1    2    0    0  0.12413465320E+02  0.49448666876E+02 -0.13756861490E+03  0.14671192379E+03  0.00000000000E+00 0.  1.
         11    1    1    2    0    0  0.15728295448E+03  0.55123928876E+02 -0.34825979141E+03  0.38608478035E+03  0.00000000000E+00 0. -1.
</event>
<event>
 7    1  0.2688177E-009  0.1177667E+03  0.7561462E-02  0.1246827E+00
          2   -1    0    0  501    0  0.00000000000E+00  0.00000000000E+00  0.44003616132E+03  0.44003616132E+03  0.00000000000E+00 0. -1.
         -2   -1    0    0    0  501 -0.00000000000E+00 -0.00000000000E+00 -0.70537063871E+02  0.70537063871E+02  0.00000000000E+00 0.  1.
         25    2    1    2    0    0 -0.68120966047E+02 -0.57053952681E+02  0.41635145060E+02  0.15898279609E+03  0.12508566911E+03 0.  0.
          5    1    3    3  502    0 -0.39440686443E+02  0.10606733927E+02 -0.34100904100E+02  0.53370540677E+02  0.41800000000E+01 0. -1.
         -5    1    3    3    0  502 -0.28680279604E+02 -0.67660686608E+02  0.75736049160E+02  0.10561225541E+03  0.41800000000E+01 0. -1.
        -11    1    1    2    0    0  0.63013120119E+02 -0.57543743942E+00  0.11649498124E+03  0.13244646122E+03  0.00000000000E+00 0.  1.
         11    1    1    2    0    0  0.51078459277E+01  0.57629390120E+02  0.21136897115E+03  0.21914396788E+03  0.00000000000E+00 0. -1.
</event>
<event>
 7    1  0.2688177E-009  0.1055681E+03  0.7561462E-02  0.1269004E+00
         -2   -1    0    0    0  501 -0.00000000000E+00  0.00000000000E+00  0.17908159409E+02  0.17908159409E+02  0.00000000000E+00 0.  1.
          2   -1    0    0  501    0  0.00000000000E+00 -0.00000000000E+00 -0.13052383120E+04  0.13052383120E+04  0.00000000000E+00 0. -1.
         25    2    1    2    0    0 -0.13784902835E+02 -0.21667042046E+02 -0.11480961455E+04  0.11551755399E+04  0.12508510886E+03 0.  0.
          5    1    3    3  502    0  0.16635528102E+02  0.47658358495E+02 -0.54011441916E+03  0.54248421001E+03  0.41800000000E+01 0.  1.
         -5    1    3    3    0  502 -0.30420430938E+02 -0.69325400541E+02 -0.60798172637E+03  0.61269132993E+03  0.41800000000E+01 0.  1.
        -11    1    1    2    0    0 -0.28452960391E+02  0.30286635822E+02 -0.10499564780E+03  0.11292004836E+03  0.00000000000E+00 0. -1.
         11    1    1    2    0    0  0.42237863226E+02 -0.86195937760E+01 -0.34238359297E+02  0.55050883137E+02  0.00000000000E+00 0.  1.
</event>
<event>
 7    1  0.2688177E-009  0.1954233E+03  0.7561462E-02  0.1153659E+00
          3   -1    0    0  501    0  0.00000000000E+00  0.00000000000E+00  0.74568721910E+02  0.74568721910E+02  0.00000000000E+00 0. -1.
         -3   -1    0    0    0  501 -0.00000000000E+00 -0.00000000000E+00 -0.54973698484E+03  0.54973698484E+03  0.00000000000E+00 0.  1.
         25    2    1    2    0    0 -0.12642386067E+02 -0.16969121397E+03 -0.25269470465E+03  0.32932712507E+03  0.12508718370E+03 0.  0.
          5    1    3    3  502    0 -0.16754074073E+02 -0.18245121302E+03 -0.25606060161E+03  0.31488672285E+03  0.41800000000E+01 0. -1.
         -5    1    3    3    0  502  0.41116880055E+01  0.12759999052E+02  0.33658969556E+01  0.14440402224E+02  0.41800000000E+01 0. -1.
        -11    1    1    2    0    0 -0.26688508668E+02  0.14424390156E+03 -0.17363241525E+03  0.22730331115E+03  0.00000000000E+00 0.  1.
         11    1    1    2    0    0  0.39330894735E+02  0.25447312405E+02 -0.48841143025E+02  0.67675270530E+02  0.00000000000E+00 0. -1.
</event>
<event>
 7    1  0.2688177E-009  0.1025723E+03  0.7561462E-02  0.1274978E+00
         -1   -1    0    0    0  501 -0.00000000000E+00  0.00000000000E+00  0.87336469154E+02  0.87336469154E+02  0.00000000000E+00 0.  1.
          1   -1    0    0  501    0  0.00000000000E+00 -0.00000000000E+00 -0.18661406795E+03  0.18661406795E+03  0.00000000000E+00 0. -1.
         25    2    1    2    0    0 -0.24851422875E+02 -0.49421166568E+02 -0.83428829617E+02  0.16021289811E+03  0.12509099962E+03 0.  0.
          5    1    3    3  502    0 -0.29344928813E+02 -0.67340496291E+02 -0.10707439380E+03  0.12991637886E+03  0.41800000000E+01 0.  1.
         -5    1    3    3    0  502  0.44935059380E+01  0.17919329723E+02  0.23645564182E+02  0.30296519253E+02  0.41800000000E+01 0.  1.
        -11    1    1    2    0    0  0.63013653806E+02  0.32103440443E+02 -0.99837344805E+01  0.71421470220E+02  0.00000000000E+00 0.  1.
         11    1    1    2    0    0 -0.38162230931E+02  0.17317726126E+02 -0.58650347002E+01  0.42316168776E+02  0.00000000000E+00 0. -1.
</event>
<event>
 6    1  0.2688177E-009  0.1184719E+03  0.7561462E-02  0.1245639E+00
          1   -1    0    0  501    0  0.00000000000E+00  0.00000000000E+00  0.34891400690E+03  0.34891400690E+03  0.00000000000E+00 0. -1.
         -1   -1    0    0    0  501 -0.00000000000E+00 -0.00000000000E+00 -0.52445697195E+02  0.52445697195E+02  0.00000000000E+00 0.  1.
          5    1    1    2  502    0 -0.36060747644E+01  0.39901798765E+02  0.38778520827E+02  0.55914250397E+02  0.41800000000E+01 0.  1.
         -5    1    1    2    0  502 -0.53920787026E+02 -0.88843982345E+02  0.15970505269E+03  0.19058824919E+03  0.41800000000E+01 0.  1.
        -11    1    1    2    0    0  0.88943982232E+01  0.42704081913E+02 -0.18206916591E+01  0.43658491155E+02  0.00000000000E+00 0.  1.
         11    1    1    2    0    0  0.48632463567E+02  0.62381016670E+01  0.99805427841E+02  0.11119871335E+03  0.00000000000E+00 0. -1.
</event>
<event>
 7    1  0.2688177E-009  0.1265249E+03  0.7561462E-02  0.1232705E+00
          2   -1    0    0  501    0  0.00000000000E+00  0.00000000000E+00  0.10071694815E+03  0.10071694815E+03  0.00000000000E+00 0.  1.
         -2   -1    0    0    0  501 -0.00000000000E+00 -0.00000000000E+00 -0.17370113528E+03  0.17370113528E+03  0.00000000000E+00 0. -1.
         25    2    1    2    0    0 -0.25722153698E+02 -0.68940339536E+02 -0.59164142854E+02  0.15670911532E+03  0.12507178506E+03 0.  0.
          5    1    3    3  502    0 -0.45080512619E+02  0.20277603978E+02 -0.39047374733E+02  0.63131637984E+02  0.41800000000E+01 0. -1.
         -5    1    3    3    0  502  0.19358358921E+02 -0.89217943513E+02 -0.20116768121E+02  0.93577477336E+02  0.41800000000E+01 0. -1.
        -11    1    1    2    0    0  0.46003837739E+01 -0.20059826228E+02  0.10436101166E+02  0.23075362764E+02  0.00000000000E+00 0.  1.
         11    1    1    2    0    0  0.21121769924E+02  0.89000165764E+02 -0.24256145441E+02  0.94633605354E+02  0.00000000000E+00 0. -1.
</event>
<event>
 7    1  0.2688177E-009  0.1009790E+03  0.7561462E-02  0.1278251E+00
          3   -1    0    0  501    0  0.00000000000E+00  0.00000000000E+00  0.41004726272E+02  0.41004726272E+02  0.00000000000E+00 0. -1.
         -3   -1    0    0    0  501 -0.00000000000E+00 -0.00000000000E+00 -0.34138782405E+03  0.34138782405E+03  0.00000000000E+00 0.  1.
         25    2    1    2    0    0 -0.13338023824E+01  0.46310302808E+02 -0.15968001879E+03  0.20806185243E+03  0.12508238430E+03 0.  0.
          5    1    3    3  502    0 -0.53209766583E+00 -0.38490896402E+02 -0.17575029228E+02  0.42522773735E+02  0.41800000000E+01 0.  1.
         -5    1    3    3    0  502 -0.80170471656E+00  0.84801199209E+02 -0.14210498956E+03  0.16553907870E+03  0.41800000000E+01 0.  1.
        -11    1    1    2    0    0 -0.28428796900E+02 -0.37945035152E+02 -0.13474839325E+03  0.14284660188E+03  0.00000000000E+00 0.  1.
         11    1    1    2    0    0  0.29762599282E+02 -0.83652676559E+01 -0.59546857342E+01  0.31484096004E+02  0.00000000000E+00 0. -1.
</event>
<event>
 7    1  0.2688177E-009  0.1671560E+03  0.7561462E-02  0.1180847E+00
          3   -1    0    0  501    0  0.00000000000E+00  0.00000000000E+00  0.79551907495E+03  0.79551907495E+03  0.00000000000E+00 0. -1.
         -3   -1    0    0    0  501 -0.00000000000E+00 -0.00000000000E+00 -0.65023007326E+02  0.65023007326E+02  0.00000000000E+00 0.  1.
         25    2    1    2    0    0 -0.16123052980E+03  0.12038043765E+02  0.15834287731E+03  0.25857477370E+03  0.12509295969E+03 0.  0.
          5    1    3    3  502    0 -0.16857120231E+02  0.18941174711E+02 -0.17367091645E+02  0.31016429100E+02  0.41800000000E+01 0.  1.
         -5    1    3    3    0  502 -0.14437340957E+03 -0.69031309458E+01  0.17570996896E+03  0.22755834460E+03  0.41800000000E+01 0.  1.
        -11    1    1    2    0    0  0.53771048118E+02  0.89897999007E+01  0.73952632548E+02  0.91875644100E+02  0.00000000000E+00 0.  1.
         11    1    1    2    0    0  0.10745948168E+03 -0.21027843666E+02  0.49820055776E+03  0.51009166447E+03  0.00000000000E+00 0. -1.
</event>
<event>
 7    1  0.2688177E-009  0.1158034E+03  0.7561462E-02  0.1250185E+00
          2   -1    0    0  501    0  0.00000000000E+00  0.00000000000E+00  0.52156345640E+03  0.52156345640E+03  0.00000000000E+00 0.  1.
         -2   -1    0    0    0  501 -0.00000000000E+00 -0.00000000000E+00 -0.37507597428E+02  0.37507597428E+02  0.00000000000E+00 0. -1.
         25    2    1    2    0    0 -0.61698722065E+02  0.29464406426E+02  0.15663849530E+03  0.21179532613E+03  0.12508700335E+03 0.  0.
          5    1    3    3  502    0 -0.86426045639E+02  0.17432145334E+02  0.49694831392E+02  0.10129358184E+03  0.41800000000E+01 0.  1.
         -5    1    3    3    0  502  0.24727323574E+02  0.12032261092E+02  0.10694366391E+03  0.11050174428E+03  0.41800000000E+01 0.  1.
        -11    1    1    2    0    0  0.74866327468E+02 -0.50785688615E+02  0.24710393223E+03  0.26314350928E+03  0.00000000000E+00 0. -1.
         11    1    1    2    0    0 -0.13167605403E+02  0.21321282189E+02  0.80313431443E+02  0.84132218421E+02  0.00000000000E+00 0.  1.
</event>
<event>
 7    1  0.2688177E-009  0.1915462E+03  0.7561462E-02  0.1157074E+00
          2   -1    0    0  501    0  0.00000000000E+00  0.00000000000E+00  0.69118340248E+03  0.69118340248E+03  0.00000000000E+00 0. -1.
         -2   -1    0    0    0  501 -0.00000000000E+00 -0.00000000000E+00 -0.65358004844E+02  0.65358004844E+02  0.00000000000E+00 0.  1.
         25    2    1    2    0    0  0.10972834347E+03  0.14411445464E+03  0.28852125728E+03  0.36290812533E+03  0.12509398919E+03 0.  0.
          5    1    3    3  502    0  0.32063388179E+02  0.11130860217E+03  0.88592500975E+02  0.14588957950E+03  0.41800000000E+01 0. -1.
         -5    1    3    3    0  502  0.77664955287E+02  0.32805852479E+02  0.19992875631E+03  0.21701854583E+03  0.41800000000E+01 0. -1.
        -11    1    1    2    0    0 -0.31552674420E+02 -0.24833493187E+02  0.16573361499E+03  0.17052831080E+03  0.00000000000E+00 0. -1.
         11    1    1    2    0    0 -0.78175669046E+02 -0.11928096146E+03  0.17157052536E+03  0.22310497119E+03  0.00000000000E+00 0.  1.
</event>
<event>
 7    1  0.2688177E-009  0.1329194E+03  0.7561462E-02  0.1223187E+00
         -4   -1    0    0    0  501 -0.00000000000E+00  0.00000000000E+00  0.94893608917E+02  0.94893608917E+02  0.00000000000E+00 0.  1.
          4   -1    0    0  501    0  0.00000000000E+00 -0.00000000000E+00 -0.24424134845E+03  0.24424134845E+03  0.00000000000E+00 0. -1.
         25    2    1    2    0    0  0.25741873509E+02 -0.72301648120E+02  0.80691364240E+00  0.14675948184E+03  0.12509005567E+03 0.  0.
          5    1    3    3  502    0  0.17135937426E+02 -0.10760888524E+03 -0.73086223357E+01  0.10928952784E+03  0.41800000000E+01 0. -1.
         -5    1    3    3    0  502  0.86059360826E+01  0.35307237122E+02  0.81155359781E+01  0.37469954006E+02  0.41800000000E+01 0. -1.
        -11    1    1    2    0    0 -0.39531886633E+02  0.89692936223E+02 -0.12442184891E+03  0.15839314807E+03  0.00000000000E+00 0. -1.
         11    1    1    2    0    0  0.13790013124E+02 -0.17391288104E+02 -0.25732804264E+02  0.33982327454E+02  0.00000000000E+00 0.  1.
</event>
<event>
 7    1  0.2688177E-009  0.1235145E+03  0.7561462E-02  0.1237409E+00
          1   -1    0    0  501    0  0.00000000000E+00  0.00000000000E+00  0.48054822255E+03  0.48054822255E+03  0.00000000000E+00 0. -1.
         -1   -1    0    0    0  501 -0.00000000000E+00 -0.00000000000E+00 -0.52166708481E+02  0.52166708481E+02  0.00000000000E+00 0.  1.
         25    2    1    2    0    0  0.69139329101E+02 -0.75910833225E+02  0.32563362014E+03  0.36363110372E+03  0.12509046165E+03 0.  0.
          5    1    3    3  502    0  0.55757190476E+02  0.73160146929E+01  0.49998354773E+02  0.75363759465E+02  0.41800000000E+01 0.  1.
         -5    1    3    3    0  502  0.13382138625E+02 -0.83226847918E+02  0.27563526537E+03  0.28826734425E+03  0.41800000000E+01 0.  1.
        -11    1    1    2    0    0 -0.21643748606E+01  0.16712381442E+02 -0.14095647611E+02  0.21969876959E+02  0.00000000000E+00 0.  1.
         11    1    1    2    0    0 -0.66974954240E+02  0.59198451783E+02  0.11684354154E+03  0.14711395035E+03  0.00000000000E+00 0. -1.
</event>
<event>
 7    1  0.2688177E-009  0.3099365E+03  0.7561462E-02  0.1080376E+00
         -2   -1    0    0    0  501 -0.00000000000E+00  0.00000000000E+00  0.14301982476E+03  0.14301982476E+03  0.00000000000E+00 0. -1.
          2   -1    0    0  501    0  0.00000000000E+00 -0.00000000000E+00 -0.99751139506E+03  0.99751139506E+03  0.00000000000E+00 0.  1.
         25    2    1    2    0    0  0.84214511979E+02 -0.28498291135E+03 -0.12179117139E+03  0.34465978835E+03  0.12509970618E+03 0.  0.
          5    1    3    3  502    0  0.35231180637E+01 -0.18245013526E+03 -0.29771701933E+02  0.18494402086E+03  0.41800000000E+01 0. -1.
         -5    1    3    3    0  502  0.80691393915E+02 -0.10253277609E+03 -0.92019469458E+02  0.15971576749E+03  0.41800000000E+01 0. -1.
        -11    1    1    2    0    0 -0.31112067554E+02  0.22307903868E+03 -0.58963910705E+03  0.63119449840E+03  0.00000000000E+00 0. -1.
         11    1    1    2    0    0 -0.53102444425E+02  0.61903872666E+02 -0.14306129187E+03  0.16467693307E+03  0.00000000000E+00 0.  1.
</event>
<event>
 7    1  0.2688177E-009  0.1156991E+03  0.7561462E-02  0.1250366E+00
         -1   -1    0    0    0  501 -0.00000000000E+00  0.00000000000E+00  0.29439712376E+03  0.29439712376E+03  0.00000000000E+00 0.  1.
          1   -1    0    0  501    0  0.00000000000E+00 -0.00000000000E+00 -0.58161157585E+02  0.58161157585E+02  0.00000000000E+00 0. -1.
         25    2    1    2    0    0 -0.30772238440E+02 -0.63262745198E+02  0.10744284396E+03  0.17927837764E+03  0.12509063267E+03 0.  0.
          5    1    3    3  502    0  0.30714697308E+02 -0.44929194212E+02  0.60927181995E+00  0.54588173952E+02  0.41800000000E+01 0. -1.
         -5    1    3    3    0  502 -0.61486935748E+02 -0.18333550986E+02  0.10683357214E+03  0.12469020369E+03  0.41800000000E+01 0. -1.
        -11    1    1    2    0    0  0.60227522661E+02  0.27569093161E+02  0.54616108793E+02  0.85850618654E+02  0.00000000000E+00 0. -1.
         11    1    1    2    0    0 -0.29455284220E+02  0.35693652037E+02  0.74177013420E+02  0.87429285049E+02  0.00000000000E+00 0.  1.
</event>
<event>
 7    1  0.2688177E-009  0.1104754E+03  0.7561462E-02  0.1259692E+00
          1   -1    0    0  501    0  0.00000000000E+00  0.00000000000E+00  0.22461519105E+03  0.22461519105E+03  0.00000000000E+00 0. -1.
         -1   -1    0    0    0  501 -0.00000000000E+00 -0.00000000000E+00 -0.70466459680E+02  0.70466459680E+02  0.00000000000E+00 0.  1.
         25    2    1    2    0    0 -0.35051289585E+02 -0.50433040006E+02  0.10561815784E+03  0.17485770705E+03  0.12509171844E+03 0.  0.
          5    1    3    3  502    0 -0.67828904191E+02 -0.36903686699E+02  0.16805286913E+02  0.79136163692E+02  0.41800000000E+01 0. -1.
         -5    1    3    3    0  502  0.32777614606E+02 -0.13529353308E+02  0.88812870924E+02  0.95721543354E+02  0.41800000000E+01 0. -1.
        -11    1    1    2    0    0  0.65215435433E+02  0.33338838556E+02  0.43508213890E+02  0.85190937610E+02  0.00000000000E+00 0. -1.
         11    1    1    2    0    0 -0.30164145848E+02  0.17094201451E+02  0.50223596382E+01  0.35033006070E+02  0.00000000000E+00 0.  1.
</event>
<event>
 7    1  0.2688177E-009  0.1119131E+03  0.7561462E-02  0.1257068E+00
         -2   -1    0    0    0  501 -0.00000000000E+00  0.00000000000E+00  0.76997156526E+03  0.76997156526E+03  0.00000000000E+00 0.  1.
          2   -1    0    0  501    0  0.00000000000E+00 -0.00000000000E+00 -0.21988888431E+02  0.21988888431E+02  0.00000000000E+00 0. -1.
         25    2    1    2    0    0  0.20221332479E+02 -0.38781648012E+02  0.58582372934E+03  0.60062466149E+03  0.12509046177E+03 0.  0.
          5    1    3    3  502    0  0.67051826742E+02 -0.49544502909E+02  0.40226265251E+03  0.41083247102E+03  0.41800000000E+01 0. -1.
         -5    1    3    3    0  502 -0.46830494263E+02  0.10762854897E+02  0.18356107683E+03  0.18979219047E+03  0.41800000000E+01 0. -1.
        -11    1    1    2    0    0  0.28376359481E+02  0.32454580432E+02  0.36600316075E+02  0.56551752450E+02  0.00000000000E+00 0. -1.
         11    1    1    2    0    0 -0.48597691960E+02  0.63270675799E+01  0.12555863141E+03  0.13478403974E+03  0.00000000000E+00 0.  1.
</event>
<event>
 7    1  0.2688177E-009  0.9243796E+02  0.7561462E-02  0.1297053E+00
         -3   -1    0    0    0  501 -0.00000000000E+00  0.00000000000E+00  0.15035272421E+03  0.15035272421E+03  0.00000000000E+00 0.  1.
          3   -1    0    0  501    0  0.00000000000E+00 -0.00000000000E+00 -0.84075099017E+02  0.84075099017E+02  0.00000000000E+00 0. -1.
         25    2    1    2    0    0 -0.15334757554E+02 -0.27598036873E+02  0.48010287348E+02  0.13765763914E+03  0.12509129264E+03 0.  0.
          5    1    3    3  502    0 -0.23348499101E+02 -0.76074377895E+02  0.30705404592E+02  0.85397644309E+02  0.41800000000E+01 0.  1.
         -5    1    3    3    0  502  0.80137415474E+01  0.48476341022E+02  0.17304882756E+02  0.52259994831E+02  0.41800000000E+01 0.  1.
        -11    1    1    2    0    0 -0.75822707519E+01 -0.95717084486E+01  0.44286635824E+02  0.45939248415E+02  0.00000000000E+00 0.  1.
         11    1    1    2    0    0  0.22917028306E+02  0.37169745321E+02 -0.26019297981E+02  0.50830935670E+02  0.00000000000E+00 0. -1.
</event>
<event>
 7    1  0.2688177E-009  0.1241492E+03  0.7561462E-02  0.1236405E+00
         -2   -1    0    0    0  501 -0.00000000000E+00  0.00000000000E+00  0.59437127607E+03  0.59437127607E+03  0.00000000000E+00 0.  1.
          2   -1    0    0  501    0  0.00000000000E+00 -0.00000000000E+00 -0.98584097940E+02  0.98584097940E+02  0.00000000000E+00 0. -1.
         25    2    1    2    0    0 -0.37724809870E+02  0.49841793430E+02 -0.40279462894E+02  0.14552307289E+03  0.12508862443E+03 0.  0.
          5    1    3    3  502    0 -0.80104577894E+02  0.50517346373E+02 -0.14943740730E+02  0.95966314252E+02  0.41800000000E+01 0.  1.
         -5    1    3    3    0  502  0.42379768023E+02 -0.67555294272E+00 -0.25335722164E+02  0.49556758641E+02  0.41800000000E+01 0.  1.
        -11    1    1    2    0    0  0.68392714225E+02 -0.33340941576E+02  0.37596660217E+03  0.38358840922E+03  0.00000000000E+00 0.  1.
         11    1    1    2    0    0 -0.30667904355E+02 -0.16500851854E+02  0.16010003886E+03  0.16384389189E+03  0.00000000000E+00 0. -1.
</event>
<event>
 7    1  0.2688177E-009  0.8411890E+02  0.7561462E-02  0.1317753E+00
          1   -1    0    0  501    0  0.00000000000E+00  0.00000000000E+00  0.94063225847E+02  0.94063225847E+02  0.00000000000E+00 0. -1.
         -1   -1    0    0    0  501 -0.00000000000E+00 -0.00000000000E+00 -0.13644855119E+03  0.13644855119E+03  0.00000000000E+00 0.  1.
         25    2    1    2    0    0 -0.93111073086E+01 -0.10285143123E+02 -0.56753954583E+02  0.13806144551E+03  0.12508984966E+03 0.  0.
          5    1    3    3  502    0 -0.36998044283E+02  0.32210787864E+02  0.13742674301E+02  0.51114808349E+02  0.41800000000E+01 0. -1.
         -5    1    3    3    0  502  0.27686936975E+02 -0.42495930988E+02 -0.70496628884E+02  0.86946637161E+02  0.41800000000E+01 0. -1.
        -11    1    1    2    0    0 -0.47773529765E+01  0.37321863484E+02  0.38301652526E+02  0.53691351088E+02  0.00000000000E+00 0. -1.
         11    1    1    2    0    0  0.14088460285E+02 -0.27036720361E+02 -0.23933023287E+02  0.38758980439E+02  0.00000000000E+00 0.  1.
</event>
<event>
 7    1  0.2688177E-009  0.9236794E+02  0.7561462E-02  0.1297217E+00
          1   -1    0    0  501    0  0.00000000000E+00  0.00000000000E+00  0.69761909678E+03  0.69761909678E+03  0.00000000000E+00 0. -1.
         -1   -1    0    0    0  501 -0.00000000000E+00 -0.00000000000E+00 -0.22652300587E+02  0.22652300587E+02  0.00000000000E+00 0.  1.
         25    2    1    2    0    0 -0.12917797363E+02  0.14369037362E+02  0.20089809387E+03  0.23744627849E+03  0.12508937735E+03 0.  0.
          5    1    3    3  502    0  0.35161788776E+02  0.25942152351E+02  0.17171580727E+02  0.47134724389E+02  0.41800000000E+01 0. -1.
         -5    1    3    3    0  502 -0.48079586139E+02 -0.11573114989E+02  0.18372651314E+03  0.19031155410E+03  0.41800000000E+01 0. -1.
        -11    1    1    2    0    0  0.18885677038E+02 -0.50850760240E+02  0.30159174489E+03  0.30643114920E+03  0.00000000000E+00 0.  1.
         11    1    1    2    0    0 -0.59678796748E+01  0.36481722878E+02  0.17247695743E+03  0.17639396967E+03  0.00000000000E+00 0. -1.
</event>
<event>
 7    1  0.2688177E-009  0.1009961E+03  0.7561462E-02  0.1278215E+00
          1   -1    0    0  501    0  0.00000000000E+00  0.00000000000E+00  0.14537079675E+04  0.14537079675E+04  0.00000000000E+00 0. -1.
         -1   -1    0    0    0  501 -0.00000000000E+00 -0.00000000000E+00 -0.12149626737E+02  0.12149626737E+02  0.00000000000E+00 0.  1.
         25    2    1    2    0    0  0.37111732005E+02  0.61144263853E+02  0.94725357357E+03  0.95815060918E+03  0.12508939040E+03 0.  0.
          5    1    3    3  502    0 -0.11759339346E+02  0.10230557964E+02  0.71940751553E+03  0.71958848809E+03  0.41800000000E+01 0. -1.
         -5    1    3    3    0  502  0.48871071350E+02  0.50913705889E+02  0.22784605803E+03  0.23856212110E+03  0.41800000000E+01 0. -1.
        -11    1    1    2    0    0 -0.20717540518E+02  0.22112978297E+02  0.15657107993E+03  0.15947634108E+03  0.00000000000E+00 0. -1.
         11    1    1    2    0    0 -0.16394191486E+02 -0.83257242150E+02  0.33773368723E+03  0.34823064394E+03  0.00000000000E+00 0.  1.
</event>
<event>
 7    1  0.2688177E-009  0.1433583E+03  0.7561462E-02  0.1208880E+00
          1   -1    0    0  501    0  0.00000000000E+00  0.00000000000E+00  0.82901985012E+02  0.82901985012E+02  0.00000000000E+00 0. -1.
         -1   -1    0    0    0  501 -0.00000000000E+00 -0.00000000000E+00 -0.33860607976E+03  0.33860607976E+03  0.00000000000E+00 0.  1.
         25    2    1    2    0    0  0.87150717211E+02  0.66657354425E+02 -0.54389498673E+02  0.17505560746E+03  0.12509115767E+03 0.  0.
          5    1    3    3  502    0 -0.16435751865E+01  0.56909168512E+02 -0.63238267428E+02  0.85193342859E+02  0.41800000000E+01 0.  1.
         -5    1    3    3    0  502  0.88794292397E+02  0.97481859129E+01  0.88487687550E+01  0.89862264602E+02  0.41800000000E+01 0.  1.
        -11    1    1    2    0    0 -0.30592973171E+02 -0.76868674443E+02 -0.13836903954E+03  0.16121635842E+03  0.00000000000E+00 0.  1.
         11    1    1    2    0    0 -0.56557744039E+02  0.10211320018E+02 -0.62945556537E+02  0.85236098896E+02  0.00000000000E+00 0. -1.
</event>
<event>
 7    1  0.2688177E-009  0.8803069E+02  0.7561462E-02  0.1307692E+00
         -2   -1    0    0    0  501 -0.00000000000E+00  0.00000000000E+00  0.25300827577E+03  0.25300827577E+03  0.00000000000E+00 0.  1.
          2   -1    0    0  501    0  0.00000000000E+00 -0.00000000000E+00 -0.50611182568E+02  0.50611182568E+02  0.00000000000E+00 0. -1.
         25    2    1    2    0    0 -0.15689914510E+02 -0.48282807129E+01  0.84726913817E+02  0.15197618957E+03  0.12509447054E+03 0.  0.
          5    1    3    3  502    0 -0.61875264041E+02  0.28589364489E+02  0.54141637242E+02  0.87147514854E+02  0.41800000000E+01 0.  1.
         -5    1    3    3    0  502  0.46185349531E+02 -0.33417645201E+02  0.30585276574E+02  0.64828674715E+02  0.41800000000E+01 0.  1.
        -11    1    1    2    0    0  0.47162712769E-01  0.25047931176E+02  0.12300408982E+03  0.12552851147E+03  0.00000000000E+00 0.  1.
         11    1    1    2    0    0  0.15642751797E+02 -0.20219650463E+02 -0.53339104260E+01  0.26114757304E+02  0.00000000000E+00 0. -1.
</event>
<event>
 7    1  0.2688177E-009  0.1248738E+03  0.7561462E-02  0.1235267E+00
          2   -1    0    0  501    0  0.00000000000E+00  0.00000000000E+00  0.19440809452E+03  0.19440809452E+03  0.00000000000E+00 0. -1.
         -2   -1    0    0    0  501 -0.00000000000E+00 -0.00000000000E+00 -0.89098526254E+02  0.89098526254E+02  0.00000000000E+00 0.  1.
         25    2    1    2    0    0 -0.71229079698E+02  0.21682259974E+02  0.63144440652E+02  0.15867564513E+03  0.12508812006E+03 0.  0.
          5    1    3    3  502    0 -0.60695411116E+02  0.64563038947E+02  0.97247617163E+01  0.89243276045E+02  0.41800000000E+01 0. -1.
         -5    1    3    3    0  502 -0.10533668581E+02 -0.42880778974E+02  0.53419678936E+02  0.69432369085E+02  0.41800000000E+01 0. -1.
        -11    1    1    2    0    0  0.63874126198E+02 -0.53936502908E+02  0.23473488190E+02  0.86833490033E+02  0.00000000000E+00 0. -1.
         11    1    1    2    0    0  0.73549534999E+01  0.32254242935E+02  0.18691639422E+02  0.37997485608E+02  0.00000000000E+00 0.  1.
</event>
<event>
 7    1  0.2688177E-009  0.1690209E+03  0.7561462E-02  0.1178873E+00
         -2   -1    0    0    0  501 -0.00000000000E+00  0.00000000000E+00  0.26352399184E+03  0.26352399184E+03  0.00000000000E+00 0. -1.
          2   -1    0    0  501    0  0.00000000000E+00 -0.00000000000E+00 -0.50526709259E+03  0.50526709259E+03  0.00000000000E+00 0.  1.
         25    2    1    2    0    0  0.12703451658E+03  0.11105901870E+03 -0.44340616267E+03  0.49064069515E+03  0.12508953838E+03 0.  0.
          5    1    3    3  502    0  0.37508275479E+02  0.27311814409E+02 -0.21579489846E+02  0.51341530146E+02  0.41800000000E+01 0. -1.
         -5    1    3    3    0  502  0.89526241105E+02  0.83747204286E+02 -0.42182667282E+03  0.43929916501E+03  0.41800000000E+01 0. -1.
        -11    1    1    2    0    0 -0.63245634639E+02 -0.58213319147E+02  0.16804414937E+03  0.18875284624E+03  0.00000000000E+00 0. -1.
         11    1    1    2    0    0 -0.63788881944E+02 -0.52845699548E+02  0.33618912544E+02  0.89397543037E+02  0.00000000000E+00 0.  1.
</event>
<event>
 7    1  0.2688177E-009  0.1516667E+03  0.7561462E-02  0.1198440E+00
          2   -1    0    0  501    0  0.00000000000E+00  0.00000000000E+00  0.11954767376E+03  0.11954767376E+03  0.00000000000E+00 0. -1.
         -2   -1    0    0    0  501 -0.00000000000E+00 -0.00000000000E+00 -0.23014021709E+03  0.23014021709E+03  0.00000000000E+00 0.  1.
         25    2    1    2    0    0 -0.52228823573E+02  0.10824864862E+03 -0.81040545316E+02  0.19146995576E+03  0.12509018360E+03 0.  0.
          5    1    3    3  502    0 -0.32536517729E+01 -0.26722536729E+02 -0.25953832728E+02  0.37626507310E+02  0.41800000000E+01 0.  1.
         -5    1    3    3    0  502 -0.48975171800E+02  0.13497118534E+03 -0.55086712588E+02  0.15384344845E+03  0.41800000000E+01 0.  1.
        -11    1    1    2    0    0  0.15831998045E+02 -0.90646015360E+02 -0.58009377543E+02  0.10877702030E+03  0.00000000000E+00 0.  1.
         11    1    1    2    0    0  0.36396825527E+02 -0.17602633256E+02  0.28457379530E+02  0.49440914794E+02  0.00000000000E+00 0. -1.
</event>
<event>
 7    1  0.3625210E-009  0.9921355E+02  0.7561462E-02  0.1281958E+00
         -2   -1    0    0    0  501 -0.00000000000E+00  0.00000000000E+00  0.49085823539E+02  0.49085823539E+02  0.00000000000E+00 0.  1.
          2   -1    0    0  501    0  0.00000000000E+00 -0.00000000000E+00 -0.36296177368E+03  0.36296177368E+03  0.00000000000E+00 0. -1.
         25    2    1    2    0    0 -0.22359652146E+02  0.71674231651E+02 -0.14452535429E+03  0.20535807603E+03  0.12508881578E+03 0.  0.
          5    1    3    3  502    0  0.47900925657E+01  0.90004468190E+02 -0.14673891020E+03  0.17226006341E+03  0.41800000000E+01 0.  1.
         -5    1    3    3    0  502 -0.27149744711E+02 -0.18330236539E+02  0.22135559098E+01  0.33098012618E+02  0.41800000000E+01 0.  1.
        -11    1    1    2    0    0  0.97506502980E+01 -0.37545958940E+02 -0.16563550121E+03  0.17011729329E+03  0.00000000000E+00 0. -1.
         11    1    1    2    0    0  0.12609001848E+02 -0.34128272710E+02 -0.37150946464E+01  0.36572227906E+02  0.00000000000E+00 0.  1.
</event>
<event>
 7    1  0.2688177E-009  0.1129661E+03  0.7561462E-02  0.1255174E+00
          1   -1    0    0  501    0  0.00000000000E+00  0.00000000000E+00  0.15708582141E+03  0.15708582141E+03  0.00000000000E+00 0. -1.
         -1   -1    0    0    0  501 -0.00000000000E+00 -0.00000000000E+00 -0.13069081460E+03  0.13069081460E+03  0.00000000000E+00 0.  1.
         25    2    1    2    0    0  0.51655289529E+02  0.57040769558E+02 -0.39018634612E+02  0.15196075384E+03  0.12509076118E+03 0.  0.
          5    1    3    3  502    0 -0.20169061778E+02  0.70695857743E+02 -0.19397164367E+02  0.76147342308E+02  0.41800000000E+01 0.  1.
         -5    1    3    3    0  502  0.71824351307E+02 -0.13655088185E+02 -0.19621470245E+02  0.75813411535E+02  0.41800000000E+01 0.  1.
        -11    1    1    2    0    0 -0.28583769045E+02 -0.18187269851E+02  0.81172928007E+02  0.87959381982E+02  0.00000000000E+00 0. -1.
         11    1    1    2    0    0 -0.23071520485E+02 -0.38853499706E+02 -0.15759286581E+02  0.47856500190E+02  0.00000000000E+00 0.  1.
</event>
<event>
 7    1  0.2688177E-009  0.8882692E+02  0.7561462E-02  0.1305718E+00
          1   -1    0    0  501    0  0.00000000000E+00  0.00000000000E+00  0.69008014206E+02  0.69008014206E+02  0.00000000000E+00 0. -1.
         -1   -1    0    0    0  501 -0.00000000000E+00 -0.00000000000E+00 -0.19127354263E+03  0.19127354263E+03  0.00000000000E+00 0.  1.
         25    2    1    2    0    0 -0.30375998858E+00 -0.14504399075E+02 -0.28991575051E+02  0.12922693221E+03  0.12509443921E+03 0.  0.
          5    1    3    3  502    0  0.60325162058E+02 -0.22650357367E+02 -0.13167086704E+02  0.65901505586E+02  0.41800000000E+01 0.  1.
         -5    1    3    3    0  502 -0.60628922047E+02  0.81459582923E+01 -0.15824488347E+02  0.63325426619E+02  0.41800000000E+01 0.  1.
        -11    1    1    2    0    0 -0.86821372817E+01  0.31427079286E+02 -0.10407285992E+03  0.10906053820E+03  0.00000000000E+00 0.  1.
         11    1    1    2    0    0  0.89858972703E+01 -0.16922680211E+02  0.10798906548E+02  0.21994086431E+02  0.00000000000E+00 0. -1.
</event>
<event>
 7    1  0.2688177E-009  0.9520156E+02  0.7561462E-02  0.1290723E+00
          2   -1    0    0  501    0  0.00000000000E+00  0.00000000000E+00  0.11108683623E+03  0.11108683623E+03  0.00000000000E+00 0. -1.
         -2   -1    0    0    0  501 -0.00000000000E+00 -0.00000000000E+00 -0.16303006559E+03  0.16303006559E+03  0.00000000000E+00 0.  1.
         25    2    1    2    0    0 -0.31206804792E+02  0.32412006868E+02 -0.96577531389E+02  0.16431190821E+03  0.12508709268E+03 0.  0.
          5    1    3    3  502    0  0.88600671352E+01 -0.21111285827E+02 -0.94464501096E+02  0.97289267374E+02  0.41800000000E+01 0.  1.
         -5    1    3    3    0  502 -0.40066871927E+02  0.53523292695E+02 -0.21130302932E+01  0.67022640831E+02  0.41800000000E+01 0.  1.
        -11    1    1    2    0    0  0.54422299195E+02 -0.47679660981E+02  0.29236901950E+02  0.78038023787E+02  0.00000000000E+00 0. -1.
         11    1    1    2    0    0 -0.23215494403E+02  0.15267654113E+02  0.15397400087E+02  0.31766969826E+02  0.00000000000E+00 0.  1.
</event>
<event>
 7    1  0.2688177E-009  0.2090176E+03  0.7561462E-02  0.1142346E+00
         -2   -1    0    0    0  501 -0.00000000000E+00  0.00000000000E+00  0.51571595333E+02  0.51571595333E+02  0.00000000000E+00 0.  1.
          2   -1    0    0  501    0  0.00000000000E+00 -0.00000000000E+00 -0.11815579748E+04  0.11815579748E+04  0.00000000000E+00 0. -1.
         25    2    1    2    0    0 -0.49075481689E+02  0.19817521140E+03 -0.36283987607E+03  0.43471890880E+03  0.12508371872E+03 0.  0.
          5    1    3    3  502    0 -0.10414245178E+02 -0.66337034360E+00 -0.11067259164E+03  0.11124204018E+03  0.41800000000E+01 0. -1.
         -5    1    3    3    0  502 -0.38661236511E+02  0.19883858174E+03 -0.25216728443E+03  0.32347686862E+03  0.41800000000E+01 0. -1.
        -11    1    1    2    0    0  0.19745951956E+02 -0.73035104348E+02 -0.14974800090E+03  0.16777512587E+03  0.00000000000E+00 0. -1.
         11    1    1    2    0    0  0.29329529733E+02 -0.12514010705E+03 -0.61739850247E+03  0.63063553544E+03  0.00000000000E+00 0.  1.
</event>
<event>
 7    1  0.2688177E-009  0.1487274E+03  0.7561462E-02  0.1202046E+00
          1   -1    0    0  501    0  0.00000000000E+00  0.00000000000E+00  0.30919083631E+03  0.30919083631E+03  0.00000000000E+00 0.  1.
         -1   -1    0    0    0  501 -0.00000000000E+00 -0.00000000000E+00 -0.16150536566E+03  0.16150536566E+03  0.00000000000E+00 0. -1.
         25    2    1    2    0    0 -0.10787227458E+03 -0.24315536114E+02 -0.92296467674E+02  0.19077245913E+03  0.12509124788E+03 0.  0.
          5    1    3    3  502    0 -0.11467008943E+03 -0.59150447964E+02 -0.59039774009E+02  0.14195482457E+03  0.41800000000E+01 0. -1.
         -5    1    3    3    0  502  0.67978148469E+01  0.34834911849E+02 -0.33256693665E+02  0.48817634557E+02  0.41800000000E+01 0. -1.
        -11    1    1    2    0    0  0.87737979974E+02 -0.14469342531E+02  0.10266632668E+03  0.13582227224E+03  0.00000000000E+00 0. -1.
         11    1    1    2    0    0  0.20134294605E+02  0.38784878646E+02  0.13731561164E+03  0.14410147061E+03  0.00000000000E+00 0.  1.
</event>
<event>
 7    1  0.2688177E-009  0.1148228E+03  0.7561462E-02  0.1251891E+00
          1   -1    0    0  501    0  0.00000000000E+00  0.00000000000E+00  0.49986949802E+02  0.49986949802E+02  0.00000000000E+00 0. -1.
         -1   -1    0    0    0  501 -0.00000000000E+00 -0.00000000000E+00 -0.28151269943E+03  0.28151269943E+03  0.00000000000E+00 0.  1.
         25    2    1    2    0    0  0.37267818457E+02 -0.12475168251E+02 -0.13866816267E+03  0.19084535355E+03  0.12509424254E+03 0.  0.
          5    1    3    3  502    0 -0.56431996170E+01  0.49141979238E+02 -0.85078124363E+02  0.98501469382E+02  0.41800000000E+01 0.  1.
         -5    1    3    3    0  502  0.42911018074E+02 -0.61617147489E+02 -0.53590038305E+02  0.92343884163E+02  0.41800000000E+01 0.  1.
        -11    1    1    2    0    0 -0.11577643097E+02  0.54407098758E+02 -0.58100318456E+02  0.80435198884E+02  0.00000000000E+00 0.  1.
         11    1    1    2    0    0 -0.25690175359E+02 -0.41931930507E+02 -0.34757268509E+02  0.60219096807E+02  0.00000000000E+00 0. -1.
</event>
<event>
 7    1  0.2688177E-009  0.1072839E+03  0.7561462E-02  0.1265684E+00
          1   -1    0    0  501    0  0.00000000000E+00  0.00000000000E+00  0.76379764024E+02  0.76379764024E+02  0.00000000000E+00 0. -1.
         -1   -1    0    0    0  501 -0.00000000000E+00 -0.00000000000E+00 -0.19120014446E+03  0.19120014446E+03  0.00000000000E+00 0.  1.
         25    2    1    2    0    0 -0.41264124981E+02  0.32518689215E+02 -0.48109855182E+02  0.14395103834E+03  0.12508856908E+03 0.  0.
          5    1    3    3  502    0 -0.68899558050E+02  0.17648256888E+01 -0.68847143157E+02  0.97507257320E+02  0.41800000000E+01 0.  1.
         -5    1    3    3    0  502  0.27635433070E+02  0.30753863526E+02  0.20737287975E+02  0.46443781019E+02  0.41800000000E+01 0.  1.
        -11    1    1    2    0    0  0.61181005856E+02 -0.48782200267E+02 -0.52770628438E+02  0.94379858901E+02  0.00000000000E+00 0.  1.
         11    1    1    2    0    0 -0.19916880875E+02  0.16263511052E+02 -0.13939896815E+02  0.29249011244E+02  0.00000000000E+00 0. -1.
</event>
<event>
 7    1  0.2688177E-009  0.1186019E+03  0.7561462E-02  0.1245422E+00
         -2   -1    0    0    0  501 -0.00000000000E+00  0.00000000000E+00  0.21672444208E+03  0.21672444208E+03  0.00000000000E+00 0.  1.
          2   -1    0    0  501    0  0.00000000000E+00 -0.00000000000E+00 -0.12021243215E+03  0.12021243215E+03  0.00000000000E+00 0. -1.
         25    2    1    2    0    0 -0.10248037680E+03  0.10270388657E+02 -0.20520353858E+02  0.16333035717E+03  0.12509201468E+03 0.  0.
          5    1    3    3  502    0 -0.51938685206E+02  0.22692474505E+02 -0.70837086432E+02  0.90818173480E+02  0.41800000000E+01 0.  1.
         -5    1    3    3    0  502 -0.50541691598E+02 -0.12422085848E+02  0.50316732574E+02  0.72512183689E+02  0.41800000000E+01 0.  1.
        -11    1    1    2    0    0  0.36416018333E+02  0.33032195423E+02  0.42082323604E+02  0.64716105303E+02  0.00000000000E+00 0. -1.
         11    1    1    2    0    0  0.66064358471E+02 -0.43302584080E+02  0.74950040185E+02  0.10889041175E+03  0.00000000000E+00 0.  1.
</event>
<event>
 7    1  0.2688177E-009  0.9302959E+02  0.7561462E-02  0.1295677E+00
          1   -1    0    0  501    0  0.00000000000E+00  0.00000000000E+00  0.26656552130E+02  0.26656552130E+02  0.00000000000E+00 0. -1.
         -1   -1    0    0    0  501 -0.00000000000E+00 -0.00000000000E+00 -0.58163113638E+03  0.58163113638E+03  0.00000000000E+00 0.  1.
         25    2    1    2    0    0 -0.29753160543E+02  0.42987381788E+02 -0.37101158544E+03  0.39500682604E+03  0.12509048939E+03 0.  0.
          5    1    3    3  502    0 -0.51353662481E+01 -0.17547855805E+02 -0.29104984181E+03  0.29165353083E+03  0.41800000000E+01 0.  1.
         -5    1    3    3    0  502 -0.24617794294E+02  0.60535237593E+02 -0.79961743626E+02  0.10335329521E+03  0.41800000000E+01 0.  1.
        -11    1    1    2    0    0 -0.77334889262E+01  0.23913601430E+02 -0.81568121316E+02  0.85352361417E+02  0.00000000000E+00 0.  1.
         11    1    1    2    0    0  0.37486649469E+02 -0.66900983218E+02 -0.10239487750E+03  0.12792850105E+03  0.00000000000E+00 0. -1.
</event>
<event>
 7    1  0.2688177E-009  0.1184813E+03  0.7561462E-02  0.1245624E+00
         -1   -1    0    0    0  501 -0.00000000000E+00  0.00000000000E+00  0.28765374791E+02  0.28765374791E+02  0.00000000000E+00 0.  1.
          1   -1    0    0  501    0  0.00000000000E+00 -0.00000000000E+00 -0.54698686157E+03  0.54698686157E+03  0.00000000000E+00 0. -1.
         25    2    1    2    0    0  0.19562614758E+02 -0.52524424496E+02 -0.21466750436E+03  0.25471067981E+03  0.12511547432E+03 0.  0.
          5    1    3    3  502    0 -0.47729551011E+02 -0.49634890362E+02 -0.12065667628E+03  0.13898646809E+03  0.41800000000E+01 0.  1.
         -5    1    3    3    0  502  0.67292165769E+02 -0.28895341341E+01 -0.94010828084E+02  0.11572421172E+03  0.41800000000E+01 0.  1.
        -11    1    1    2    0    0 -0.45305444557E+02  0.38995488250E+01 -0.94540807623E+02  0.10490831279E+03  0.00000000000E+00 0.  1.
         11    1    1    2    0    0  0.25742829799E+02  0.48624875671E+02 -0.20901317480E+03  0.21613324376E+03  0.00000000000E+00 0. -1.
</event>
<event>
 7    1  0.2688177E-009  0.8256011E+02  0.7561462E-02  0.1321939E+00
         -2   -1    0    0    0  501 -0.00000000000E+00  0.00000000000E+00  0.18321865251E+02  0.18321865251E+02  0.00000000000E+00 0.  1.
          2   -1    0    0  501    0  0.00000000000E+00 -0.00000000000E+00 -0.99601741444E+03  0.99601741444E+03  0.00000000000E+00 0. -1.
         25    2    1    2    0    0 -0.52424150497E+02 -0.16748414375E+01 -0.76880470422E+03  0.78067897161E+03  0.12509151382E+03 0.  0.
          5    1    3    3  502    0 -0.32471705468E+02 -0.15062143654E+02 -0.74728581511E+03  0.74815429003E+03  0.41800000000E+01 0.  1.
         -5    1    3    3    0  502 -0.19952445028E+02  0.13387302216E+02 -0.21518889117E+02  0.32524681583E+02  0.41800000000E+01 0.  1.
        -11    1    1    2    0    0  0.48009414010E+02 -0.40181238439E+02 -0.12600266987E+03  0.14069864452E+03  0.00000000000E+00 0.  1.
         11    1    1    2    0    0  0.44147364869E+01  0.41856079877E+02 -0.82888175095E+02  0.92961663558E+02  0.00000000000E+00 0. -1.
</event>
<event>
 7    1  0.2688177E-009  0.2312555E+03  0.7561462E-02  0.1125759E+00
         -2   -1    0    0    0  501 -0.00000000000E+00  0.00000000000E+00  0.38123171501E+02  0.38123171501E+02  0.00000000000E+00 0. -1.
          2   -1    0    0  501    0  0.00000000000E+00 -0.00000000000E+00 -0.15245520319E+04  0.15245520319E+04  0.00000000000E+00 0.  1.
         25    2    1    2    0    0 -0.20775474831E+03 -0.62652616315E+02 -0.80808622663E+03  0.84601261901E+03  0.12508643442E+03 0.  0.
          5    1    3    3  502    0  0.98366254968E+01 -0.19068674903E+02 -0.31575833433E+02  0.38404156295E+02  0.41800000000E+01 0.  1.
         -5    1    3    3    0  502 -0.21759137381E+03 -0.43583941412E+02 -0.77651039320E+03  0.80760846271E+03  0.41800000000E+01 0.  1.
        -11    1    1    2    0    0  0.86097583305E+02  0.40061494819E+02 -0.18388394249E+03  0.20695656917E+03  0.00000000000E+00 0. -1.
         11    1    1    2    0    0  0.12165716501E+03  0.22591121496E+02 -0.49445869124E+03  0.50970601518E+03  0.00000000000E+00 0.  1.
</event>
<event>
 7    1  0.2688177E-009  0.1041978E+03  0.7561462E-02  0.1271708E+00
          1   -1    0    0  501    0  0.00000000000E+00  0.00000000000E+00  0.11632063940E+04  0.11632063940E+04  0.00000000000E+00 0. -1.
         -1   -1    0    0    0  501 -0.00000000000E+00 -0.00000000000E+00 -0.13006172991E+02  0.13006172991E+02  0.00000000000E+00 0.  1.
         25    2    1    2    0    0  0.17511908121E+02 -0.43030104992E+02  0.83011493408E+03  0.84077068632E+03  0.12508511640E+03 0.  0.
          5    1    3    3  502    0  0.39166931478E+02  0.19567221020E+02  0.59045313821E+03  0.59208893376E+03  0.41800000000E+01 0.  1.
         -5    1    3    3    0  502 -0.21655023357E+02 -0.62597326012E+02  0.23966179587E+03  0.24868175257E+03  0.41800000000E+01 0.  1.
        -11    1    1    2    0    0 -0.52761625634E+02  0.27914799431E+02  0.22810022685E+03  0.23578112446E+03  0.00000000000E+00 0. -1.
         11    1    1    2    0    0  0.35249717513E+02  0.15115305560E+02  0.91985060053E+02  0.99660756167E+02  0.00000000000E+00 0.  1.
</event>
<event>
 7    1  0.2688177E-009  0.1132506E+03  0.7561462E-02  0.1254666E+00
         -2   -1    0    0    0  501 -0.00000000000E+00  0.00000000000E+00  0.10310326815E+03  0.10310326815E+03  0.00000000000E+00 0.  1.
          2   -1    0    0  501    0  0.00000000000E+00 -0.00000000000E+00 -0.19888890123E+03  0.19888890123E+03  0.00000000000E+00 0. -1.
         25    2    1    2    0    0  0.72609465654E+02  0.29294109314E+02 -0.11104979582E+03  0.18469254549E+03  0.12509596263E+03 0.  0.
          5    1    3    3  502    0  0.95489758064E+02  0.41945247608E+02 -0.11777724663E+03  0.15737423524E+03  0.41800000000E+01 0. -1.
         -5    1    3    3    0  502 -0.22880292410E+02 -0.12651138294E+02  0.67274508148E+01  0.27318310258E+02  0.41800000000E+01 0. -1.
        -11    1    1    2    0    0 -0.40513931393E+02  0.13002030994E+02  0.40293910319E+02  0.58600602861E+02  0.00000000000E+00 0.  1.
         11    1    1    2    0    0 -0.32095534261E+02 -0.42296140308E+02 -0.25029747586E+02  0.58699021020E+02  0.00000000000E+00 0. -1.
</event>
<event>
 7    1  0.2688177E-009  0.1121722E+03  0.7561462E-02  0.1256599E+00
          1   -1    0    0  501    0  0.00000000000E+00  0.00000000000E+00  0.15739382217E+02  0.15739382217E+02  0.00000000000E+00 0. -1.
         -1   -1    0    0    0  501 -0.00000000000E+00 -0.00000000000E+00 -0.11963776232E+04  0.11963776232E+04  0.00000000000E+00 0.  1.
         25    2    1    2    0    0  0.73770215008E+02 -0.18335567911E+02 -0.80238318450E+03  0.81562552408E+03  0.12509189857E+03 0.  0.
          5    1    3    3  502    0  0.10349899497E+03 -0.21299806656E+02 -0.46390600884E+03  0.47580666364E+03  0.41800000000E+01 0. -1.
         -5    1    3    3    0  502 -0.29728779965E+02  0.29642387445E+01 -0.33847717565E+03  0.33981886043E+03  0.41800000000E+01 0. -1.
        -11    1    1    2    0    0 -0.72598240232E+02  0.25972294616E+01 -0.37277167016E+03  0.37978410730E+03  0.00000000000E+00 0.  1.
         11    1    1    2    0    0 -0.11719747757E+01  0.15738338450E+02 -0.54833863421E+01  0.16707374055E+02  0.00000000000E+00 0. -1.
</event>
<event>
 7    1  0.2688177E-009  0.1042718E+03  0.7561462E-02  0.1271561E+00
          1   -1    0    0  501    0  0.00000000000E+00  0.00000000000E+00  0.18217592704E+03  0.18217592704E+03  0.00000000000E+00 0. -1.
         -1   -1    0    0    0  501 -0.00000000000E+00 -0.00000000000E+00 -0.10102951848E+03  0.10102951848E+03  0.00000000000E+00 0.  1.
         25    2    1    2    0    0 -0.36770219250E+02  0.69268851265E+02  0.17615393838E+02  0.14868972643E+03  0.12509240531E+03 0.  0.
          5    1    3    3  502    0 -0.43850155413E+02  0.84573984418E+02 -0.28405623837E+02  0.99498476550E+02  0.41800000000E+01 0. -1.
         -5    1    3    3    0  502  0.70799361633E+01 -0.15305133153E+02  0.46021017675E+02  0.49191249880E+02  0.41800000000E+01 0. -1.
        -11    1    1    2    0    0 -0.11373961151E+02  0.98954604639E-01 -0.15255754281E+02  0.19029314831E+02  0.00000000000E+00 0.  1.
         11    1    1    2    0    0  0.48144180401E+02 -0.69367805870E+02  0.78786769004E+02  0.11548640425E+03  0.00000000000E+00 0. -1.
</event>
<event>
 7    1  0.2688177E-009  0.1404374E+03  0.7561462E-02  0.1212742E+00
         -3   -1    0    0    0  501 -0.00000000000E+00  0.00000000000E+00  0.89794759503E+02  0.89794759503E+02  0.00000000000E+00 0.  1.
          3   -1    0    0  501    0  0.00000000000E+00 -0.00000000000E+00 -0.30108706440E+03  0.30108706440E+03  0.00000000000E+00 0. -1.
         25    2    1    2    0    0 -0.36703874846E+02  0.86925449312E+02 -0.20701514600E+03  0.25961672406E+03  0.12506943900E+03 0.  0.
          5    1    3    3  502    0 -0.51516178447E+02  0.11048105247E+03 -0.13314327103E+03  0.18056739080E+03  0.41800000000E+01 0. -1.
         -5    1    3    3    0  502  0.14812303601E+02 -0.23555603163E+02 -0.73871874963E+02  0.79049333261E+02  0.41800000000E+01 0. -1.
        -11    1    1    2    0    0 -0.28362779642E+02 -0.10148154162E+02  0.34933485724E+01  0.30325497295E+02  0.00000000000E+00 0.  1.
         11    1    1    2    0    0  0.65066654488E+02 -0.76777295150E+02 -0.77705074723E+01  0.10093960255E+03  0.00000000000E+00 0. -1.
</event>
<event>
 7    1  0.2688177E-009  0.1127693E+03  0.7561462E-02  0.1255526E+00
          2   -1    0    0  501    0  0.00000000000E+00  0.00000000000E+00  0.75713069792E+03  0.75713069792E+03  0.00000000000E+00 0. -1.
         -2   -1    0    0    0  501 -0.00000000000E+00 -0.00000000000E+00 -0.18080007480E+02  0.18080007480E+02  0.00000000000E+00 0.  1.
         25    2    1    2    0    0 -0.41574549109E+02  0.21735714349E+02  0.41796317660E+03  0.43879544879E+03  0.12508934598E+03 0.  0.
          5    1    3    3  502    0 -0.59772953470E+02  0.62888498058E+02  0.30500676643E+03  0.31713462302E+03  0.41800000000E+01 0.  1.
         -5    1    3    3    0  502  0.18198404361E+02 -0.41152783710E+02  0.11295641017E+03  0.12166082577E+03  0.41800000000E+01 0.  1.
        -11    1    1    2    0    0  0.65345273579E+01 -0.48783651337E+02  0.22915260109E+03  0.23437887975E+03  0.00000000000E+00 0. -1.
         11    1    1    2    0    0  0.35040021751E+02  0.27047936988E+02  0.91934912755E+02  0.10203637686E+03  0.00000000000E+00 0.  1.
</event>
<event>
 7    1  0.2688177E-009  0.8777078E+02  0.7561462E-02  0.1308342E+00
         -3   -1    0    0    0  501 -0.00000000000E+00  0.00000000000E+00  0.47687815186E+02  0.47687815186E+02  0.00000000000E+00 0.  1.
          3   -1    0    0  501    0  0.00000000000E+00 -0.00000000000E+00 -0.30642100830E+03  0.30642100830E+03  0.00000000000E+00 0. -1.
         25    2    1    2    0    0  0.22256921922E+02 -0.10342079747E+02 -0.23345095882E+03  0.26598935060E+03  0.12509458530E+03 0.  0.
          5    1    3    3  502    0  0.69343771955E+02 -0.13051664141E+02 -0.87120927431E+02  0.11218927329E+03  0.41800000000E+01 0. -1.
         -5    1    3    3    0  502 -0.47086850033E+02  0.27095843940E+01 -0.14633003139E+03  0.15380007731E+03  0.41800000000E+01 0. -1.
        -11    1    1    2    0    0 -0.19449760282E+02 -0.19494957193E+02 -0.44634057960E+02  0.52445644823E+02  0.00000000000E+00 0. -1.
         11    1    1    2    0    0 -0.28071616394E+01  0.29837036939E+02  0.19351823662E+02  0.35673828065E+02  0.00000000000E+00 0.  1.
</event>
<event>
 7    1  0.2688177E-009  0.8774402E+02  0.7561462E-02  0.1308409E+00
          1   -1    0    0  501    0  0.00000000000E+00  0.00000000000E+00  0.61183738433E+02  0.61183738433E+02  0.00000000000E+00 0.  1.
         -1   -1    0    0    0  501 -0.00000000000E+00 -0.00000000000E+00 -0.26025870269E+03  0.26025870269E+03  0.00000000000E+00 0. -1.
         25    2    1    2    0    0  0.16248880167E+01 -0.62941598254E+02 -0.12893631401E+03  0.19036107866E+03  0.12509389333E+03 0.  0.
          5    1    3    3  502    0 -0.77297543132E+00  0.27732440236E+00 -0.12685303368E+03  0.12692454039E+03  0.41800000000E+01 0.  1.
         -5    1    3    3    0  502  0.23978634480E+01 -0.63218922656E+02 -0.20832803267E+01  0.63436538271E+02  0.41800000000E+01 0.  1.
        -11    1    1    2    0    0 -0.32738633551E+01  0.85321976688E+02 -0.42193531890E+02  0.95241020682E+02  0.00000000000E+00 0.  1.
         11    1    1    2    0    0  0.16489753384E+01 -0.22380378435E+02 -0.27945118356E+02  0.35840341774E+02  0.00000000000E+00 0. -1.
</event>
<event>
 7    1  0.2688177E-009  0.2684532E+03  0.7561462E-02  0.1102168E+00
          1   -1    0    0  501    0  0.00000000000E+00  0.00000000000E+00  0.12483266817E+04  0.12483266817E+04  0.00000000000E+00 0. -1.
         -1   -1    0    0    0  501 -0.00000000000E+00 -0.00000000000E+00 -0.85832210234E+02  0.85832210234E+02  0.00000000000E+00 0.  1.
         25    2    1    2    0    0 -0.21056409716E+03  0.13814087644E+03  0.22703792339E+03  0.36141438548E+03  0.12511594070E+03 0.  0.
          5    1    3    3  502    0  0.14003522968E+02  0.20111098614E+02  0.77100673703E+01  0.26028301555E+02  0.41800000000E+01 0.  1.
         -5    1    3    3    0  502 -0.22456762013E+03  0.11802977782E+03  0.21932785602E+03  0.33538608392E+03  0.41800000000E+01 0.  1.
        -11    1    1    2    0    0  0.99038825330E+02 -0.99230713794E+02  0.38433482526E+03  0.40910717592E+03  0.00000000000E+00 0.  1.
         11    1    1    2    0    0  0.11152527183E+03 -0.38910162643E+02  0.55112172280E+03  0.56363733052E+03  0.00000000000E+00 0. -1.
</event>
<event>
 7    1  0.2688177E-009  0.2578878E+03  0.7561462E-02  0.1108419E+00
         -2   -1    0    0    0  501 -0.00000000000E+00  0.00000000000E+00  0.91512782256E+02  0.91512782256E+02  0.00000000000E+00 0.  1.
          2   -1    0    0  501    0  0.00000000000E+00 -0.00000000000E+00 -0.14272146961E+04  0.14272146961E+04  0.00000000000E+00 0. -1.
         25    2    1    2    0    0 -0.22178071399E+03 -0.11935143318E+03 -0.18380253775E+03  0.33593965265E+03  0.12506249495E+03 0.  0.
          5    1    3    3  502    0 -0.72294918313E+02 -0.22048197592E+02 -0.12852256872E+03  0.14915830953E+03  0.41800000000E+01 0. -1.
         -5    1    3    3    0  502 -0.14948579567E+03 -0.97303235591E+02 -0.55279969030E+02  0.18678134313E+03  0.41800000000E+01 0. -1.
        -11    1    1    2    0    0  0.82370145610E+02  0.84413101629E+02 -0.65444900987E+03  0.66499166847E+03  0.00000000000E+00 0.  1.
         11    1    1    2    0    0  0.13941056838E+03  0.34938331554E+02 -0.49745036624E+03  0.51779615725E+03  0.00000000000E+00 0. -1.
</event>
<event>
 7    1  0.2688177E-009  0.1180490E+03  0.7561462E-02  0.1246351E+00
          1   -1    0    0  501    0  0.00000000000E+00  0.00000000000E+00  0.39973624541E+03  0.39973624541E+03  0.00000000000E+00 0. -1.
         -1   -1    0    0    0  501 -0.00000000000E+00 -0.00000000000E+00 -0.48617763394E+02  0.48617763394E+02  0.00000000000E+00 0.  1.
         25    2    1    2    0    0  0.34633657327E+02 -0.66001710660E+02  0.12261264575E+03  0.19036336091E+03  0.12509449328E+03 0.  0.
          5    1    3    3  502    0 -0.12826583027E+02  0.16345653376E+02  0.85756929582E+02  0.88336996710E+02  0.41800000000E+01 0. -1.
         -5    1    3    3    0  502  0.47460240354E+02 -0.82347364036E+02  0.36855716171E+02  0.10202636420E+03  0.41800000000E+01 0. -1.
        -11    1    1    2    0    0  0.20351069172E+02  0.61290871074E+02  0.12304001232E+03  0.13895892028E+03  0.00000000000E+00 0. -1.
         11    1    1    2    0    0 -0.54984726499E+02  0.47108395862E+01  0.10546582394E+03  0.11903172761E+03  0.00000000000E+00 0.  1.
</event>
<event>
 7    1  0.2688177E-009  0.1332503E+03  0.7561462E-02  0.1222711E+00
         -2   -1    0    0    0  501 -0.00000000000E+00  0.00000000000E+00  0.93989350681E+02  0.93989350681E+02  0.00000000000E+00 0.  1.
          2   -1    0    0  501    0  0.00000000000E+00 -0.00000000000E+00 -0.19681114782E+03  0.19681114782E+03  0.00000000000E+00 0. -1.
         25    2    1    2    0    0  0.81261535822E+02 -0.39418092311E+01 -0.51411819395E+02  0.15782780414E+03  0.12508982981E+03 0.  0.
          5    1    3    3  502    0  0.10327974715E+03  0.30012590415E+02 -0.29425671136E+02  0.11158317201E+03  0.41800000000E+01 0.  1.
         -5    1    3    3    0  502 -0.22018211326E+02 -0.33954399647E+02 -0.21986148258E+02  0.46244632128E+02  0.41800000000E+01 0.  1.
        -11    1    1    2    0    0 -0.69954848819E+02 -0.34581179990E+02 -0.50236461026E+02  0.92807547641E+02  0.00000000000E+00 0.  1.
         11    1    1    2    0    0 -0.11306687003E+02  0.38522989221E+02 -0.11735167180E+01  0.40165146720E+02  0.00000000000E+00 0. -1.
</event>
<event>
 7    1  0.2688177E-009  0.1080847E+03  0.7561462E-02  0.1264158E+00
          1   -1    0    0  501    0  0.00000000000E+00  0.00000000000E+00  0.41265093822E+03  0.41265093822E+03  0.00000000000E+00 0. -1.
         -1   -1    0    0    0  501 -0.00000000000E+00 -0.00000000000E+00 -0.38295154085E+02  0.38295154085E+02  0.00000000000E+00 0.  1.
         25    2    1    2    0    0  0.32250936965E+02 -0.29998696063E+02  0.29382455517E+03  0.32236668167E+03  0.12508942213E+03 0.  0.
          5    1    3    3  502    0  0.74761199733E+02 -0.94062220385E+01  0.23493531907E+03  0.24675856732E+03  0.41800000000E+01 0. -1.
         -5    1    3    3    0  502 -0.42510262768E+02 -0.20592474025E+02  0.58889236103E+02  0.75608114352E+02  0.41800000000E+01 0. -1.
        -11    1    1    2    0    0 -0.89180380551E+01 -0.28733532053E+02  0.56800008528E+01  0.30617146775E+02  0.00000000000E+00 0.  1.
         11    1    1    2    0    0 -0.23332898910E+02  0.58732228116E+02  0.74851228111E+02  0.97962263861E+02  0.00000000000E+00 0. -1.
</event>
<event>
 7    1  0.2688177E-009  0.9492256E+02  0.7561462E-02  0.1291351E+00
         -2   -1    0    0    0  501 -0.00000000000E+00  0.00000000000E+00  0.34445414575E+02  0.34445414575E+02  0.00000000000E+00 0.  1.
          2   -1    0    0  501    0  0.00000000000E+00 -0.00000000000E+00 -0.51707079409E+03  0.51707079409E+03  0.00000000000E+00 0. -1.
         25    2    1    2    0    0  0.13170983341E+02 -0.64299543114E+02 -0.34800654170E+03  0.37558577173E+03  0.12509281678E+03 0.  0.
          5    1    3    3  502    0 -0.18053309741E+02 -0.70251032878E+01 -0.28198027495E+03  0.28267582480E+03  0.41800000000E+01 0.  1.
         -5    1    3    3    0  502  0.31224293082E+02 -0.57274439826E+02 -0.66026266758E+02  0.92909946926E+02  0.41800000000E+01 0.  1.
        -11    1    1    2    0    0 -0.31257747492E+02  0.76637260809E+02 -0.12909759560E+03  0.15335092341E+03  0.00000000000E+00 0. -1.
         11    1    1    2    0    0  0.18086764151E+02 -0.12337717695E+02 -0.55212422140E+01  0.22579513524E+02  0.00000000000E+00 0.  1.
</event>
<event>
 7    1  0.2688177E-009  0.1735409E+03  0.7561462E-02  0.1174205E+00
          1   -1    0    0  501    0  0.00000000000E+00  0.00000000000E+00  0.10729531269E+04  0.10729531269E+04  0.00000000000E+00 0. -1.
         -1   -1    0    0    0  501 -0.00000000000E+00 -0.00000000000E+00 -0.30763424936E+02  0.30763424936E+02  0.00000000000E+00 0.  1.
         25    2    1    2    0    0  0.13312238367E+03  0.53703438332E+02  0.49344512843E+03  0.52890507812E+03  0.12508740370E+03 0.  0.
          5    1    3    3  502    0  0.15607759811E+03  0.53097159757E+02  0.45457820714E+03  0.48356834451E+03  0.41800000000E+01 0. -1.
         -5    1    3    3    0  502 -0.22955214437E+02  0.60627857498E+00  0.38866921290E+02  0.45336733607E+02  0.41800000000E+01 0. -1.
        -11    1    1    2    0    0 -0.66177022032E+02  0.93834892762E+01  0.34282470489E+03  0.34927958200E+03  0.00000000000E+00 0.  1.
         11    1    1    2    0    0 -0.66945361642E+02 -0.63086927608E+02  0.20591986861E+03  0.22553189169E+03  0.00000000000E+00 0. -1.
</event>
<event>
 7    1  0.2688177E-009  0.2354977E+03  0.7561462E-02  0.1122829E+00
          2   -1    0    0  501    0  0.00000000000E+00  0.00000000000E+00  0.76694231142E+02  0.76694231142E+02  0.00000000000E+00 0. -1.
         -2   -1    0    0    0  501 -0.00000000000E+00 -0.00000000000E+00 -0.73566036834E+03  0.73566036834E+03  0.00000000000E+00 0.  1.
         25    2    1    2    0    0 -0.17174877248E+03 -0.11767516814E+03 -0.32100410385E+03  0.40254625448E+03  0.12511900838E+03 0.  0.
          5    1    3    3  502    0 -0.13603582831E+03 -0.14156922048E+03 -0.28618228673E+03  0.34708120722E+03  0.41800000000E+01 0.  1.
         -5    1    3    3    0  502 -0.35712944175E+02  0.23894052346E+02 -0.34821817129E+02  0.55465047258E+02  0.41800000000E+01 0.  1.
        -11    1    1    2    0    0  0.46976540335E+02  0.93091058955E+02 -0.16338445763E+03  0.19382265501E+03  0.00000000000E+00 0.  1.
         11    1    1    2    0    0  0.12477223215E+03  0.24584109181E+02 -0.17457757571E+03  0.21598568999E+03  0.00000000000E+00 0. -1.
</event>
<event>
 7    1  0.2688177E-009  0.1321310E+03  0.7561462E-02  0.1224328E+00
          1   -1    0    0  501    0  0.00000000000E+00  0.00000000000E+00  0.38905618552E+03  0.38905618552E+03  0.00000000000E+00 0. -1.
         -1   -1    0    0    0  501 -0.00000000000E+00 -0.00000000000E+00 -0.57175867267E+02  0.57175867267E+02  0.00000000000E+00 0.  1.
         25    2    1    2    0    0  0.56995702015E+02 -0.83174710890E+02  0.20547094135E+03  0.26083022179E+03  0.12509018459E+03 0.  0.
          5    1    3    3  502    0  0.70945927088E+02  0.49991189361E+01  0.94532370931E+02  0.11837295854E+03  0.41800000000E+01 0.  1.
         -5    1    3    3    0  502 -0.13950225074E+02 -0.88173829826E+02  0.11093857042E+03  0.14245726325E+03  0.41800000000E+01 0.  1.
        -11    1    1    2    0    0 -0.35908159765E+02  0.31237019040E+02  0.52003154018E+00  0.47596404581E+02  0.00000000000E+00 0.  1.
         11    1    1    2    0    0 -0.21087542250E+02  0.51937691849E+02  0.12588934537E+03  0.13780542641E+03  0.00000000000E+00 0. -1.
</event>
<event>
 7    1  0.2688177E-009  0.1761911E+03  0.7561462E-02  0.1171541E+00
         -2   -1    0    0    0  501 -0.00000000000E+00  0.00000000000E+00  0.82019154382E+03  0.82019154382E+03  0.00000000000E+00 0. -1.
          2   -1    0    0  501    0  0.00000000000E+00 -0.00000000000E+00 -0.45514825880E+02  0.45514825880E+02  0.00000000000E+00 0.  1.
         25    2    1    2    0    0  0.14089298592E+03 -0.29085807036E+02  0.25297009610E+03  0.31675647443E+03  0.12507588465E+03 0.  0.
          5    1    3    3  502    0  0.53118080458E+01  0.34982585847E+02  0.81369593382E+02  0.88828372406E+02  0.41800000000E+01 0. -1.
         -5    1    3    3    0  502  0.13558117788E+03 -0.64068392883E+02  0.17160050272E+03  0.22792810203E+03  0.41800000000E+01 0. -1.
        -11    1    1    2    0    0 -0.28910524149E+02 -0.28689267038E+02  0.82212499843E+02  0.91748501787E+02  0.00000000000E+00 0.  1.
         11    1    1    2    0    0 -0.11198246177E+03  0.57775074073E+02  0.43949412200E+03  0.45720139348E+03  0.00000000000E+00 0. -1.
</event>
<event>
 7    1  0.2688177E-009  0.6358697E+02  0.7561462E-02  0.1383367E+00
          1   -1    0    0  501    0  0.00000000000E+00  0.00000000000E+00  0.42316590665E+03  0.42316590665E+03  0.00000000000E+00 0. -1.
         -1   -1    0    0    0  501 -0.00000000000E+00 -0.00000000000E+00 -0.32130018095E+02  0.32130018095E+02  0.00000000000E+00 0.  1.
         25    2    1    2    0    0  0.32969817444E+02  0.26551149176E+02  0.21190455212E+03  0.24968561416E+03  0.12508954523E+03 0.  0.
          5    1    3    3  502    0  0.27445739218E+02  0.29720780549E+02  0.22814792247E+03  0.23174455835E+03  0.41800000000E+01 0.  1.
         -5    1    3    3    0  502  0.55240782254E+01 -0.31696313727E+01 -0.16243370351E+02  0.17941055812E+02  0.41800000000E+01 0.  1.
        -11    1    1    2    0    0 -0.51989358873E+02 -0.85300130968E+01  0.16981856499E+03  0.17780326087E+03  0.00000000000E+00 0. -1.
         11    1    1    2    0    0  0.19019541429E+02 -0.18021136079E+02  0.93127714428E+01  0.27807049712E+02  0.00000000000E+00 0.  1.
</event>
<event>
 7    1  0.2688177E-009  0.1853502E+03  0.7561462E-02  0.1162723E+00
          2   -1    0    0  501    0  0.00000000000E+00  0.00000000000E+00  0.11291973814E+04  0.11291973814E+04  0.00000000000E+00 0. -1.
         -2   -1    0    0    0  501 -0.00000000000E+00 -0.00000000000E+00 -0.36364618297E+02  0.36364618297E+02  0.00000000000E+00 0.  1.
         25    2    1    2    0    0 -0.24866773686E+02  0.16898577077E+03  0.60899357141E+03  0.64474409545E+03  0.12508889415E+03 0.  0.
          5    1    3    3  502    0 -0.44034747145E+02  0.18867620101E+02  0.70250604743E+02  0.85133224484E+02  0.41800000000E+01 0. -1.
         -5    1    3    3    0  502  0.19167973458E+02  0.15011815067E+03  0.53874296667E+03  0.55961087096E+03  0.41800000000E+01 0. -1.
        -11    1    1    2    0    0  0.14991293512E+02 -0.13487624227E+03  0.45579645600E+03  0.47556992011E+03  0.00000000000E+00 0. -1.
         11    1    1    2    0    0  0.98754801747E+01 -0.34109528501E+02  0.28042735674E+02  0.45247984124E+02  0.00000000000E+00 0.  1.
</event>
<event>
 7    1  0.2688177E-009  0.1130876E+03  0.7561462E-02  0.1254957E+00
          1   -1    0    0  501    0  0.00000000000E+00  0.00000000000E+00  0.34484098502E+02  0.34484098502E+02  0.00000000000E+00 0. -1.
         -1   -1    0    0    0  501 -0.00000000000E+00 -0.00000000000E+00 -0.40634326137E+03  0.40634326137E+03  0.00000000000E+00 0.  1.
         25    2    1    2    0    0  0.16739340082E+02  0.33516853435E+02 -0.26725572517E+03  0.29745557305E+03  0.12510239939E+03 0.  0.
          5    1    3    3  502    0  0.43910657821E+02 -0.34305275218E+02 -0.13863504778E+03  0.14947289604E+03  0.41800000000E+01 0. -1.
         -5    1    3    3    0  502 -0.27171317739E+02  0.67822128653E+02 -0.12862067740E+03  0.14798267702E+03  0.41800000000E+01 0. -1.
        -11    1    1    2    0    0 -0.27885890457E+02 -0.61209550343E+02 -0.62939577898E+02  0.92117438120E+02  0.00000000000E+00 0. -1.
         11    1    1    2    0    0  0.11146550375E+02  0.27692696908E+02 -0.41663859793E+02  0.51254348695E+02  0.00000000000E+00 0.  1.
</event>
<event>
 7    1  0.2688177E-009  0.2220275E+03  0.7561462E-02  0.1132380E+00
         -1   -1    0    0    0  501 -0.00000000000E+00  0.00000000000E+00  0.16679498295E+03  0.16679498295E+03  0.00000000000E+00 0.  1.
          1   -1    0    0  501    0  0.00000000000E+00 -0.00000000000E+00 -0.32914107081E+03  0.32914107081E+03  0.00000000000E+00 0. -1.
         25    2    1    2    0    0 -0.71070479376E+02 -0.17754057525E+03 -0.13188685190E+03  0.26384049977E+03  0.12508396666E+03 0.  0.
          5    1    3    3  502    0 -0.27961185640E+01 -0.14032199942E+03 -0.12071831617E+03  0.18517145045E+03  0.41800000000E+01 0. -1.
         -5    1    3    3    0  502 -0.68274360812E+02 -0.37218575824E+02 -0.11168535727E+02  0.78669049320E+02  0.41800000000E+01 0. -1.
        -11    1    1    2    0    0 -0.15948037010E+02  0.12088828296E+03  0.59010046787E+01  0.12207841209E+03  0.00000000000E+00 0.  1.
         11    1    1    2    0    0  0.87018516386E+02  0.56652292285E+02 -0.36360240639E+02  0.11001714191E+03  0.00000000000E+00 0. -1.
</event>
<event>
 7    1  0.2688177E-009  0.1460746E+03  0.7561462E-02  0.1205381E+00
         -1   -1    0    0    0  501 -0.00000000000E+00  0.00000000000E+00  0.16269106637E+03  0.16269106637E+03  0.00000000000E+00 0.  1.
          1   -1    0    0  501    0  0.00000000000E+00 -0.00000000000E+00 -0.24003844847E+03  0.24003844847E+03  0.00000000000E+00 0. -1.
         25    2    1    2    0    0  0.11690879422E+03  0.25378354816E+02 -0.15555391718E+03  0.23271523217E+03  0.12509049154E+03 0.  0.
          5    1    3    3  502    0  0.13649500259E+03 -0.23884295944E+01 -0.13831620637E+03  0.19438476193E+03  0.41800000000E+01 0. -1.
         -5    1    3    3    0  502 -0.19586208365E+02  0.27766784410E+02 -0.17237710811E+02  0.38330470237E+02  0.41800000000E+01 0. -1.
        -11    1    1    2    0    0 -0.41801675966E+02 -0.19117694154E+02 -0.16625782684E+02  0.48880292483E+02  0.00000000000E+00 0.  1.
         11    1    1    2    0    0 -0.75107118257E+02 -0.62606606618E+01  0.94832317766E+02  0.12113399018E+03  0.00000000000E+00 0. -1.
</event>
<event>
 7    1  0.2688177E-009  0.1530981E+03  0.7561462E-02  0.1196717E+00
         -3   -1    0    0    0  501 -0.00000000000E+00  0.00000000000E+00  0.19733287395E+03  0.19733287395E+03  0.00000000000E+00 0.  1.
          3   -1    0    0  501    0  0.00000000000E+00 -0.00000000000E+00 -0.13843961578E+03  0.13843961578E+03  0.00000000000E+00 0. -1.
         25    2    1    2    0    0  0.92823091958E+02 -0.60464388549E+02 -0.22584183884E+02  0.16860889946E+03  0.12508735720E+03 0.  0.
          5    1    3    3  502    0  0.43234985676E+02 -0.94655228117E+02 -0.46373633108E-03  0.10414580451E+03  0.41800000000E+01 0.  1.
         -5    1    3    3    0  502  0.49588106282E+02  0.34190839568E+02 -0.22583720147E+02  0.64463094951E+02  0.41800000000E+01 0.  1.
        -11    1    1    2    0    0 -0.36731240153E+02  0.75188218869E+02  0.27897080147E+02  0.88208272518E+02  0.00000000000E+00 0.  1.
         11    1    1    2    0    0 -0.56091851805E+02 -0.14723830320E+02  0.53580361910E+02  0.78955317748E+02  0.00000000000E+00 0. -1.
</event>
<event>
 7    1  0.2688177E-009  0.1405498E+03  0.7561462E-02  0.1212591E+00
         -2   -1    0    0    0  501 -0.00000000000E+00  0.00000000000E+00  0.16454535166E+02  0.16454535166E+02  0.00000000000E+00 0.  1.
          2   -1    0    0  501    0  0.00000000000E+00 -0.00000000000E+00 -0.12258989939E+04  0.12258989939E+04  0.00000000000E+00 0. -1.
         25    2    1    2    0    0 -0.88061341890E+02 -0.15621173510E+02 -0.58947146062E+03  0.60919847321E+03  0.12508939152E+03 0.  0.
          5    1    3    3  502    0 -0.10696627268E+03  0.23084148175E+02 -0.38977360937E+03  0.40486491618E+03  0.41800000000E+01 0.  1.
         -5    1    3    3    0  502  0.18904930787E+02 -0.38705321685E+02 -0.19969785125E+03  0.20433355703E+03  0.41800000000E+01 0.  1.
        -11    1    1    2    0    0  0.64174640584E+02  0.53487548625E+02 -0.42068646332E+03  0.42890139050E+03  0.00000000000E+00 0.  1.
         11    1    1    2    0    0  0.23886701306E+02 -0.37866375115E+02 -0.19928653482E+03  0.20425366538E+03  0.00000000000E+00 0. -1.
</event>
<event>
 7    1  0.2688177E-009  0.2227518E+03  0.7561462E-02  0.1131848E+00
          2   -1    0    0  501    0  0.00000000000E+00  0.00000000000E+00  0.12528346016E+04  0.12528346016E+04  0.00000000000E+00 0. -1.
         -2   -1    0    0    0  501 -0.00000000000E+00 -0.00000000000E+00 -0.43885024884E+02  0.43885024884E+02  0.00000000000E+00 0.  1.
         25    2    1    2    0    0  0.17219021553E+03  0.11695282539E+03  0.62591787640E+03  0.67137746993E+03  0.12508831060E+03 0.  0.
          5    1    3    3  502    0  0.70626598166E+02  0.11578717910E+03  0.42615644528E+03  0.44723771696E+03  0.41800000000E+01 0. -1.
         -5    1    3    3    0  502  0.10156361737E+03  0.11656462895E+01  0.19976143111E+03  0.22413975298E+03  0.41800000000E+01 0. -1.
        -11    1    1    2    0    0 -0.13795186767E+03 -0.93152084953E+02  0.54143007037E+03  0.56644024383E+03  0.00000000000E+00 0. -1.
         11    1    1    2    0    0 -0.34238347860E+02 -0.23800740432E+02  0.41601629977E+02  0.58901912754E+02  0.00000000000E+00 0.  1.
</event>
<event>
 7    1  0.2688177E-009  0.3552514E+03  0.7561462E-02  0.1060480E+00
         -2   -1    0    0    0  501 -0.00000000000E+00  0.00000000000E+00  0.73120405787E+02  0.73120405787E+02  0.00000000000E+00 0. -1.
          2   -1    0    0  501    0  0.00000000000E+00 -0.00000000000E+00 -0.19991514497E+04  0.19991514497E+04  0.00000000000E+00 0.  1.
         25    2    1    2    0    0  0.30651744668E+03 -0.17515313665E+03 -0.70930586319E+03  0.80211769221E+03  0.12508564347E+03 0.  0.
          5    1    3    3  502    0  0.20690106694E+03 -0.12812121290E+03 -0.35022179451E+03  0.42649252567E+03  0.41800000000E+01 0.  1.
         -5    1    3    3    0  502  0.99616379736E+02 -0.47031923751E+02 -0.35908406868E+03  0.37562516654E+03  0.41800000000E+01 0.  1.
        -11    1    1    2    0    0 -0.18359060897E+03  0.75045669710E+02 -0.54477730412E+03  0.57975829044E+03  0.00000000000E+00 0. -1.
         11    1    1    2    0    0 -0.12292683771E+03  0.10010746694E+03 -0.67194787660E+03  0.69039587284E+03  0.00000000000E+00 0.  1.
</event>
<event>
 6    1  0.2688177E-009  0.1503164E+03  0.7561462E-02  0.1200085E+00
         -2   -1    0    0    0  501 -0.00000000000E+00  0.00000000000E+00  0.23870598073E+03  0.23870598073E+03  0.00000000000E+00 0.  1.
          2   -1    0    0  501    0  0.00000000000E+00 -0.00000000000E+00 -0.13175531662E+03  0.13175531662E+03  0.00000000000E+00 0. -1.
          5    1    1    2  502    0 -0.61027726958E+02 -0.34099680977E+02 -0.34997505361E+02  0.78290928478E+02  0.41800000000E+01 0. -1.
         -5    1    1    2    0  502 -0.58971528572E+02  0.74352198114E+02  0.30612126915E+02  0.99802130542E+02  0.41800000000E+01 0. -1.
        -11    1    1    2    0    0  0.54492107409E+02  0.68552480842E+01  0.95464225054E+02  0.11013538242E+03  0.00000000000E+00 0.  1.
         11    1    1    2    0    0  0.65507148121E+02 -0.47107765221E+02  0.15871817504E+02  0.82232855903E+02  0.00000000000E+00 0. -1.
</event>
<event>
 7    1  0.2688177E-009  0.1086153E+03  0.7561462E-02  0.1263156E+00
          1   -1    0    0  501    0  0.00000000000E+00  0.00000000000E+00  0.19099170564E+04  0.19099170564E+04  0.00000000000E+00 0. -1.
         -1   -1    0    0    0  501 -0.00000000000E+00 -0.00000000000E+00 -0.78018853083E+01  0.78018853083E+01  0.00000000000E+00 0.  1.
         25    2    1    2    0    0  0.39511050785E+02  0.56419138936E+02  0.14651544383E+04  0.14720969467E+04  0.12509056705E+03 0.  0.
          5    1    3    3  502    0 -0.33984112084E+01  0.80522942952E+02  0.11750168135E+04  0.11777849880E+04  0.41800000000E+01 0. -1.
         -5    1    3    3    0  502  0.42909461993E+02 -0.24103804016E+02  0.29013762478E+03  0.29431195866E+03  0.41800000000E+01 0. -1.
        -11    1    1    2    0    0 -0.41375521312E+02 -0.12566017467E+02  0.19850338138E+03  0.20315863501E+03  0.00000000000E+00 0. -1.
         11    1    1    2    0    0  0.18644705278E+01 -0.43853121469E+02  0.23845735140E+03  0.24246336001E+03  0.00000000000E+00 0.  1.
</event>
<event>
 7    1  0.2688177E-009  0.6405423E+02  0.7561462E-02  0.1381565E+00
          2   -1    0    0  501    0  0.00000000000E+00  0.00000000000E+00  0.99873925919E+02  0.99873925919E+02  0.00000000000E+00 0.  1.
         -2   -1    0    0    0  501 -0.00000000000E+00 -0.00000000000E+00 -0.11666876954E+03  0.11666876954E+03  0.00000000000E+00 0. -1.
         25    2    1    2    0    0 -0.39409667855E+01  0.53296486363E+01 -0.11154783051E+02  0.12576312554E+03  0.12509195892E+03 0.  0.
          5    1    3    3  502    0 -0.30465504056E+02  0.75001334304E+01  0.49864203152E+02  0.59061917467E+02  0.41800000000E+01 0.  1.
         -5    1    3    3    0  502  0.26524537271E+02 -0.21704847941E+01 -0.61018986203E+02  0.66701208077E+02  0.41800000000E+01 0.  1.
        -11    1    1    2    0    0 -0.31482655647E+01 -0.36963928953E+02 -0.32003225969E+02  0.48994388374E+02  0.00000000000E+00 0. -1.
         11    1    1    2    0    0  0.70892323501E+01  0.31634280317E+02  0.26363165401E+02  0.41785181541E+02  0.00000000000E+00 0.  1.
</event>
<event>
 7    1  0.2688177E-009  0.1479064E+03  0.7561462E-02  0.1203069E+00
          1   -1    0    0  501    0  0.00000000000E+00  0.00000000000E+00  0.54521197071E+03  0.54521197071E+03  0.00000000000E+00 0. -1.
         -1   -1    0    0    0  501 -0.00000000000E+00 -0.00000000000E+00 -0.55670023509E+02  0.55670023509E+02  0.00000000000E+00 0.  1.
         25    2    1    2    0    0 -0.12153407571E+03 -0.41378452415E+01  0.36292567348E+03  0.40268096945E+03  0.12509702380E+03 0.  0.
          5    1    3    3  502    0 -0.13434120584E+03  0.28866073390E+02  0.30680491504E+03  0.33619568420E+03  0.41800000000E+01 0. -1.
         -5    1    3    3    0  502  0.12807130128E+02 -0.33003918631E+02  0.56120758441E+02  0.66485285253E+02  0.41800000000E+01 0. -1.
        -11    1    1    2    0    0  0.91085264808E+02 -0.40116987326E+01  0.13739029024E+03  0.16488999680E+03  0.00000000000E+00 0. -1.
         11    1    1    2    0    0  0.30448810907E+02  0.81495439741E+01 -0.10774016518E+02  0.33311027972E+02  0.00000000000E+00 0.  1.
</event>
<event>
 7    1  0.2688177E-009  0.1036355E+03  0.7561462E-02  0.1272832E+00
         -2   -1    0    0    0  501 -0.00000000000E+00  0.00000000000E+00  0.53915635687E+02  0.53915635687E+02  0.00000000000E+00 0.  1.
          2   -1    0    0  501    0  0.00000000000E+00 -0.00000000000E+00 -0.38510192261E+03  0.38510192261E+03  0.00000000000E+00 0. -1.
         25    2    1    2    0    0  0.51100804520E+02 -0.95873423066E+01 -0.58833544431E+02  0.14768715145E+03  0.12508756692E+03 0.  0.
          5    1    3    3  502    0  0.82872938569E+02 -0.27898224178E+02 -0.12469440157E+02  0.88426207637E+02  0.41800000000E+01 0. -1.
         -5    1    3    3    0  502 -0.31772134048E+02  0.18310881871E+02 -0.46364104273E+02  0.59260943816E+02  0.41800000000E+01 0. -1.
        -11    1    1    2    0    0  0.14971505512E+02 -0.37068451069E+01 -0.59447645382E+01  0.16529576624E+02  0.00000000000E+00 0.  1.
         11    1    1    2    0    0 -0.66072310032E+02  0.13294187413E+02 -0.26640797795E+03  0.27480083022E+03  0.00000000000E+00 0. -1.
</event>
<event>
 7    1  0.2688177E-009  0.1514640E+03  0.7561462E-02  0.1198686E+00
          2   -1    0    0  501    0  0.00000000000E+00  0.00000000000E+00  0.11009895950E+04  0.11009895950E+04  0.00000000000E+00 0. -1.
         -2   -1    0    0    0  501 -0.00000000000E+00 -0.00000000000E+00 -0.24635124429E+02  0.24635124429E+02  0.00000000000E+00 0.  1.
         25    2    1    2    0    0 -0.58192475256E+02  0.10839829353E+03  0.54948939966E+03  0.57682044457E+03  0.12508665283E+03 0.  0.
          5    1    3    3  502    0  0.33178108330E+02  0.23629956753E+02  0.67403843630E+02  0.78866420386E+02  0.41800000000E+01 0.  1.
         -5    1    3    3    0  502 -0.91370583586E+02  0.84768336781E+02  0.48208555603E+03  0.49795402418E+03  0.41800000000E+01 0.  1.
        -11    1    1    2    0    0 -0.46903865923E+01 -0.53778207922E+02  0.97609685075E+02  0.11154257481E+03  0.00000000000E+00 0.  1.
         11    1    1    2    0    0  0.62882861849E+02 -0.54620085612E+02  0.42925538578E+03  0.43726170001E+03  0.00000000000E+00 0. -1.
</event>
<event>
 7    1  0.2688177E-009  0.4282886E+03  0.7561462E-02  0.1034402E+00
         -1   -1    0    0    0  501 -0.00000000000E+00  0.00000000000E+00  0.11279314597E+04  0.11279314597E+04  0.00000000000E+00 0.  1.
          1   -1    0    0  501    0  0.00000000000E+00 -0.00000000000E+00 -0.43424887269E+03  0.43424887269E+03  0.00000000000E+00 0. -1.
         25    2    1    2    0    0 -0.17635696147E+03  0.37766718912E+03  0.96407238019E+03  0.10577415315E+04  0.12508920638E+03 0.  0.
          5    1    3    3  502    0  0.17435875216E+01  0.12644384150E+03  0.25455506993E+03  0.28426544141E+03  0.41800000000E+01 0. -1.
         -5    1    3    3    0  502 -0.17810054899E+03  0.25122334762E+03  0.70951731026E+03  0.77347609006E+03  0.41800000000E+01 0. -1.
        -11    1    1    2    0    0  0.12882636593E+03 -0.19795678102E+03 -0.11774461590E+03  0.26390701825E+03  0.00000000000E+00 0.  1.
         11    1    1    2    0    0  0.47530595540E+02 -0.17971040810E+03 -0.15264517732E+03  0.24053178262E+03  0.00000000000E+00 0. -1.
</event>
<event>
 7    1  0.2688177E-009  0.8610464E+02  0.7561462E-02  0.1312569E+00
          2   -1    0    0  501    0  0.00000000000E+00  0.00000000000E+00  0.67184055872E+02  0.67184055872E+02  0.00000000000E+00 0. -1.
         -2   -1    0    0    0  501 -0.00000000000E+00 -0.00000000000E+00 -0.24267964088E+03  0.24267964088E+03  0.00000000000E+00 0.  1.
         25    2    1    2    0    0  0.52777761178E+02  0.32224403664E+02 -0.12063208996E+03  0.18445425307E+03  0.12508943233E+03 0.  0.
          5    1    3    3  502    0 -0.11302663238E+02 -0.21663888038E+02 -0.92906320285E+02  0.96156804180E+02  0.41800000000E+01 0. -1.
         -5    1    3    3    0  502  0.64080424415E+02  0.53888291702E+02 -0.27725769675E+02  0.88297448886E+02  0.41800000000E+01 0. -1.
        -11    1    1    2    0    0 -0.37369865857E+02 -0.14454107043E+02 -0.80926816620E+02  0.90302700584E+02  0.00000000000E+00 0.  1.
         11    1    1    2    0    0 -0.15407895321E+02 -0.17770296621E+02  0.26063321568E+02  0.35106743104E+02  0.00000000000E+00 0. -1.
</event>
<event>
 7    1  0.2688177E-009  0.1144414E+03  0.7561462E-02  0.1252559E+00
         -1   -1    0    0    0  501 -0.00000000000E+00  0.00000000000E+00  0.79419058352E+02  0.79419058352E+02  0.00000000000E+00 0.  1.
          1   -1    0    0  501    0  0.00000000000E+00 -0.00000000000E+00 -0.21445201422E+03  0.21445201422E+03  0.00000000000E+00 0. -1.
         25    2    1    2    0    0 -0.36671707984E+01  0.53175619260E+02 -0.17881922621E+02  0.13715437692E+03  0.12510181983E+03 0.  0.
          5    1    3    3  502    0  0.55345759309E+02  0.42290800478E+02  0.10632290018E+02  0.70584579545E+02  0.41800000000E+01 0.  1.
         -5    1    3    3    0  502 -0.59012930108E+02  0.10884818782E+02 -0.28514212638E+02  0.66569797373E+02  0.41800000000E+01 0.  1.
        -11    1    1    2    0    0  0.27643512330E+02 -0.66145971860E+02 -0.60338188348E+02  0.93702456426E+02  0.00000000000E+00 0.  1.
         11    1    1    2    0    0 -0.23976341532E+02  0.12970352600E+02 -0.56812844902E+02  0.63014239230E+02  0.00000000000E+00 0. -1.
</event>
<event>
 7    1  0.2688177E-009  0.1310362E+03  0.7561462E-02  0.1225926E+00
         -2   -1    0    0    0  501 -0.00000000000E+00  0.00000000000E+00  0.42262476409E+02  0.42262476409E+02  0.00000000000E+00 0.  1.
          2   -1    0    0  501    0  0.00000000000E+00 -0.00000000000E+00 -0.72449657955E+03  0.72449657955E+03  0.00000000000E+00 0. -1.
         25    2    1    2    0    0  0.69391487593E+02 -0.47063782680E+02 -0.12621295446E+03  0.19649034463E+03  0.12509423436E+03 0.  0.
          5    1    3    3  502    0  0.46124244773E+00 -0.72023793683E+02 -0.37435417334E+02  0.81280517174E+02  0.41800000000E+01 0. -1.
         -5    1    3    3    0  502  0.68930245146E+02  0.24960011003E+02 -0.88777537121E+02  0.11520982746E+03  0.41800000000E+01 0. -1.
        -11    1    1    2    0    0 -0.32250126381E+02 -0.21332098426E+02 -0.92465135916E+02  0.10022440040E+03  0.00000000000E+00 0.  1.
         11    1    1    2    0    0 -0.37141361213E+02  0.68395881106E+02 -0.46355601277E+03  0.47004431093E+03  0.00000000000E+00 0. -1.
</event>
<event>
 7    1  0.2688177E-009  0.9924286E+02  0.7561462E-02  0.1281896E+00
         -2   -1    0    0    0  501 -0.00000000000E+00  0.00000000000E+00  0.34076598654E+02  0.34076598654E+02  0.00000000000E+00 0.  1.
          2   -1    0    0  501    0  0.00000000000E+00 -0.00000000000E+00 -0.58954551293E+03  0.58954551293E+03  0.00000000000E+00 0. -1.
         25    2    1    2    0    0 -0.38697919421E+01 -0.50015739938E+02 -0.13695398231E+03  0.19214630851E+03  0.12508901260E+03 0.  0.
          5    1    3    3  502    0 -0.27898815031E+02 -0.67981394316E+02 -0.14339078975E+03  0.16117755687E+03  0.41800000000E+01 0.  1.
         -5    1    3    3    0  502  0.24029023089E+02  0.17965654378E+02  0.64368074463E+01  0.30968751636E+02  0.41800000000E+01 0.  1.
        -11    1    1    2    0    0  0.14851148165E+02 -0.19332759845E+02 -0.42794570007E+02  0.49251268279E+02  0.00000000000E+00 0.  1.
         11    1    1    2    0    0 -0.10981356223E+02  0.69348499783E+02 -0.37572036196E+03  0.38222453480E+03  0.00000000000E+00 0. -1.
</event>
<event>
 7    1  0.2688177E-009  0.2318413E+03  0.7561462E-02  0.1125350E+00
         -2   -1    0    0    0  501 -0.00000000000E+00  0.00000000000E+00  0.31670192249E+02  0.31670192249E+02  0.00000000000E+00 0. -1.
          2   -1    0    0  501    0  0.00000000000E+00 -0.00000000000E+00 -0.18858855255E+04  0.18858855255E+04  0.00000000000E+00 0.  1.
         25    2    1    2    0    0 -0.45747220201E+02  0.20720946863E+03 -0.74855111471E+03  0.78803927432E+03  0.12509418247E+03 0.  0.
          5    1    3    3  502    0 -0.50032774925E+02  0.33114784382E+02 -0.31702394374E+03  0.32267866495E+03  0.41800000000E+01 0.  1.
         -5    1    3    3    0  502  0.42855547243E+01  0.17409468425E+03 -0.43152717098E+03  0.46536060937E+03  0.41800000000E+01 0.  1.
        -11    1    1    2    0    0  0.44289023541E+02 -0.33265082984E+02 -0.32707657942E+03  0.33173358611E+03  0.00000000000E+00 0. -1.
         11    1    1    2    0    0  0.14581966593E+01 -0.17394438565E+03 -0.77858763913E+03  0.79778285733E+03  0.00000000000E+00 0.  1.
</event>
<event>
 7    1  0.2688177E-009  0.1225852E+03  0.7561462E-02  0.1238892E+00
          2   -1    0    0  501    0  0.00000000000E+00  0.00000000000E+00  0.11841777436E+04  0.11841777436E+04  0.00000000000E+00 0. -1.
         -2   -1    0    0    0  501 -0.00000000000E+00 -0.00000000000E+00 -0.16141421595E+02  0.16141421595E+02  0.00000000000E+00 0.  1.
         25    2    1    2    0    0  0.75654520981E+02 -0.33255928434E+02  0.52261337937E+03  0.54369175456E+03  0.12508563611E+03 0.  0.
          5    1    3    3  502    0 -0.85413487612E+01  0.22692207126E+02  0.22156490274E+02  0.33110019091E+02  0.41800000000E+01 0.  1.
         -5    1    3    3    0  502  0.84195869742E+02 -0.55948135560E+02  0.50045688909E+03  0.51058173547E+03  0.41800000000E+01 0.  1.
        -11    1    1    2    0    0  0.19315970421E+02  0.20514061057E+01  0.72942287433E+02  0.75484384320E+02  0.00000000000E+00 0.  1.
         11    1    1    2    0    0 -0.94970491402E+02  0.31204522328E+02  0.57248065524E+03  0.58114302635E+03  0.00000000000E+00 0. -1.
</event>
<event>
 7    1  0.3163510E-009  0.1113178E+03  0.7561462E-02  0.1258149E+00
          1   -1    0    0  501    0  0.00000000000E+00  0.00000000000E+00  0.42320533127E+03  0.42320533127E+03  0.00000000000E+00 0. -1.
         -1   -1    0    0    0  501 -0.00000000000E+00 -0.00000000000E+00 -0.42135324246E+02  0.42135324246E+02  0.00000000000E+00 0.  1.
         25    2    1    2    0    0 -0.75250110381E+02  0.14595135828E+02  0.19191581107E+03  0.24156681776E+03  0.12508897553E+03 0.  0.
          5    1    3    3  502    0 -0.89667336873E+02 -0.30048545645E+02  0.15543718696E+03  0.18199268635E+03  0.41800000000E+01 0. -1.
         -5    1    3    3    0  502  0.14417226492E+02  0.44643681473E+02  0.36478624118E+02  0.59574131406E+02  0.41800000000E+01 0. -1.
        -11    1    1    2    0    0  0.37312253475E+02  0.58674469904E+01  0.93988733259E+01  0.38922615706E+02  0.00000000000E+00 0.  1.
         11    1    1    2    0    0  0.37937856905E+02 -0.20462582818E+02  0.17975532262E+03  0.18485122205E+03  0.00000000000E+00 0. -1.
</event>
<event>
 7    1  0.2688177E-009  0.7737639E+02  0.7561462E-02  0.1336666E+00
         -1   -1    0    0    0  501 -0.00000000000E+00  0.00000000000E+00  0.18531392370E+03  0.18531392370E+03  0.00000000000E+00 0.  1.
          1   -1    0    0  501    0  0.00000000000E+00 -0.00000000000E+00 -0.10313248193E+03  0.10313248193E+03  0.00000000000E+00 0. -1.
         25    2    1    2    0    0  0.32432083159E+02  0.54422105008E+02  0.11187737980E+03  0.17938637315E+03  0.12509723110E+03 0.  0.
          5    1    3    3  502    0  0.37931114876E+02  0.38128760907E+02  0.13780926857E+03  0.14799134700E+03  0.41800000000E+01 0.  1.
         -5    1    3    3    0  502 -0.54990317175E+01  0.16293344101E+02 -0.25931888767E+02  0.31395026148E+02  0.41800000000E+01 0.  1.
        -11    1    1    2    0    0  0.13815838300E+02 -0.24192922071E+02 -0.43916775185E+02  0.52008249432E+02  0.00000000000E+00 0. -1.
         11    1    1    2    0    0 -0.46247921459E+02 -0.30229182937E+02  0.14220837150E+02  0.57051783054E+02  0.00000000000E+00 0.  1.
</event>
<event>
 7    1  0.2688177E-009  0.1018402E+03  0.7561462E-02  0.1276473E+00
         -1   -1    0    0    0  501 -0.00000000000E+00  0.00000000000E+00  0.38211749266E+02  0.38211749266E+02  0.00000000000E+00 0.  1.
          1   -1    0    0  501    0  0.00000000000E+00 -0.00000000000E+00 -0.41087290914E+03  0.41087290914E+03  0.00000000000E+00 0. -1.
         25    2    1    2    0    0 -0.36875780991E+02 -0.50829175489E+02 -0.23423235780E+03  0.27287446104E+03  0.12510893550E+03 0.  0.
          5    1    3    3  502    0 -0.78991581771E+02 -0.47414009111E+02 -0.19193341072E+03  0.21294051940E+03  0.41800000000E+01 0. -1.
         -5    1    3    3    0  502  0.42115800779E+02 -0.34151663786E+01 -0.42298947073E+02  0.59933941637E+02  0.41800000000E+01 0. -1.
        -11    1    1    2    0    0  0.31499617367E+02  0.19149290144E+02 -0.13927022285E+03  0.14406636033E+03  0.00000000000E+00 0. -1.
         11    1    1    2    0    0  0.53761636242E+01  0.31679885345E+02  0.84142076514E+00  0.32143837041E+02  0.00000000000E+00 0.  1.
</event>
<event>
 7    1  0.2688177E-009  0.9359839E+02  0.7561462E-02  0.1294364E+00
          1   -1    0    0  501    0  0.00000000000E+00  0.00000000000E+00  0.90382841721E+03  0.90382841721E+03  0.00000000000E+00 0. -1.
         -1   -1    0    0    0  501 -0.00000000000E+00 -0.00000000000E+00 -0.27759027137E+02  0.27759027137E+02  0.00000000000E+00 0.  1.
         25    2    1    2    0    0 -0.40734205557E+02 -0.50808859133E+02  0.73488823642E+03  0.74829938892E+03  0.12510171764E+03 0.  0.
          5    1    3    3  502    0  0.58994261458E+01 -0.60368100706E+01 -0.10842631426E+01  0.94812621122E+01  0.41800000000E+01 0. -1.
         -5    1    3    3    0  502 -0.46633631702E+02 -0.44772049063E+02  0.73597249956E+03  0.73881812680E+03  0.41800000000E+01 0. -1.
        -11    1    1    2    0    0  0.42240283712E+01 -0.26851265895E+02  0.56643417127E+02  0.62827618128E+02  0.00000000000E+00 0. -1.
         11    1    1    2    0    0  0.36510177185E+02  0.77660125029E+02  0.84537736523E+02  0.12046043730E+03  0.00000000000E+00 0.  1.
</event>
<event>
 7    1  0.2688177E-009  0.2397276E+03  0.7561462E-02  0.1119974E+00
          2   -1    0    0  501    0  0.00000000000E+00  0.00000000000E+00  0.88363179307E+03  0.88363179307E+03  0.00000000000E+00 0. -1.
         -2   -1    0    0    0  501 -0.00000000000E+00 -0.00000000000E+00 -0.79192350461E+02  0.79192350461E+02  0.00000000000E+00 0.  1.
         25    2    1    2    0    0  0.63481192982E+02 -0.22253443021E+03  0.50914331529E+03  0.57308404658E+03  0.12508786692E+03 0.  0.
          5    1    3    3  502    0  0.39296541239E+00 -0.70726715644E+02  0.53821810041E+02  0.88975740310E+02  0.41800000000E+01 0. -1.
         -5    1    3    3    0  502  0.63088227569E+02 -0.15180771457E+03  0.45532150525E+03  0.48410830627E+03  0.41800000000E+01 0. -1.
        -11    1    1    2    0    0 -0.78398999186E+02  0.14156959553E+03  0.24384260281E+03  0.29265605820E+03  0.00000000000E+00 0. -1.
         11    1    1    2    0    0  0.14917806204E+02  0.80964834678E+02  0.51453524505E+02  0.97084038751E+02  0.00000000000E+00 0.  1.
</event>
<event>
 7    1  0.2688177E-009  0.8916630E+02  0.7561462E-02  0.1304883E+00
          2   -1    0    0  501    0  0.00000000000E+00  0.00000000000E+00  0.15719515015E+03  0.15719515015E+03  0.00000000000E+00 0. -1.
         -2   -1    0    0    0  501 -0.00000000000E+00 -0.00000000000E+00 -0.10490450529E+03  0.10490450529E+03  0.00000000000E+00 0.  1.
         25    2    1    2    0    0 -0.10420599759E+02 -0.51161564568E+02 -0.18463156992E+02  0.13680383816E+03  0.12509319478E+03 0.  0.
          5    1    3    3  502    0  0.77782320543E+00  0.25417736379E+02 -0.47496784462E+02  0.54037794790E+02  0.41800000000E+01 0.  1.
         -5    1    3    3    0  502 -0.11198422964E+02 -0.76579300946E+02  0.29033627470E+02  0.82766043365E+02  0.41800000000E+01 0.  1.
        -11    1    1    2    0    0  0.30382348752E+02  0.44749488215E+02  0.27780904437E+01  0.54160147689E+02  0.00000000000E+00 0.  1.
         11    1    1    2    0    0 -0.19961748993E+02  0.64120763524E+01  0.67975711410E+02  0.71135669588E+02  0.00000000000E+00 0. -1.
</event>
<event>
 7    1  0.2688177E-009  0.1582752E+03  0.7561462E-02  0.1190658E+00
          2   -1    0    0  501    0  0.00000000000E+00  0.00000000000E+00  0.13229235538E+04  0.13229235538E+04  0.00000000000E+00 0. -1.
         -2   -1    0    0    0  501 -0.00000000000E+00 -0.00000000000E+00 -0.21196897357E+02  0.21196897357E+02  0.00000000000E+00 0.  1.
         25    2    1    2    0    0  0.32672874128E+02  0.12208763129E+03  0.78270678450E+03  0.80265194652E+03  0.12508928944E+03 0.  0.
          5    1    3    3  502    0 -0.92324792764E+01 -0.18823702133E+02  0.22025663919E+03  0.22129173039E+03  0.41800000000E+01 0. -1.
         -5    1    3    3    0  502  0.41905353404E+02  0.14091133342E+03  0.56245014532E+03  0.58136021613E+03  0.41800000000E+01 0. -1.
        -11    1    1    2    0    0 -0.57552359153E+02 -0.96871937291E+02  0.31851036204E+03  0.33785395810E+03  0.00000000000E+00 0.  1.
         11    1    1    2    0    0  0.24879485026E+02 -0.25215693995E+02  0.20050950989E+03  0.20361454652E+03  0.00000000000E+00 0. -1.
</event>
<event>
 7    1  0.2688177E-009  0.1276129E+03  0.7561462E-02  0.1231041E+00
          2   -1    0    0  501    0  0.00000000000E+00  0.00000000000E+00  0.87868930758E+03  0.87868930758E+03  0.00000000000E+00 0. -1.
         -2   -1    0    0    0  501 -0.00000000000E+00 -0.00000000000E+00 -0.27061358766E+02  0.27061358766E+02  0.00000000000E+00 0.  1.
         25    2    1    2    0    0 -0.97374545722E+02  0.48152719560E+02  0.44164341837E+03  0.47169470703E+03  0.12508597479E+03 0.  0.
          5    1    3    3  502    0 -0.68105051037E+02  0.50178247110E+02  0.11049104876E+03  0.13921888778E+03  0.41800000000E+01 0. -1.
         -5    1    3    3    0  502 -0.29269494685E+02 -0.20255275502E+01  0.33115236961E+03  0.33247581924E+03  0.41800000000E+01 0. -1.
        -11    1    1    2    0    0 -0.16655529334E+02  0.10756311800E+01  0.30567332948E+02  0.34827079742E+02  0.00000000000E+00 0.  1.
         11    1    1    2    0    0  0.11403007506E+03 -0.49228350740E+02  0.37941719749E+03  0.39922887957E+03  0.00000000000E+00 0. -1.
</event>
<event>
 7    1  0.2688177E-009  0.9316483E+02  0.7561462E-02  0.1295364E+00
         -1   -1    0    0    0  501 -0.00000000000E+00  0.00000000000E+00  0.21497461098E+02  0.21497461098E+02  0.00000000000E+00 0.  1.
          1   -1    0    0  501    0  0.00000000000E+00 -0.00000000000E+00 -0.76221112969E+03  0.76221112969E+03  0.00000000000E+00 0. -1.
         25    2    1    2    0    0 -0.60876401366E+02  0.29594357960E+02 -0.45234569942E+03  0.47416547026E+03  0.12503799079E+03 0.  0.
          5    1    3    3  502    0 -0.28557029625E+02 -0.65222888656E+01 -0.40567274191E+03  0.40675040274E+03  0.41800000000E+01 0.  1.
         -5    1    3    3    0  502 -0.32319371741E+02  0.36116646826E+02 -0.46672957504E+02  0.67415067528E+02  0.41800000000E+01 0.  1.
        -11    1    1    2    0    0 -0.17826625263E+02 -0.23022861446E+02 -0.44276314438E+02  0.52992761181E+02  0.00000000000E+00 0.  1.
         11    1    1    2    0    0  0.78703026628E+02 -0.65714965142E+01 -0.24409165474E+03  0.25655035934E+03  0.00000000000E+00 0. -1.
</event>
<event>
 7    1  0.2688177E-009  0.3929491E+03  0.7561462E-02  0.1046249E+00
          1   -1    0    0  501    0  0.00000000000E+00  0.00000000000E+00  0.49217445836E+03  0.49217445836E+03  0.00000000000E+00 0. -1.
         -1   -1    0    0    0  501 -0.00000000000E+00 -0.00000000000E+00 -0.32552693264E+03  0.32552693264E+03  0.00000000000E+00 0.  1.
         25    2    1    2    0    0 -0.19423890571E+02 -0.38200680733E+03  0.37838836531E+02  0.40420986826E+03  0.12508937475E+03 0.  0.
          5    1    3    3  502    0 -0.43089394043E+02 -0.76189757166E+02  0.42548977475E+02  0.97413874064E+02  0.41800000000E+01 0. -1.
         -5    1    3    3    0  502  0.23665503472E+02 -0.30581705017E+03 -0.47101409438E+01  0.30679599420E+03  0.41800000000E+01 0. -1.
        -11    1    1    2    0    0 -0.32927036934E+02  0.16747783898E+03  0.73563020722E+02  0.18586159993E+03  0.00000000000E+00 0. -1.
         11    1    1    2    0    0  0.52350927505E+02  0.21452896835E+03  0.55245668465E+02  0.22762992281E+03  0.00000000000E+00 0.  1.
</event>
<event>
 7    1  0.2688177E-009  0.1065545E+03  0.7561462E-02  0.1267087E+00
          2   -1    0    0  501    0  0.00000000000E+00  0.00000000000E+00  0.74903965857E+03  0.74903965857E+03  0.00000000000E+00 0.  1.
         -2   -1    0    0    0  501 -0.00000000000E+00 -0.00000000000E+00 -0.61505161551E+02  0.61505161551E+02  0.00000000000E+00 0. -1.
         25    2    1    2    0    0 -0.53856239741E+02 -0.47588986261E+02  0.66354745828E+03  0.67904901943E+03  0.12508850958E+03 0.  0.
          5    1    3    3  502    0 -0.44592161368E+02  0.34437309201E+02  0.18563176944E+03  0.19403869549E+03  0.41800000000E+01 0. -1.
         -5    1    3    3    0  502 -0.92640783737E+01 -0.82026295462E+02  0.47791568884E+03  0.48501032395E+03  0.41800000000E+01 0. -1.
        -11    1    1    2    0    0  0.35912250345E+02  0.41790835108E+02  0.65682542729E+02  0.85734240786E+02  0.00000000000E+00 0.  1.
         11    1    1    2    0    0  0.17943989396E+02  0.57981511529E+01 -0.41695503987E+02  0.45761559905E+02  0.00000000000E+00 0. -1.
</event>
<event>
 7    1  0.2688177E-009  0.1123789E+03  0.7561462E-02  0.1256227E+00
         -2   -1    0    0    0  501 -0.00000000000E+00  0.00000000000E+00  0.16779775892E+02  0.16779775892E+02  0.00000000000E+00 0.  1.
          2   -1    0    0  501    0  0.00000000000E+00 -0.00000000000E+00 -0.11752907468E+04  0.11752907468E+04  0.00000000000E+00 0. -1.
         25    2    1    2    0    0  0.30101309245E+02 -0.33879315733E+02 -0.96624955124E+03  0.97536650303E+03  0.12509085939E+03 0.  0.
          5    1    3    3  502    0 -0.68679840615E+00 -0.74254092413E+02 -0.40204494341E+03  0.40886642178E+03  0.41800000000E+01 0.  1.
         -5    1    3    3    0  502  0.30788107651E+02  0.40374776680E+02 -0.56420460783E+03  0.56650008125E+03  0.41800000000E+01 0.  1.
        -11    1    1    2    0    0  0.16381355481E+02  0.48111798415E+02 -0.86960823540E+02  0.10072377468E+03  0.00000000000E+00 0.  1.
         11    1    1    2    0    0 -0.46482664726E+02 -0.14232482682E+02 -0.10530059615E+03  0.11598024501E+03  0.00000000000E+00 0. -1.
</event>
<event>
 7    1  0.2688177E-009  0.1153938E+03  0.7561462E-02  0.1250895E+00
          1   -1    0    0  501    0  0.00000000000E+00  0.00000000000E+00  0.41432572008E+03  0.41432572008E+03  0.00000000000E+00 0. -1.
         -1   -1    0    0    0  501 -0.00000000000E+00 -0.00000000000E+00 -0.38498780366E+02  0.38498780366E+02  0.00000000000E+00 0.  1.
         25    2    1    2    0    0 -0.51038731994E+02 -0.37036827441E+02  0.22789976347E+03  0.26751183622E+03  0.12509037363E+03 0.  0.
          5    1    3    3  502    0 -0.91820478697E+02 -0.16283473794E+02  0.16564126143E+03  0.19013324727E+03  0.41800000000E+01 0. -1.
         -5    1    3    3    0  502  0.40781746703E+02 -0.20753353648E+02  0.62258502038E+02  0.77378588949E+02  0.41800000000E+01 0. -1.
        -11    1    1    2    0    0 -0.42889705787E+01  0.35896788230E+02  0.11257702697E+02  0.37864370375E+02  0.00000000000E+00 0.  1.
         11    1    1    2    0    0  0.55327702572E+02  0.11400392110E+01  0.13666947354E+03  0.14744829385E+03  0.00000000000E+00 0. -1.
</event>
<event>
 7    1  0.2688177E-009  0.8669494E+02  0.7561462E-02  0.1311059E+00
          2   -1    0    0  501    0  0.00000000000E+00  0.00000000000E+00  0.18299639468E+03  0.18299639468E+03  0.00000000000E+00 0. -1.
         -2   -1    0    0    0  501 -0.00000000000E+00 -0.00000000000E+00 -0.71023067235E+02  0.71023067235E+02  0.00000000000E+00 0.  1.
         25    2    1    2    0    0  0.25002831721E+02  0.34341718830E+02  0.13589341600E+03  0.18952374947E+03  0.12509091037E+03 0.  0.
          5    1    3    3  502    0 -0.49726276792E+02  0.16333479621E+02  0.37159963374E+02  0.64325892439E+02  0.41800000000E+01 0.  1.
         -5    1    3    3    0  502  0.74729108513E+02  0.18008239210E+02  0.98733452627E+02  0.12519785704E+03  0.41800000000E+01 0.  1.
        -11    1    1    2    0    0 -0.52955969214E+01 -0.16458721587E+02  0.11074323521E+02  0.20532255222E+02  0.00000000000E+00 0. -1.
         11    1    1    2    0    0 -0.19707234800E+02 -0.17882997243E+02 -0.34994412078E+02  0.43963457218E+02  0.00000000000E+00 0.  1.
</event>
<event>
 7    1  0.2688177E-009  0.1494287E+03  0.7561462E-02  0.1201177E+00
         -1   -1    0    0    0  501 -0.00000000000E+00  0.00000000000E+00  0.88546878456E+02  0.88546878456E+02  0.00000000000E+00 0.  1.
          1   -1    0    0  501    0  0.00000000000E+00 -0.00000000000E+00 -0.34078721762E+03  0.34078721762E+03  0.00000000000E+00 0. -1.
         25    2    1    2    0    0 -0.11933252738E+03  0.59977049357E+02 -0.11800592448E+03  0.21774206553E+03  0.12509480545E+03 0.  0.
          5    1    3    3  502    0 -0.68241306028E+02  0.15659420917E+02 -0.13113917064E+03  0.14871801433E+03  0.41800000000E+01 0. -1.
         -5    1    3    3    0  502 -0.51091221349E+02  0.44317628439E+02  0.13133246157E+02  0.69024051200E+02  0.41800000000E+01 0. -1.
        -11    1    1    2    0    0  0.92643885589E+02  0.28566589084E+01 -0.95580176693E+02  0.13314135426E+03  0.00000000000E+00 0.  1.
         11    1    1    2    0    0  0.26688641787E+02 -0.62833708265E+02 -0.38654237989E+02  0.78450676283E+02  0.00000000000E+00 0. -1.
</event>
<event>
 7    1  0.2688177E-009  0.1273665E+03  0.7561462E-02  0.1231417E+00
          2   -1    0    0  501    0  0.00000000000E+00  0.00000000000E+00  0.31976103530E+03  0.31976103530E+03  0.00000000000E+00 0.  1.
         -2   -1    0    0    0  501 -0.00000000000E+00 -0.00000000000E+00 -0.85960812372E+02  0.85960812372E+02  0.00000000000E+00 0. -1.
         25    2    1    2    0    0 -0.87372899501E+02 -0.37957859567E+02  0.21917495678E+03  0.26974063648E+03  0.12509007403E+03 0.  0.
          5    1    3    3  502    0 -0.54641744600E+02  0.31050108138E+02  0.16326770932E+03  0.17499613360E+03  0.41800000000E+01 0.  1.
         -5    1    3    3    0  502 -0.32731154901E+02 -0.69007967705E+02  0.55907247460E+02  0.94744502883E+02  0.41800000000E+01 0.  1.
        -11    1    1    2    0    0  0.66051244888E+02  0.56560614856E+02  0.42035355395E+02  0.96585926549E+02  0.00000000000E+00 0.  1.
         11    1    1    2    0    0  0.21321654613E+02 -0.18602755289E+02 -0.27410089244E+02  0.39395284644E+02  0.00000000000E+00 0. -1.
</event>
<event>
 7    1  0.2688177E-009  0.1109873E+03  0.7561462E-02  0.1258752E+00
          2   -1    0    0  501    0  0.00000000000E+00  0.00000000000E+00  0.67991333514E+03  0.67991333514E+03  0.00000000000E+00 0. -1.
         -2   -1    0    0    0  501 -0.00000000000E+00 -0.00000000000E+00 -0.36175035831E+02  0.36175035831E+02  0.00000000000E+00 0.  1.
         25    2    1    2    0    0  0.16765342945E+02 -0.93054247714E+02  0.21307884893E+03  0.26455648914E+03  0.12508944937E+03 0.  0.
          5    1    3    3  502    0  0.14727117898E+02 -0.29224225226E+02  0.19539288213E+03  0.19815850759E+03  0.41800000000E+01 0.  1.
         -5    1    3    3    0  502  0.20382250472E+01 -0.63830022488E+02  0.17685966793E+02  0.66397981547E+02  0.41800000000E+01 0.  1.
        -11    1    1    2    0    0  0.31155729236E+02  0.18133495995E+02  0.57064823927E+02  0.67497387143E+02  0.00000000000E+00 0.  1.
         11    1    1    2    0    0 -0.47921072181E+02  0.74920751719E+02  0.37359462645E+03  0.38403449469E+03  0.00000000000E+00 0. -1.
</event>
<event>
 7    1  0.3784488E-009  0.1119650E+03  0.7561462E-02  0.1256974E+00
          1   -1    0    0  501    0  0.00000000000E+00  0.00000000000E+00  0.27490292148E+03  0.27490292148E+03  0.00000000000E+00 0. -1.
         -1   -1    0    0    0  501 -0.00000000000E+00 -0.00000000000E+00 -0.73676452302E+02  0.73676452302E+02  0.00000000000E+00 0.  1.
         25    2    1    2    0    0 -0.54075715834E+02  0.67579804122E+02  0.71286654115E+02  0.16798943794E+03  0.12508977271E+03 0.  0.
          5    1    3    3  502    0 -0.23204626086E+02  0.85416128586E+02  0.49011183253E+00  0.88611976076E+02  0.41800000000E+01 0. -1.
         -5    1    3    3    0  502 -0.30871089749E+02 -0.17836324464E+02  0.70796542282E+02  0.79377461863E+02  0.41800000000E+01 0. -1.
        -11    1    1    2    0    0  0.84896765018E+01 -0.49756209471E+02  0.10563618786E+02  0.51568837779E+02  0.00000000000E+00 0.  1.
         11    1    1    2    0    0  0.45586039332E+02 -0.17823594651E+02  0.11937619627E+03  0.12902109806E+03  0.00000000000E+00 0. -1.
</event>
<event>
 7    1  0.2688177E-009  0.1077383E+03  0.7561462E-02  0.1264817E+00
          2   -1    0    0  501    0  0.00000000000E+00  0.00000000000E+00  0.98254225014E+03  0.98254225014E+03  0.00000000000E+00 0. -1.
         -2   -1    0    0    0  501 -0.00000000000E+00 -0.00000000000E+00 -0.17076462494E+02  0.17076462494E+02  0.00000000000E+00 0.  1.
         25    2    1    2    0    0 -0.44764089990E+02  0.27124077156E+02  0.71539408904E+03  0.72813174077E+03  0.12509032727E+03 0.  0.
          5    1    3    3  502    0 -0.11621122212E+01  0.69520811939E+02  0.28220394251E+03  0.29067341014E+03  0.41800000000E+01 0.  1.
         -5    1    3    3    0  502 -0.43601977769E+02 -0.42396734784E+02  0.43319014653E+03  0.43745833063E+03  0.41800000000E+01 0.  1.
        -11    1    1    2    0    0  0.36714636129E+02  0.16677990180E+02  0.20187963484E+03  0.20586769253E+03  0.00000000000E+00 0. -1.
         11    1    1    2    0    0  0.80494538608E+01 -0.43802067336E+02  0.48192063767E+02  0.65619279335E+02  0.00000000000E+00 0.  1.
</event>
<event>
 7    1  0.2688177E-009  0.1006175E+03  0.7561462E-02  0.1279003E+00
          1   -1    0    0  501    0  0.00000000000E+00  0.00000000000E+00  0.18832408287E+03  0.18832408287E+03  0.00000000000E+00 0. -1.
         -1   -1    0    0    0  501 -0.00000000000E+00 -0.00000000000E+00 -0.63525813840E+02  0.63525813840E+02  0.00000000000E+00 0.  1.
         25    2    1    2    0    0  0.20501782835E+01  0.80819928755E+00  0.58985059180E+02  0.13831699288E+03  0.12508995522E+03 0.  0.
          5    1    3    3  502    0 -0.57612015793E+02 -0.86393863375E+01  0.75928341744E+01  0.58897426860E+02  0.41800000000E+01 0. -1.
         -5    1    3    3    0  502  0.59662194076E+02  0.94475856251E+01  0.51392225006E+02  0.79419566022E+02  0.41800000000E+01 0. -1.
        -11    1    1    2    0    0 -0.18759914074E+02  0.36700162376E+02  0.58905869257E+02  0.71893933870E+02  0.00000000000E+00 0. -1.
         11    1    1    2    0    0  0.16709735790E+02 -0.37508361663E+02  0.69073405902E+01  0.41638969955E+02  0.00000000000E+00 0.  1.
</event>
<event>
 7    1  0.2688177E-009  0.1019167E+03  0.7561462E-02  0.1276316E+00
         -2   -1    0    0    0  501 -0.00000000000E+00  0.00000000000E+00  0.13678044311E+02  0.13678044311E+02  0.00000000000E+00 0.  1.
          2   -1    0    0  501    0  0.00000000000E+00 -0.00000000000E+00 -0.12047283783E+04  0.12047283783E+04  0.00000000000E+00 0. -1.
         25    2    1    2    0    0 -0.13439090740E+02  0.62002860783E+02 -0.65420138969E+03  0.66906808538E+03  0.12509068985E+03 0.  0.
          5    1    3    3  502    0 -0.37936429734E+02  0.35338140172E+02 -0.60799335609E+03  0.61021418395E+03  0.41800000000E+01 0. -1.
         -5    1    3    3    0  502  0.24497338994E+02  0.26664720611E+02 -0.46208033607E+02  0.58853901424E+02  0.41800000000E+01 0. -1.
        -11    1    1    2    0    0  0.54957780980E+02 -0.42631180882E+02 -0.28569951362E+03  0.29404419287E+03  0.00000000000E+00 0.  1.
         11    1    1    2    0    0 -0.41518690240E+02 -0.19371679901E+02 -0.25114943063E+03  0.25529414433E+03  0.00000000000E+00 0. -1.
</event>
<event>
 7    1  0.2688177E-009  0.1305426E+03  0.7561462E-02  0.1226653E+00
          1   -1    0    0  501    0  0.00000000000E+00  0.00000000000E+00  0.28713411633E+03  0.28713411633E+03  0.00000000000E+00 0. -1.
         -1   -1    0    0    0  501 -0.00000000000E+00 -0.00000000000E+00 -0.72240346789E+02  0.72240346789E+02  0.00000000000E+00 0.  1.
         25    2    1    2    0    0  0.71994811378E+02 -0.18853023833E+02  0.18477737775E+03  0.23522013786E+03  0.12508854685E+03 0.  0.
          5    1    3    3  502    0 -0.12423988917E+02 -0.52128499069E+02  0.55926364122E+02  0.77569108024E+02  0.41800000000E+01 0. -1.
         -5    1    3    3    0  502  0.84418800295E+02  0.33275475235E+02  0.12885101363E+03  0.15765102984E+03  0.41800000000E+01 0. -1.
        -11    1    1    2    0    0  0.18515400665E+02  0.18231854189E+02 -0.60564289490E+01  0.26681471110E+02  0.00000000000E+00 0.  1.
         11    1    1    2    0    0 -0.90510212043E+02  0.62116964408E+00  0.36172820739E+02  0.97472854149E+02  0.00000000000E+00 0. -1.
</event>
<event>
 7    1  0.2688177E-009  0.1398325E+03  0.7561462E-02  0.1213555E+00
         -2   -1    0    0    0  501 -0.00000000000E+00  0.00000000000E+00  0.58595718460E+03  0.58595718460E+03  0.00000000000E+00 0. -1.
          2   -1    0    0  501    0  0.00000000000E+00 -0.00000000000E+00 -0.18231910805E+03  0.18231910805E+03  0.00000000000E+00 0.  1.
         25    2    1    2    0    0  0.94545410781E+02 -0.10198720099E+03  0.52775720541E+03  0.55992444271E+03  0.12508992691E+03 0.  0.
          5    1    3    3  502    0  0.21797031188E+02 -0.35429084274E+02  0.37967052752E+03  0.38196532885E+03  0.41800000000E+01 0.  1.
         -5    1    3    3    0  502  0.72748379594E+02 -0.66558116720E+02  0.14808667790E+03  0.17795911386E+03  0.41800000000E+01 0.  1.
        -11    1    1    2    0    0 -0.40387385449E+02  0.47400369810E+02 -0.11518349681E+03  0.13093958110E+03  0.00000000000E+00 0.  1.
         11    1    1    2    0    0 -0.54158025333E+02  0.54586831184E+02 -0.89356320626E+01  0.77412268840E+02  0.00000000000E+00 0. -1.
</event>
<event>
 7    1  0.2688177E-009  0.1358632E+03  0.7561462E-02  0.1219006E+00
         -1   -1    0    0    0  501 -0.00000000000E+00  0.00000000000E+00  0.10602465962E+03  0.10602465962E+03  0.00000000000E+00 0.  1.
          1   -1    0    0  501    0  0.00000000000E+00 -0.00000000000E+00 -0.19177749746E+03  0.19177749746E+03  0.00000000000E+00 0. -1.
         25    2    1    2    0    0  0.90927848041E+02  0.19525684797E+00 -0.51601040745E+02  0.16302687373E+03  0.12508869844E+03 0.  0.
          5    1    3    3  502    0  0.11713751028E+03 -0.17781358655E+02 -0.55191470041E+02  0.13077057695E+03  0.41800000000E+01 0.  1.
         -5    1    3    3    0  502 -0.26209662240E+02  0.17976615503E+02  0.35904292956E+01  0.32256296784E+02  0.41800000000E+01 0.  1.
        -11    1    1    2    0    0 -0.58243414261E+02 -0.39217061527E+02  0.52406090951E+01  0.70411200837E+02  0.00000000000E+00 0.  1.
         11    1    1    2    0    0 -0.32684433779E+02  0.39021804679E+02 -0.39392406193E+02  0.64364082512E+02  0.00000000000E+00 0. -1.
</event>
<event>
 7    1  0.2688177E-009  0.1344889E+03  0.7561462E-02  0.1220943E+00
         -2   -1    0    0    0  501 -0.00000000000E+00  0.00000000000E+00  0.66736264349E+02  0.66736264349E+02  0.00000000000E+00 0. -1.
          2   -1    0    0  501    0  0.00000000000E+00 -0.00000000000E+00 -0.29453111549E+03  0.29453111549E+03  0.00000000000E+00 0.  1.
         25    2    1    2    0    0 -0.64061209923E+02  0.56986614506E+02 -0.14912841530E+03  0.21269490795E+03  0.12509407168E+03 0.  0.
          5    1    3    3  502    0  0.23507999197E+02  0.55546556463E+02 -0.83886545699E+02  0.10340440470E+03  0.41800000000E+01 0. -1.
         -5    1    3    3    0  502 -0.87569209120E+02  0.14400580428E+01 -0.65241869600E+02  0.10929050326E+03  0.41800000000E+01 0. -1.
        -11    1    1    2    0    0  0.71875817789E+02 -0.92550633653E+01 -0.67274473805E+02  0.98881971089E+02  0.00000000000E+00 0.  1.
         11    1    1    2    0    0 -0.78146078658E+01 -0.47731551140E+02 -0.11391962035E+02  0.49690500796E+02  0.00000000000E+00 0. -1.
</event>
<event>
 7    1  0.2688177E-009  0.1186321E+03  0.7561462E-02  0.1245371E+00
          2   -1    0    0  501    0  0.00000000000E+00  0.00000000000E+00  0.10622035784E+03  0.10622035784E+03  0.00000000000E+00 0.  1.
         -2   -1    0    0    0  501 -0.00000000000E+00 -0.00000000000E+00 -0.16402177525E+03  0.16402177525E+03  0.00000000000E+00 0. -1.
         25    2    1    2    0    0 -0.38713039633E+02  0.40353944783E+02 -0.84916922029E+02  0.16120577372E+03  0.12509707245E+03 0.  0.
          5    1    3    3  502    0 -0.83913930463E+02  0.17765776332E+02 -0.47026264158E+02  0.97908694482E+02  0.41800000000E+01 0.  1.
         -5    1    3    3    0  502  0.45200890830E+02  0.22588168451E+02 -0.37890657870E+02  0.63297079235E+02  0.41800000000E+01 0.  1.
        -11    1    1    2    0    0  0.53570527783E+01 -0.61145548506E+02  0.32351633525E+02  0.69383746716E+02  0.00000000000E+00 0.  1.
         11    1    1    2    0    0  0.33355986855E+02  0.20791603723E+02 -0.52361289048E+01  0.39652612655E+02  0.00000000000E+00 0. -1.
</event>
<event>
 7    1  0.2806960E-009  0.9062753E+02  0.7561462E-02  0.1301339E+00
          1   -1    0    0  501    0  0.00000000000E+00  0.00000000000E+00  0.18037500929E+03  0.18037500929E+03  0.00000000000E+00 0. -1.
         -1   -1    0    0    0  501 -0.00000000000E+00 -0.00000000000E+00 -0.79326737274E+02  0.79326737274E+02  0.00000000000E+00 0.  1.
         25    2    1    2    0    0  0.58449925487E+01  0.50543602430E+02  0.65627578014E+02  0.15014762688E+03  0.12509400935E+03 0.  0.
          5    1    3    3  502    0 -0.28909770948E+02 -0.27294146039E+02  0.48925883461E+02  0.63181957367E+02  0.41800000000E+01 0.  1.
         -5    1    3    3    0  502  0.34754763496E+02  0.77837748469E+02  0.16701694553E+02  0.86965669510E+02  0.41800000000E+01 0.  1.
        -11    1    1    2    0    0 -0.13466379613E+02 -0.43557620380E+02 -0.22413357123E+02  0.50803230710E+02  0.00000000000E+00 0.  1.
         11    1    1    2    0    0  0.76213870647E+01 -0.69859820494E+01  0.57834051126E+02  0.58750888978E+02  0.00000000000E+00 0. -1.
</event>
<event>
 7    1  0.2688177E-009  0.1678330E+03  0.7561462E-02  0.1180127E+00
          3   -1    0    0  501    0  0.00000000000E+00  0.00000000000E+00  0.71394622405E+02  0.71394622405E+02  0.00000000000E+00 0. -1.
         -3   -1    0    0    0  501 -0.00000000000E+00 -0.00000000000E+00 -0.43375844605E+03  0.43375844605E+03  0.00000000000E+00 0.  1.
         25    2    1    2    0    0  0.62297776179E+01  0.13649817767E+03 -0.23403077711E+03  0.29847640447E+03  0.12508875549E+03 0.  0.
          5    1    3    3  502    0 -0.33217709704E+02  0.12926474300E+03 -0.12772722461E+03  0.18478232147E+03  0.41800000000E+01 0.  1.
         -5    1    3    3    0  502  0.39447487322E+02  0.72334346707E+01 -0.10630355251E+03  0.11369408300E+03  0.41800000000E+01 0.  1.
        -11    1    1    2    0    0  0.39135792368E+02 -0.44656551210E+02 -0.51984815305E+02  0.78919191788E+02  0.00000000000E+00 0. -1.
         11    1    1    2    0    0 -0.45365569986E+02 -0.91841626465E+02 -0.76348231228E+02  0.12775747220E+03  0.00000000000E+00 0.  1.
</event>
<event>
 7    1  0.2688177E-009  0.6603554E+02  0.7561462E-02  0.1374118E+00
         -2   -1    0    0    0  501 -0.00000000000E+00  0.00000000000E+00  0.31066708805E+03  0.31066708805E+03  0.00000000000E+00 0.  1.
          2   -1    0    0  501    0  0.00000000000E+00 -0.00000000000E+00 -0.44304944255E+02  0.44304944255E+02  0.00000000000E+00 0. -1.
         25    2    1    2    0    0  0.14836467182E+02 -0.39004375190E+02  0.18190333258E+03  0.22467443727E+03  0.12509323850E+03 0.  0.
          5    1    3    3  502    0  0.38410418223E+02 -0.28108945176E+02  0.19096609660E+03  0.19685272535E+03  0.41800000000E+01 0.  1.
         -5    1    3    3    0  502 -0.23573951041E+02 -0.10895430014E+02 -0.90627640180E+01  0.27821711927E+02  0.41800000000E+01 0.  1.
        -11    1    1    2    0    0 -0.16720621931E+02 -0.20885470244E+01  0.87444536171E+02  0.89053288163E+02  0.00000000000E+00 0.  1.
         11    1    1    2    0    0  0.18841547489E+01  0.41092922215E+02 -0.29857249589E+01  0.41244306865E+02  0.00000000000E+00 0. -1.
</event>
<event>
 7    1  0.2688177E-009  0.1968365E+03  0.7561462E-02  0.1152436E+00
         -2   -1    0    0    0  501 -0.00000000000E+00  0.00000000000E+00  0.66756320106E+02  0.66756320106E+02  0.00000000000E+00 0. -1.
          2   -1    0    0  501    0  0.00000000000E+00 -0.00000000000E+00 -0.10328565111E+04  0.10328565111E+04  0.00000000000E+00 0.  1.
         25    2    1    2    0    0 -0.17279819687E+03  0.32325182783E+02 -0.15744820562E+03  0.26709974782E+03  0.12509277977E+03 0.  0.
          5    1    3    3  502    0 -0.52620598160E+00  0.24575672020E+02 -0.68755266614E+02  0.73136855518E+02  0.41800000000E+01 0.  1.
         -5    1    3    3    0  502 -0.17227199089E+03  0.77495107626E+01 -0.88692939007E+02  0.19396289230E+03  0.41800000000E+01 0.  1.
        -11    1    1    2    0    0  0.84983759139E+02  0.28255971321E+02 -0.31623473283E+03  0.32867163778E+03  0.00000000000E+00 0.  1.
         11    1    1    2    0    0  0.87814437730E+02 -0.60581154104E+02 -0.49241725254E+03  0.50384144560E+03  0.00000000000E+00 0. -1.
</event>
<event>
 7    1  0.2688177E-009  0.1332684E+03  0.7561462E-02  0.1222685E+00
         -4   -1    0    0    0  501 -0.00000000000E+00  0.00000000000E+00  0.22410336521E+02  0.22410336521E+02  0.00000000000E+00 0.  1.
          4   -1    0    0  501    0  0.00000000000E+00 -0.00000000000E+00 -0.10536181790E+04  0.10536181790E+04  0.00000000000E+00 0. -1.
         25    2    1    2    0    0 -0.78098560938E+02 -0.67973508092E+02 -0.43890913579E+03  0.46798399724E+03  0.12509200285E+03 0.  0.
          5    1    3    3  502    0 -0.84583388175E+02 -0.29092643656E+01 -0.15538854298E+03  0.17699120052E+03  0.41800000000E+01 0. -1.
         -5    1    3    3    0  502  0.64848272374E+01 -0.65064243726E+02 -0.28352059281E+03  0.29099279672E+03  0.41800000000E+01 0. -1.
        -11    1    1    2    0    0 -0.62214612225E+01  0.16152040744E+02 -0.16882353823E+02  0.24178686287E+02  0.00000000000E+00 0.  1.
         11    1    1    2    0    0  0.84320022160E+02  0.51821467347E+02 -0.57541635282E+03  0.58386583194E+03  0.00000000000E+00 0. -1.
</event>
<event>
 7    1  0.2688177E-009  0.1477275E+03  0.7561462E-02  0.1203294E+00
         -1   -1    0    0    0  501 -0.00000000000E+00  0.00000000000E+00  0.84941130772E+02  0.84941130772E+02  0.00000000000E+00 0.  1.
          1   -1    0    0  501    0  0.00000000000E+00 -0.00000000000E+00 -0.42659484499E+03  0.42659484499E+03  0.00000000000E+00 0. -1.
         25    2    1    2    0    0  0.12594093740E+03  0.27826695267E+02 -0.66307034723E+02  0.19155451860E+03  0.12514418109E+03 0.  0.
          5    1    3    3  502    0  0.12121835070E+03  0.32304319048E+02 -0.72781756048E+00  0.12552075403E+03  0.41800000000E+01 0.  1.
         -5    1    3    3    0  502  0.47225867083E+01 -0.44776237809E+01 -0.65579217163E+02  0.66033764573E+02  0.41800000000E+01 0.  1.
        -11    1    1    2    0    0 -0.10029726389E+03  0.25099589588E+02 -0.15982740336E+03  0.19035317020E+03  0.00000000000E+00 0.  1.
         11    1    1    2    0    0 -0.25643673510E+02 -0.52926284855E+02 -0.11551927613E+03  0.12962828695E+03  0.00000000000E+00 0. -1.
</event>
<event>
 7    1  0.2688177E-009  0.7703291E+02  0.7561462E-02  0.1337689E+00
          2   -1    0    0  501    0  0.00000000000E+00  0.00000000000E+00  0.67846684796E+02  0.67846684796E+02  0.00000000000E+00 0.  1.
         -2   -1    0    0    0  501 -0.00000000000E+00 -0.00000000000E+00 -0.29356974614E+03  0.29356974614E+03  0.00000000000E+00 0. -1.
         25    2    1    2    0    0  0.11315445976E+02 -0.12195324166E+02 -0.23784603143E+03  0.26924834735E+03  0.12508865910E+03 0.  0.
          5    1    3    3  502    0 -0.24517687137E+02 -0.13665109873E+02  0.30096689851E+00  0.28379837764E+02  0.41800000000E+01 0. -1.
         -5    1    3    3    0  502  0.35833133113E+02  0.14697857079E+01 -0.23814699833E+03  0.24086850959E+03  0.41800000000E+01 0. -1.
        -11    1    1    2    0    0  0.14246250122E+02 -0.33956381225E+02 -0.39027802838E+01  0.37030030548E+02  0.00000000000E+00 0.  1.
         11    1    1    2    0    0 -0.25561696098E+02  0.46151705391E+02  0.16025750368E+02  0.55138053038E+02  0.00000000000E+00 0. -1.
</event>
<event>
 7    1  0.2688177E-009  0.1257927E+03  0.7561462E-02  0.1233836E+00
         -1   -1    0    0    0  501 -0.00000000000E+00  0.00000000000E+00  0.14007618426E+03  0.14007618426E+03  0.00000000000E+00 0.  1.
          1   -1    0    0  501    0  0.00000000000E+00 -0.00000000000E+00 -0.14455137360E+03  0.14455137360E+03  0.00000000000E+00 0. -1.
         25    2    1    2    0    0  0.40248038220E+02 -0.56366340893E+02  0.58342485842E+02  0.15442903323E+03  0.12508961461E+03 0.  0.
          5    1    3    3  502    0 -0.51847465715E+01 -0.85295270517E+02  0.51792062636E+02  0.10001027408E+03  0.41800000000E+01 0.  1.
         -5    1    3    3    0  502  0.45432784791E+02  0.28928929624E+02  0.65504232054E+01  0.54418759148E+02  0.41800000000E+01 0.  1.
        -11    1    1    2    0    0  0.14425947241E+00  0.69525490960E+02 -0.50617214396E+02  0.85999518006E+02  0.00000000000E+00 0. -1.
         11    1    1    2    0    0 -0.40392297692E+02 -0.13159150067E+02 -0.12200460778E+02  0.44199006624E+02  0.00000000000E+00 0.  1.
</event>
<event>
 7    1  0.2688177E-009  0.2618161E+03  0.7561462E-02  0.1106057E+00
         -1   -1    0    0    0  501 -0.00000000000E+00  0.00000000000E+00  0.19579777672E+03  0.19579777672E+03  0.00000000000E+00 0.  1.
          1   -1    0    0  501    0  0.00000000000E+00 -0.00000000000E+00 -0.41383688850E+03  0.41383688850E+03  0.00000000000E+00 0. -1.
         25    2    1    2    0    0  0.22783370626E+03 -0.11336785849E+03 -0.18216592441E+03  0.33703479591E+03  0.12509020981E+03 0.  0.
          5    1    3    3  502    0  0.11448133597E+03 -0.10489749130E+03 -0.15636142470E+03  0.22039924569E+03  0.41800000000E+01 0. -1.
         -5    1    3    3    0  502  0.11335237029E+03 -0.84703671963E+01 -0.25804499710E+02  0.11663555022E+03  0.41800000000E+01 0. -1.
        -11    1    1    2    0    0 -0.15338813219E+03  0.73015661294E+02 -0.66671283358E+02  0.18249456407E+03  0.00000000000E+00 0.  1.
         11    1    1    2    0    0 -0.74445574064E+02  0.40352197201E+02  0.30798095980E+02  0.90105305242E+02  0.00000000000E+00 0. -1.
</event>
<event>
 7    1  0.2688177E-009  0.1709621E+03  0.7561462E-02  0.1176848E+00
          2   -1    0    0  501    0  0.00000000000E+00  0.00000000000E+00  0.54399631703E+03  0.54399631703E+03  0.00000000000E+00 0.  1.
         -2   -1    0    0    0  501 -0.00000000000E+00 -0.00000000000E+00 -0.87896376037E+02  0.87896376037E+02  0.00000000000E+00 0. -1.
         25    2    1    2    0    0 -0.28182927785E+02 -0.14708960241E+03  0.40459151078E+03  0.44918960985E+03  0.12508951372E+03 0.  0.
          5    1    3    3  502    0 -0.51469280533E+02 -0.12817068507E+03  0.39328742941E+03  0.41685643318E+03  0.41800000000E+01 0.  1.
         -5    1    3    3    0  502  0.23286352747E+02 -0.18918917348E+02  0.11304081368E+02  0.32333176668E+02  0.41800000000E+01 0.  1.
        -11    1    1    2    0    0  0.59038995899E+02  0.11282907092E+03  0.25857271906E+02  0.12994075878E+03  0.00000000000E+00 0.  1.
         11    1    1    2    0    0 -0.30856068113E+02  0.34260531491E+02  0.25651158300E+02  0.52762324433E+02  0.00000000000E+00 0. -1.
</event>
<event>
 7    1  0.2688177E-009  0.1160593E+03  0.7561462E-02  0.1249743E+00
          2   -1    0    0  501    0  0.00000000000E+00  0.00000000000E+00  0.25013033565E+03  0.25013033565E+03  0.00000000000E+00 0.  1.
         -2   -1    0    0    0  501 -0.00000000000E+00 -0.00000000000E+00 -0.78958094722E+02  0.78958094722E+02  0.00000000000E+00 0. -1.
         25    2    1    2    0    0 -0.45012303372E+02 -0.62728190102E+02  0.43340972074E+02  0.15325099544E+03  0.12508594827E+03 0.  0.
          5    1    3    3  502    0 -0.67403749763E+02 -0.35413340935E+02 -0.21559344702E+02  0.79244229710E+02  0.41800000000E+01 0. -1.
         -5    1    3    3    0  502  0.22391446391E+02 -0.27314849167E+02  0.64900316776E+02  0.74006765732E+02  0.41800000000E+01 0. -1.
        -11    1    1    2    0    0 -0.23320154734E+02  0.43425222862E+02  0.59855087374E+02  0.77538449056E+02  0.00000000000E+00 0. -1.
         11    1    1    2    0    0  0.68332458106E+02  0.19302967240E+02  0.67976181475E+02  0.98298985870E+02  0.00000000000E+00 0.  1.
</event>
<event>
 7    1  0.2688177E-009  0.1196033E+03  0.7561462E-02  0.1243753E+00
         -1   -1    0    0    0  501 -0.00000000000E+00  0.00000000000E+00  0.25448619610E+02  0.25448619610E+02  0.00000000000E+00 0.  1.
          1   -1    0    0  501    0  0.00000000000E+00 -0.00000000000E+00 -0.79176755904E+03  0.79176755904E+03  0.00000000000E+00 0. -1.
         25    2    1    2    0    0  0.83004244266E+02  0.39521252024E+02 -0.45418076054E+03  0.47998038855E+03  0.12509746688E+03 0.  0.
          5    1    3    3  502    0  0.96676598609E+02  0.31026051720E+02 -0.19165825303E+03  0.21693164582E+03  0.41800000000E+01 0. -1.
         -5    1    3    3    0  502 -0.13672354343E+02  0.84952003038E+01 -0.26252250751E+03  0.26304874273E+03  0.41800000000E+01 0. -1.
        -11    1    1    2    0    0 -0.27411976094E+02 -0.56526040892E+02 -0.10760482813E+03  0.12460099827E+03  0.00000000000E+00 0.  1.
         11    1    1    2    0    0 -0.55592268172E+02  0.17004788868E+02 -0.20453335076E+03  0.21263479183E+03  0.00000000000E+00 0. -1.
</event>
<event>
 7    1  0.2688177E-009  0.1248027E+03  0.7561462E-02  0.1235378E+00
          3   -1    0    0  501    0  0.00000000000E+00  0.00000000000E+00  0.67571182087E+02  0.67571182087E+02  0.00000000000E+00 0. -1.
         -3   -1    0    0    0  501 -0.00000000000E+00 -0.00000000000E+00 -0.41645845263E+03  0.41645845263E+03  0.00000000000E+00 0.  1.
         25    2    1    2    0    0 -0.73872068160E+02 -0.22546330192E+02 -0.33087055729E+03  0.36205957800E+03  0.12508554228E+03 0.  0.
          5    1    3    3  502    0 -0.48726577994E+02 -0.72622589877E+02 -0.23700999014E+03  0.25266485270E+03  0.41800000000E+01 0. -1.
         -5    1    3    3    0  502 -0.25145490165E+02  0.50076259685E+02 -0.93860567150E+02  0.10939472531E+03  0.41800000000E+01 0. -1.
        -11    1    1    2    0    0  0.35580142390E+02 -0.25972408535E+02  0.21078665733E+02  0.48834646376E+02  0.00000000000E+00 0. -1.
         11    1    1    2    0    0  0.38291925770E+02  0.48518738727E+02 -0.39095378990E+02  0.73135410337E+02  0.00000000000E+00 0.  1.
</event>
<event>
 7    1  0.2688177E-009  0.1174700E+03  0.7561462E-02  0.1247330E+00
         -1   -1    0    0    0  501 -0.00000000000E+00  0.00000000000E+00  0.18443431578E+02  0.18443431578E+02  0.00000000000E+00 0.  1.
          1   -1    0    0  501    0  0.00000000000E+00 -0.00000000000E+00 -0.14813617456E+04  0.14813617456E+04  0.00000000000E+00 0. -1.
         25    2    1    2    0    0  0.99441944906E+02 -0.16759917309E+02 -0.11117090013E+04  0.11232642198E+04  0.12512397326E+03 0.  0.
          5    1    3    3  502    0  0.86017439878E+02  0.71190593600E+01 -0.10681381351E+04  0.10716278408E+04  0.41800000000E+01 0.  1.
         -5    1    3    3    0  502  0.13424505028E+02 -0.23878976669E+02 -0.43570866168E+02  0.51636379042E+02  0.41800000000E+01 0.  1.
        -11    1    1    2    0    0 -0.10512697924E+03  0.21604479553E+01 -0.34319726240E+03  0.35894388171E+03  0.00000000000E+00 0. -1.
         11    1    1    2    0    0  0.56850343311E+01  0.14599469354E+02 -0.80120502808E+01  0.17597075622E+02  0.00000000000E+00 0.  1.
</event>
<event>
 7    1  0.2688177E-009  0.1537475E+03  0.7561462E-02  0.1195942E+00
         -1   -1    0    0    0  501 -0.00000000000E+00  0.00000000000E+00  0.15794053843E+03  0.15794053843E+03  0.00000000000E+00 0.  1.
          1   -1    0    0  501    0  0.00000000000E+00 -0.00000000000E+00 -0.17387635382E+03  0.17387635382E+03  0.00000000000E+00 0. -1.
         25    2    1    2    0    0 -0.86345953153E+02 -0.73326474628E+02  0.42719370768E+02  0.17408025053E+03  0.12508634410E+03 0.  0.
          5    1    3    3  502    0  0.29714814876E+02 -0.94976002421E+01  0.25375142458E+02  0.40429505169E+02  0.41800000000E+01 0. -1.
         -5    1    3    3    0  502 -0.11606076803E+03 -0.63828874386E+02  0.17344228310E+02  0.13365074537E+03  0.41800000000E+01 0. -1.
        -11    1    1    2    0    0  0.28177684649E+00  0.55635466969E+02 -0.76993173774E+01  0.56166396281E+02  0.00000000000E+00 0. -1.
         11    1    1    2    0    0  0.86064176306E+02  0.17691007659E+02 -0.50955868779E+02  0.10157024544E+03  0.00000000000E+00 0.  1.
</event>
<event>
 7    1  0.2688177E-009  0.8939569E+02  0.7561462E-02  0.1304322E+00
         -2   -1    0    0    0  501 -0.00000000000E+00  0.00000000000E+00  0.75559305280E+02  0.75559305280E+02  0.00000000000E+00 0. -1.
          2   -1    0    0  501    0  0.00000000000E+00 -0.00000000000E+00 -0.30955617447E+03  0.30955617447E+03  0.00000000000E+00 0.  1.
         25    2    1    2    0    0  0.15216100967E+02 -0.39220062059E+02 -0.25052322614E+03  0.28316116258E+03  0.12509442100E+03 0.  0.
          5    1    3    3  502    0 -0.26066622081E+02 -0.61797117402E+02 -0.71973693276E+02  0.98468459060E+02  0.41800000000E+01 0. -1.
         -5    1    3    3    0  502  0.41282723048E+02  0.22577055343E+02 -0.17854953286E+03  0.18469270352E+03  0.41800000000E+01 0. -1.
        -11    1    1    2    0    0 -0.12355153826E+02 -0.94775588747E+01 -0.30469355257E+02  0.34217766702E+02  0.00000000000E+00 0.  1.
         11    1    1    2    0    0 -0.28609471414E+01  0.48697620933E+02  0.46995712205E+02  0.67736550464E+02  0.00000000000E+00 0. -1.
</event>
<event>
 7    1  0.2688177E-009  0.1074686E+03  0.7561462E-02  0.1265331E+00
          2   -1    0    0  501    0  0.00000000000E+00  0.00000000000E+00  0.87356151448E+03  0.87356151448E+03  0.00000000000E+00 0. -1.
         -2   -1    0    0    0  501 -0.00000000000E+00 -0.00000000000E+00 -0.18709450127E+02  0.18709450127E+02  0.00000000000E+00 0.  1.
         25    2    1    2    0    0 -0.55081115311E+02  0.20834155454E+02  0.60347266931E+03  0.61910779406E+03  0.12508879551E+03 0.  0.
          5    1    3    3  502    0  0.58043501204E+01  0.54732535690E+02  0.14141114312E+03  0.15180225539E+03  0.41800000000E+01 0. -1.
         -5    1    3    3    0  502 -0.60885465432E+02 -0.33898380236E+02  0.46206152619E+03  0.46730553867E+03  0.41800000000E+01 0. -1.
        -11    1    1    2    0    0 -0.60603415556E+01 -0.27743136978E+02  0.22713956081E+02  0.36363899544E+02  0.00000000000E+00 0.  1.
         11    1    1    2    0    0  0.61141456867E+02  0.69089815242E+01  0.22866543896E+03  0.23679927101E+03  0.00000000000E+00 0. -1.
</event>
<event>
 7    1  0.2688177E-009  0.1096488E+03  0.7561462E-02  0.1261222E+00
          1   -1    0    0  501    0  0.00000000000E+00  0.00000000000E+00  0.88461841765E+02  0.88461841765E+02  0.00000000000E+00 0. -1.
         -1   -1    0    0    0  501 -0.00000000000E+00 -0.00000000000E+00 -0.20081400198E+03  0.20081400198E+03  0.00000000000E+00 0.  1.
         25    2    1    2    0    0  0.13201112951E+02  0.74789281429E+02 -0.71598505375E+02  0.16291777126E+03  0.12509255862E+03 0.  0.
          5    1    3    3  502    0  0.63058794320E+01  0.10802042084E+03 -0.69475586500E+02  0.12865653871E+03  0.41800000000E+01 0.  1.
         -5    1    3    3    0  502  0.68952335186E+01 -0.33231139407E+02 -0.21229188749E+01  0.34261232554E+02  0.41800000000E+01 0.  1.
        -11    1    1    2    0    0 -0.75211657991E+01 -0.65490120148E+02 -0.69394900923E+02  0.95714032649E+02  0.00000000000E+00 0.  1.
         11    1    1    2    0    0 -0.56799471515E+01 -0.92991612813E+01  0.28641246082E+02  0.30644039833E+02  0.00000000000E+00 0. -1.
</event>
<event>
 7    1  0.2688177E-009  0.2256150E+03  0.7561462E-02  0.1129765E+00
         -1   -1    0    0    0  501 -0.00000000000E+00  0.00000000000E+00  0.13059250452E+03  0.13059250452E+03  0.00000000000E+00 0.  1.
          1   -1    0    0  501    0  0.00000000000E+00 -0.00000000000E+00 -0.52354950217E+03  0.52354950217E+03  0.00000000000E+00 0. -1.
         25    2    1    2    0    0 -0.10805304350E+03 -0.18690455689E+03 -0.84967337808E+02  0.26358421807E+03  0.12509363663E+03 0.  0.
          5    1    3    3  502    0 -0.43723638693E+02 -0.96038725081E+02 -0.10664289649E+03  0.15008455306E+03  0.41800000000E+01 0. -1.
         -5    1    3    3    0  502 -0.64329404803E+02 -0.90865831809E+02  0.21675558682E+02  0.11349966501E+03  0.41800000000E+01 0. -1.
        -11    1    1    2    0    0  0.11139046143E+03  0.10771328370E+03 -0.24231910368E+03  0.28762568451E+03  0.00000000000E+00 0.  1.
         11    1    1    2    0    0 -0.33374179370E+01  0.79191273195E+02 -0.65670556164E+02  0.10293210411E+03  0.00000000000E+00 0. -1.
</event>
<event>
 7    1  0.2688177E-009  0.1008663E+03  0.7561462E-02  0.1278485E+00
          1   -1    0    0  501    0  0.00000000000E+00  0.00000000000E+00  0.83886707753E+03  0.83886707753E+03  0.00000000000E+00 0. -1.
         -1   -1    0    0    0  501 -0.00000000000E+00 -0.00000000000E+00 -0.16809522608E+02  0.16809522608E+02  0.00000000000E+00 0.  1.
         25    2    1    2    0    0  0.41744350955E+02 -0.63890796762E+01  0.57865797126E+03  0.59352464044E+03  0.12507213895E+03 0.  0.
          5    1    3    3  502    0  0.46780246390E+02  0.37456056900E+02  0.49692886639E+03  0.50054681929E+03  0.41800000000E+01 0.  1.
         -5    1    3    3    0  502 -0.50358954351E+01 -0.43845136576E+02  0.81729104868E+02  0.92977821155E+02  0.41800000000E+01 0.  1.
        -11    1    1    2    0    0 -0.56036296993E+02 -0.26113528734E+02  0.15813090389E+03  0.16978623539E+03  0.00000000000E+00 0.  1.
         11    1    1    2    0    0  0.14291946039E+02  0.32502608410E+02  0.85268679773E+02  0.92365724299E+02  0.00000000000E+00 0. -1.
</event>
<event>
 7    1  0.2688177E-009  0.1112834E+03  0.7561462E-02  0.1258211E+00
         -1   -1    0    0    0  501 -0.00000000000E+00  0.00000000000E+00  0.71689616849E+02  0.71689616849E+02  0.00000000000E+00 0.  1.
          1   -1    0    0  501    0  0.00000000000E+00 -0.00000000000E+00 -0.26323873623E+03  0.26323873623E+03  0.00000000000E+00 0. -1.
         25    2    1    2    0    0  0.56121557701E+02 -0.62114782833E+02 -0.84416990755E+02  0.17257459445E+03  0.12509151385E+03 0.  0.
          5    1    3    3  502    0  0.34853578324E+01  0.16510971124E+02 -0.75465602570E+02  0.77442168474E+02  0.41800000000E+01 0.  1.
         -5    1    3    3    0  502  0.52636199869E+02 -0.78625753957E+02 -0.89513881843E+01  0.95132425977E+02  0.41800000000E+01 0.  1.
        -11    1    1    2    0    0  0.17592827087E+02  0.13399060640E+02  0.16888933929E+01  0.22178700409E+02  0.00000000000E+00 0.  1.
         11    1    1    2    0    0 -0.73714384788E+02  0.48715722193E+02 -0.10882102202E+03  0.14017505822E+03  0.00000000000E+00 0. -1.
</event>
<event>
 7    1  0.2688177E-009  0.1294175E+03  0.7561462E-02  0.1228323E+00
          1   -1    0    0  501    0  0.00000000000E+00  0.00000000000E+00  0.12832946475E+03  0.12832946475E+03  0.00000000000E+00 0. -1.
         -1   -1    0    0    0  501 -0.00000000000E+00 -0.00000000000E+00 -0.13909956687E+03  0.13909956687E+03  0.00000000000E+00 0.  1.
         25    2    1    2    0    0  0.56152520838E+02  0.52918087646E+02 -0.77705577582E+01  0.14717879526E+03  0.12509111323E+03 0.  0.
          5    1    3    3  502    0 -0.11843627585E+01  0.76566694841E+02 -0.28252407469E+02  0.81728406334E+02  0.41800000000E+01 0.  1.
         -5    1    3    3    0  502  0.57336883597E+02 -0.23648607195E+02  0.20481849711E+02  0.65450388925E+02  0.41800000000E+01 0.  1.
        -11    1    1    2    0    0 -0.47649385120E+01 -0.66627091601E+02 -0.53691508369E+01  0.67012698460E+02  0.00000000000E+00 0.  1.
         11    1    1    2    0    0 -0.51387582326E+02  0.13709003955E+02  0.23696064697E+01  0.53237537899E+02  0.00000000000E+00 0. -1.
</event>
<event>
 7    1  0.2688177E-009  0.1338606E+03  0.7561462E-02  0.1221837E+00
          2   -1    0    0  501    0  0.00000000000E+00  0.00000000000E+00  0.23078584266E+03  0.23078584266E+03  0.00000000000E+00 0. -1.
         -2   -1    0    0    0  501 -0.00000000000E+00 -0.00000000000E+00 -0.82268022473E+02  0.82268022473E+02  0.00000000000E+00 0.  1.
         25    2    1    2    0    0  0.60359224221E+02 -0.57118142514E+02  0.68085291752E+02  0.16488750048E+03  0.12508622110E+03 0.  0.
          5    1    3    3  502    0  0.89394534973E+02 -0.71015631064E+02  0.37379619250E+02  0.12020528721E+03  0.41800000000E+01 0.  1.
         -5    1    3    3    0  502 -0.29035310752E+02  0.13897488551E+02  0.30705672502E+02  0.44682213265E+02  0.41800000000E+01 0.  1.
        -11    1    1    2    0    0  0.16318619880E+02  0.38927166126E+02  0.45197169610E+02  0.61841780037E+02  0.00000000000E+00 0. -1.
         11    1    1    2    0    0 -0.76677844101E+02  0.18190976388E+02  0.35235358823E+02  0.86324584617E+02  0.00000000000E+00 0.  1.
</event>
<event>
 7    1  0.2688177E-009  0.1489746E+03  0.7561462E-02  0.1201739E+00
         -2   -1    0    0    0  501 -0.00000000000E+00  0.00000000000E+00  0.96614633076E+02  0.96614633076E+02  0.00000000000E+00 0.  1.
          2   -1    0    0  501    0  0.00000000000E+00 -0.00000000000E+00 -0.24511973693E+03  0.24511973693E+03  0.00000000000E+00 0. -1.
         25    2    1    2    0    0  0.86828805076E+02  0.55668863065E+02 -0.10077518914E+03  0.19089568834E+03  0.12508901380E+03 0.  0.
          5    1    3    3  502    0  0.43123210742E+02 -0.36617437395E+02 -0.54657360123E+02  0.78774027710E+02  0.41800000000E+01 0. -1.
         -5    1    3    3    0  502  0.43705594334E+02  0.92286300460E+02 -0.46117829012E+02  0.11212166063E+03  0.41800000000E+01 0. -1.
        -11    1    1    2    0    0 -0.47156129198E+02  0.21828007021E+02 -0.35478061525E+02  0.62919434684E+02  0.00000000000E+00 0. -1.
         11    1    1    2    0    0 -0.39672675878E+02 -0.77496870086E+02 -0.12251853198E+02  0.87919246990E+02  0.00000000000E+00 0.  1.
</event>
<event>
 7    1  0.2688177E-009  0.1433467E+03  0.7561462E-02  0.1208895E+00
         -1   -1    0    0    0  501 -0.00000000000E+00  0.00000000000E+00  0.21150995475E+02  0.21150995475E+02  0.00000000000E+00 0.  1.
          1   -1    0    0  501    0  0.00000000000E+00 -0.00000000000E+00 -0.10871550736E+04  0.10871550736E+04  0.00000000000E+00 0. -1.
         25    2    1    2    0    0  0.65413858124E+02  0.83164394733E+02 -0.57663047710E+03  0.59945412306E+03  0.12508896489E+03 0.  0.
          5    1    3    3  502    0  0.35993390843E+01 -0.23906248054E+02 -0.28813203996E+02  0.37843586807E+02  0.41800000000E+01 0. -1.
         -5    1    3    3    0  502  0.61814519040E+02  0.10707064279E+03 -0.54781727311E+03  0.56161053625E+03  0.41800000000E+01 0. -1.
        -11    1    1    2    0    0 -0.26882531639E+02 -0.94533557386E+02 -0.37338441307E+03  0.38610255620E+03  0.00000000000E+00 0.  1.
         11    1    1    2    0    0 -0.38531326485E+02  0.11369162653E+02 -0.11598918798E+03  0.12274938985E+03  0.00000000000E+00 0. -1.
</event>
<event>
 7    1  0.2688177E-009  0.9399474E+02  0.7561462E-02  0.1293456E+00
          2   -1    0    0  501    0  0.00000000000E+00  0.00000000000E+00  0.61162350833E+02  0.61162350833E+02  0.00000000000E+00 0. -1.
         -2   -1    0    0    0  501 -0.00000000000E+00 -0.00000000000E+00 -0.21055053028E+03  0.21055053028E+03  0.00000000000E+00 0.  1.
         25    2    1    2    0    0  0.58751664549E+01 -0.74313364441E+01 -0.35328921943E+02  0.13032724499E+03  0.12508923103E+03 0.  0.
          5    1    3    3  502    0 -0.15288723068E+02 -0.52345193272E+02  0.17774714919E+02  0.57508062063E+02  0.41800000000E+01 0.  1.
         -5    1    3    3    0  502  0.21163889523E+02  0.44913856828E+02 -0.53103636861E+02  0.72819182932E+02  0.41800000000E+01 0.  1.
        -11    1    1    2    0    0  0.32281863654E+02 -0.18622091972E+02 -0.53962499511E+02  0.65580884287E+02  0.00000000000E+00 0. -1.
         11    1    1    2    0    0 -0.38157030109E+02  0.26053428416E+02 -0.60096757991E+02  0.75804751830E+02  0.00000000000E+00 0.  1.
</event>
<event>
 7    1  0.2688177E-009  0.5387933E+02  0.7561462E-02  0.1425474E+00
         -1   -1    0    0    0  501 -0.00000000000E+00  0.00000000000E+00  0.49649050625E+02  0.49649050625E+02  0.00000000000E+00 0.  1.
          1   -1    0    0  501    0  0.00000000000E+00 -0.00000000000E+00 -0.19863658990E+03  0.19863658990E+03  0.00000000000E+00 0. -1.
         25    2    1    2    0    0  0.11524997819E+02 -0.61694308809E+01 -0.13235756429E+03  0.18258400399E+03  0.12508999255E+03 0.  0.
          5    1    3    3  502    0  0.98583074896E+01  0.25847657413E+02  0.14983389080E+02  0.31737390703E+02  0.41800000000E+01 0.  1.
         -5    1    3    3    0  502  0.16666903291E+01 -0.32017088294E+02 -0.14734095337E+03  0.15084661328E+03  0.41800000000E+01 0.  1.
        -11    1    1    2    0    0 -0.26411018576E+02 -0.72705125260E+01  0.12680811775E+02  0.30186176337E+02  0.00000000000E+00 0.  1.
         11    1    1    2    0    0  0.14886020757E+02  0.13439943407E+02 -0.29310786765E+02  0.35515460205E+02  0.00000000000E+00 0. -1.
</event>
<event>
 7    1  0.2688177E-009  0.1165176E+03  0.7561462E-02  0.1248955E+00
         -2   -1    0    0    0  501 -0.00000000000E+00  0.00000000000E+00  0.16810745247E+02  0.16810745247E+02  0.00000000000E+00 0.  1.
          2   -1    0    0  501    0  0.00000000000E+00 -0.00000000000E+00 -0.85434280656E+03  0.85434280656E+03  0.00000000000E+00 0. -1.
         25    2    1    2    0    0  0.50667724315E+02  0.17774741656E+02 -0.42859047426E+03  0.44969008332E+03  0.12509283226E+03 0.  0.
          5    1    3    3  502    0  0.88189016841E+02 -0.10199058071E+02 -0.26671147836E+03  0.28112952276E+03  0.41800000000E+01 0.  1.
         -5    1    3    3    0  502 -0.37521292525E+02  0.27973799727E+02 -0.16187899590E+03  0.16856056056E+03  0.41800000000E+01 0.  1.
        -11    1    1    2    0    0  0.40298383443E+01 -0.38477450909E+02 -0.22931751956E+03  0.23255811876E+03  0.00000000000E+00 0.  1.
         11    1    1    2    0    0 -0.54697562660E+02  0.20702709254E+02 -0.17962406749E+03  0.18890534972E+03  0.00000000000E+00 0. -1.
</event>
<event>
 7    1  0.2770565E-009  0.8814831E+02  0.7561462E-02  0.1307399E+00
         -2   -1    0    0    0  501 -0.00000000000E+00  0.00000000000E+00  0.28247791095E+02  0.28247791095E+02  0.00000000000E+00 0.  1.
          2   -1    0    0  501    0  0.00000000000E+00 -0.00000000000E+00 -0.83544657354E+03  0.83544657354E+03  0.00000000000E+00 0. -1.
         25    2    1    2    0    0 -0.33196955718E+02 -0.44371775813E+02 -0.69705843661E+03  0.71035837815E+03  0.12509064316E+03 0.  0.
          5    1    3    3  502    0  0.75220492347E+01  0.32590663831E+02 -0.75059361848E+02  0.82280695152E+02  0.41800000000E+01 0. -1.
         -5    1    3    3    0  502 -0.40719004953E+02 -0.76962439644E+02 -0.62199907476E+03  0.62807768300E+03  0.41800000000E+01 0. -1.
        -11    1    1    2    0    0  0.25808313844E+02  0.34114169462E+02 -0.12599489515E+03  0.13305848047E+03  0.00000000000E+00 0. -1.
         11    1    1    2    0    0  0.73886418747E+01  0.10257606351E+02  0.15854549304E+02  0.20277506021E+02  0.00000000000E+00 0.  1.
</event>
<event>
 7    1  0.2688177E-009  0.1315580E+03  0.7561462E-02  0.1225162E+00
          4   -1    0    0  501    0  0.00000000000E+00  0.00000000000E+00  0.79060094417E+03  0.79060094417E+03  0.00000000000E+00 0.  1.
         -4   -1    0    0    0  501 -0.00000000000E+00 -0.00000000000E+00 -0.27166983758E+02  0.27166983758E+02  0.00000000000E+00 0. -1.
         25    2    1    2    0    0 -0.24098773582E+02  0.90933773405E+02  0.48875790930E+03  0.51320682772E+03  0.12508897664E+03 0.  0.
          5    1    3    3  502    0 -0.34706392581E+02  0.11107784824E+03  0.28113807988E+03  0.30430069736E+03  0.41800000000E+01 0.  1.
         -5    1    3    3    0  502  0.10607618999E+02 -0.20144074832E+02  0.20761982942E+03  0.20890613036E+03  0.41800000000E+01 0.  1.
        -11    1    1    2    0    0 -0.22928406498E+02 -0.66875195893E+02  0.20681201506E+03  0.21856169204E+03  0.00000000000E+00 0.  1.
         11    1    1    2    0    0  0.47027180080E+02 -0.24058577511E+02  0.67864036040E+02  0.85999408171E+02  0.00000000000E+00 0. -1.
</event>
<event>
 7    1  0.2688177E-009  0.9208255E+02  0.7561462E-02  0.1297885E+00
          2   -1    0    0  501    0  0.00000000000E+00  0.00000000000E+00  0.14286343238E+04  0.14286343238E+04  0.00000000000E+00 0. -1.
         -2   -1    0    0    0  501 -0.00000000000E+00 -0.00000000000E+00 -0.12886999000E+02  0.12886999000E+02  0.00000000000E+00 0.  1.
         25    2    1    2    0    0 -0.59403822400E+02  0.92160625797E+01  0.10859257521E+04  0.10947586531E+04  0.12509204446E+03 0.  0.
          5    1    3    3  502    0  0.30211603344E+01  0.15646904634E+02  0.15933315394E+02  0.22919336244E+02  0.41800000000E+01 0. -1.
         -5    1    3    3    0  502 -0.62424982734E+02 -0.64308420547E+01  0.10699924367E+04  0.10718393169E+04  0.41800000000E+01 0. -1.
        -11    1    1    2    0    0  0.18753401851E+02 -0.46186013343E+02  0.12178403664E+03  0.13159099319E+03  0.00000000000E+00 0.  1.
         11    1    1    2    0    0  0.40650420549E+02  0.36969950763E+02  0.20803753605E+03  0.21517167647E+03  0.00000000000E+00 0. -1.
</event>
<event>
 6    1  0.2688177E-009  0.1138566E+03  0.7561462E-02  0.1253590E+00
          2   -1    0    0  501    0  0.00000000000E+00  0.00000000000E+00  0.25936465776E+03  0.25936465776E+03  0.00000000000E+00 0. -1.
         -2   -1    0    0    0  501 -0.00000000000E+00 -0.00000000000E+00 -0.66801584988E+02  0.66801584988E+02  0.00000000000E+00 0.  1.
          5    1    1    2  502    0  0.45672526884E+02  0.55189683813E+02  0.30829287120E+01  0.71825188902E+02  0.41800000000E+01 0. -1.
         -5    1    1    2    0  502  0.26247364591E+02 -0.38283790420E+02  0.88051190908E+02  0.99624582194E+02  0.41800000000E+01 0. -1.
        -11    1    1    2    0    0  0.17237502359E+02  0.41691182058E+01 -0.40232540886E+00  0.17739078328E+02  0.00000000000E+00 0.  1.
         11    1    1    2    0    0 -0.89157393834E+02 -0.21075011599E+02  0.10183127856E+03  0.13697739333E+03  0.00000000000E+00 0. -1.
</event>
<event>
 7    1  0.2688177E-009  0.2248502E+03  0.7561462E-02  0.1130318E+00
         -2   -1    0    0    0  501 -0.00000000000E+00  0.00000000000E+00  0.66568677965E+02  0.66568677965E+02  0.00000000000E+00 0.  1.
          2   -1    0    0  501    0  0.00000000000E+00 -0.00000000000E+00 -0.82433199685E+03  0.82433199685E+03  0.00000000000E+00 0. -1.
         25    2    1    2    0    0 -0.14857373281E+03  0.14491273414E+03 -0.35811787927E+03  0.43239890925E+03  0.12508615696E+03 0.  0.
          5    1    3    3  502    0 -0.99166733543E+02  0.14520090549E+03 -0.33350553288E+03  0.37704211549E+03  0.41800000000E+01 0.  1.
         -5    1    3    3    0  502 -0.49406999267E+02 -0.28817134549E+00 -0.24612346398E+02  0.55356793752E+02  0.41800000000E+01 0.  1.
        -11    1    1    2    0    0  0.70469567267E+00 -0.46732118811E+02 -0.96320914797E+02  0.10706122618E+03  0.00000000000E+00 0.  1.
         11    1    1    2    0    0  0.14786903714E+03 -0.98180615334E+02 -0.30332452482E+03  0.35144053939E+03  0.00000000000E+00 0. -1.
</event>
<event>
 7    1  0.2688177E-009  0.1170102E+03  0.7561462E-02  0.1248112E+00
          1   -1    0    0  501    0  0.00000000000E+00  0.00000000000E+00  0.23313749103E+03  0.23313749103E+03  0.00000000000E+00 0. -1.
         -1   -1    0    0    0  501 -0.00000000000E+00 -0.00000000000E+00 -0.73413431683E+02  0.73413431683E+02  0.00000000000E+00 0.  1.
         25    2    1    2    0    0  0.67543579105E+02  0.23042156470E+02  0.11013796366E+03  0.18130285599E+03  0.12508908225E+03 0.  0.
          5    1    3    3  502    0  0.90826090839E+02 -0.19648127372E+02  0.86701840917E+02  0.12716174466E+03  0.41800000000E+01 0. -1.
         -5    1    3    3    0  502 -0.23282511733E+02  0.42690283842E+02  0.23436122747E+02  0.54141111334E+02  0.41800000000E+01 0. -1.
        -11    1    1    2    0    0 -0.59352387902E+02  0.81812343037E+01 -0.67771665527E+01  0.60295675889E+02  0.00000000000E+00 0.  1.
         11    1    1    2    0    0 -0.81911912033E+01 -0.31223390773E+02  0.56363262233E+02  0.64952390828E+02  0.00000000000E+00 0. -1.
</event>
<event>
 7    1  0.2688177E-009  0.1757624E+03  0.7561462E-02  0.1171968E+00
         -1   -1    0    0    0  501 -0.00000000000E+00  0.00000000000E+00  0.31994290914E+03  0.31994290914E+03  0.00000000000E+00 0.  1.
          1   -1    0    0  501    0  0.00000000000E+00 -0.00000000000E+00 -0.12572426488E+03  0.12572426488E+03  0.00000000000E+00 0. -1.
         25    2    1    2    0    0 -0.13637377194E+03 -0.56107326653E+02  0.11631790328E+02  0.19372482619E+03  0.12509265349E+03 0.  0.
          5    1    3    3  502    0 -0.76970756016E+02 -0.89525142233E+02 -0.17605524846E+02  0.11944318850E+03  0.41800000000E+01 0. -1.
         -5    1    3    3    0  502 -0.59403015925E+02  0.33417815581E+02  0.29237315174E+02  0.74281637689E+02  0.41800000000E+01 0. -1.
        -11    1    1    2    0    0  0.63062557220E+02 -0.12958376500E+02  0.11118942581E+03  0.12848304969E+03  0.00000000000E+00 0.  1.
         11    1    1    2    0    0  0.73311214721E+02  0.69065703153E+02  0.71397428119E+02  0.12345929814E+03  0.00000000000E+00 0. -1.
</event>
<event>
 7    1  0.2688177E-009  0.1259864E+03  0.7561462E-02  0.1233536E+00
         -1   -1    0    0    0  501 -0.00000000000E+00  0.00000000000E+00  0.17707204036E+03  0.17707204036E+03  0.00000000000E+00 0.  1.
          1   -1    0    0  501    0  0.00000000000E+00 -0.00000000000E+00 -0.14327778931E+03  0.14327778931E+03  0.00000000000E+00 0. -1.
         25    2    1    2    0    0  0.75004818038E+01 -0.11082341575E+03 -0.26027362387E+02  0.16930073866E+03  0.12508888765E+03 0.  0.
          5    1    3    3  502    0 -0.33519083602E+02 -0.34846310315E+02 -0.59341347465E+02  0.76659390991E+02  0.41800000000E+01 0.  1.
         -5    1    3    3    0  502  0.41019565406E+02 -0.75977105437E+02  0.33313985078E+02  0.92641347672E+02  0.41800000000E+01 0.  1.
        -11    1    1    2    0    0  0.13939742389E+02  0.25940328452E+02  0.56172972477E+02  0.63424127073E+02  0.00000000000E+00 0.  1.
         11    1    1    2    0    0 -0.21440224193E+02  0.84883087301E+02  0.36486409627E+01  0.87624963932E+02  0.00000000000E+00 0. -1.
</event>
<event>
 7    1  0.2688177E-009  0.8670790E+02  0.7561462E-02  0.1311026E+00
         -1   -1    0    0    0  501 -0.00000000000E+00  0.00000000000E+00  0.41404587765E+02  0.41404587765E+02  0.00000000000E+00 0.  1.
          1   -1    0    0  501    0  0.00000000000E+00 -0.00000000000E+00 -0.35032353458E+03  0.35032353458E+03  0.00000000000E+00 0. -1.
         25    2    1    2    0    0  0.44380534906E+02 -0.26614336955E+02 -0.20997179894E+03  0.24981492986E+03  0.12506553491E+03 0.  0.
          5    1    3    3  502    0  0.74751090438E+01 -0.40857108533E+02 -0.20560185415E+03  0.20979698616E+03  0.41800000000E+01 0. -1.
         -5    1    3    3    0  502  0.36905425862E+02  0.14242771578E+02 -0.43699447875E+01  0.40017943697E+02  0.41800000000E+01 0. -1.
        -11    1    1    2    0    0 -0.23618276147E+02  0.53172205572E+02 -0.30676824303E+02  0.65773657059E+02  0.00000000000E+00 0.  1.
         11    1    1    2    0    0 -0.20762258758E+02 -0.26557868618E+02 -0.68270323578E+02  0.76139535432E+02  0.00000000000E+00 0. -1.
</event>
<event>
 7    1  0.2688177E-009  0.1064245E+03  0.7561462E-02  0.1267338E+00
          2   -1    0    0  501    0  0.00000000000E+00  0.00000000000E+00  0.76890799445E+03  0.76890799445E+03  0.00000000000E+00 0. -1.
         -2   -1    0    0    0  501 -0.00000000000E+00 -0.00000000000E+00 -0.19334867300E+02  0.19334867300E+02  0.00000000000E+00 0.  1.
         25    2    1    2    0    0 -0.43466899993E+02  0.31606178673E+02  0.45509432541E+03  0.47502235736E+03  0.12508826100E+03 0.  0.
          5    1    3    3  502    0  0.40585781903E+02  0.22713385380E+02  0.22657819331E+03  0.23134012547E+03  0.41800000000E+01 0.  1.
         -5    1    3    3    0  502 -0.84052681896E+02  0.88927932926E+01  0.22851613210E+03  0.24368223189E+03  0.41800000000E+01 0.  1.
        -11    1    1    2    0    0  0.33232741616E+02  0.13057536825E+02  0.35972679386E+02  0.50684791066E+02  0.00000000000E+00 0.  1.
         11    1    1    2    0    0  0.10234158378E+02 -0.44663715497E+02  0.25850612235E+03  0.26253571333E+03  0.00000000000E+00 0. -1.
</event>
<event>
 7    1  0.2688177E-009  0.1774615E+03  0.7561462E-02  0.1170283E+00
         -2   -1    0    0    0  501 -0.00000000000E+00  0.00000000000E+00  0.14203056895E+03  0.14203056895E+03  0.00000000000E+00 0. -1.
          2   -1    0    0  501    0  0.00000000000E+00 -0.00000000000E+00 -0.34687612492E+03  0.34687612492E+03  0.00000000000E+00 0.  1.
         25    2    1    2    0    0 -0.49043611149E+02 -0.14835920824E+03 -0.23063406498E+03  0.30537687821E+03  0.12508890979E+03 0.  0.
          5    1    3    3  502    0  0.39860096360E+02 -0.63238652604E+02 -0.10937648707E+03  0.13254675699E+03  0.41800000000E+01 0. -1.
         -5    1    3    3    0  502 -0.88903707510E+02 -0.85120555637E+02 -0.12125757791E+03  0.17283012122E+03  0.41800000000E+01 0. -1.
        -11    1    1    2    0    0  0.26720639594E+02  0.58570883632E+02  0.56897918265E+02  0.85918066160E+02  0.00000000000E+00 0.  1.
         11    1    1    2    0    0  0.22322971555E+02  0.89788324608E+02 -0.31109409255E+02  0.97611749494E+02  0.00000000000E+00 0. -1.
</event>
<event>
 7    1  0.2688177E-009  0.9224049E+02  0.7561462E-02  0.1297515E+00
         -1   -1    0    0    0  501 -0.00000000000E+00  0.00000000000E+00  0.29257854336E+02  0.29257854336E+02  0.00000000000E+00 0. -1.
          1   -1    0    0  501    0  0.00000000000E+00 -0.00000000000E+00 -0.51338069035E+03  0.51338069035E+03  0.00000000000E+00 0.  1.
         25    2    1    2    0    0  0.46539359875E+02  0.33134961406E+02 -0.28162028462E+03  0.31340089942E+03  0.12508517644E+03 0.  0.
          5    1    3    3  502    0  0.81851623855E+02  0.23548041597E+02 -0.11739883881E+03  0.14510051118E+03  0.41800000000E+01 0. -1.
         -5    1    3    3    0  502 -0.35312263979E+02  0.95869198093E+01 -0.16422144580E+03  0.16830038824E+03  0.41800000000E+01 0. -1.
        -11    1    1    2    0    0 -0.46126359396E+02 -0.21769443394E+02 -0.20967648456E+03  0.21579105142E+03  0.00000000000E+00 0.  1.
         11    1    1    2    0    0 -0.41300047939E+00 -0.11365518013E+02  0.71739331606E+01  0.13446593847E+02  0.00000000000E+00 0. -1.
</event>
<event>
 7    1  0.2688177E-009  0.1289079E+03  0.7561462E-02  0.1229085E+00
          2   -1    0    0  501    0  0.00000000000E+00  0.00000000000E+00  0.61126786688E+03  0.61126786688E+03  0.00000000000E+00 0. -1.
         -2   -1    0    0    0  501 -0.00000000000E+00 -0.00000000000E+00 -0.37279851520E+02  0.37279851520E+02  0.00000000000E+00 0.  1.
         25    2    1    2    0    0  0.42217088559E+02  0.93146420802E+02  0.29526640950E+03  0.33658033015E+03  0.12508208421E+03 0.  0.
          5    1    3    3  502    0 -0.15968781518E+02  0.11235222226E+02  0.18983040501E+03  0.19087767619E+03  0.41800000000E+01 0. -1.
         -5    1    3    3    0  502  0.58185870077E+02  0.81911198576E+02  0.10543600450E+03  0.14570265397E+03  0.41800000000E+01 0. -1.
        -11    1    1    2    0    0 -0.70199820817E+02 -0.51298842412E+02  0.20522512002E+03  0.22288323392E+03  0.00000000000E+00 0. -1.
         11    1    1    2    0    0  0.27982732258E+02 -0.41847578391E+02  0.73496485845E+02  0.89084154334E+02  0.00000000000E+00 0.  1.
</event>
<event>
 7    1  0.2688177E-009  0.1675371E+03  0.7561462E-02  0.1180441E+00
          2   -1    0    0  501    0  0.00000000000E+00  0.00000000000E+00  0.59053825575E+03  0.59053825575E+03  0.00000000000E+00 0. -1.
         -2   -1    0    0    0  501 -0.00000000000E+00 -0.00000000000E+00 -0.64943114184E+02  0.64943114184E+02  0.00000000000E+00 0.  1.
         25    2    1    2    0    0  0.16072995148E+03 -0.23492373840E+02  0.29010348772E+03  0.35523867204E+03  0.12509385116E+03 0.  0.
          5    1    3    3  502    0  0.15868160464E+03 -0.17633840132E+02  0.16402280358E+03  0.22893614058E+03  0.41800000000E+01 0. -1.
         -5    1    3    3    0  502  0.20483468403E+01 -0.58585337085E+01  0.12608068413E+03  0.12630253146E+03  0.41800000000E+01 0. -1.
        -11    1    1    2    0    0 -0.91689563564E+02 -0.79137926964E+01  0.62198847794E+02  0.11107790441E+03  0.00000000000E+00 0. -1.
         11    1    1    2    0    0 -0.69040387921E+02  0.31406166537E+02  0.17329280605E+03  0.18916479348E+03  0.00000000000E+00 0.  1.
</event>
<event>
 7    1  0.2688177E-009  0.2214346E+03  0.7561462E-02  0.1132818E+00
         -2   -1    0    0    0  501 -0.00000000000E+00  0.00000000000E+00  0.25264135140E+02  0.25264135140E+02  0.00000000000E+00 0.  1.
          2   -1    0    0  501    0  0.00000000000E+00 -0.00000000000E+00 -0.21912382297E+04  0.21912382297E+04  0.00000000000E+00 0. -1.
         25    2    1    2    0    0  0.19270020033E+03  0.76206285528E+02 -0.99916698333E+03  0.10280674928E+04  0.12508934413E+03 0.  0.
          5    1    3    3  502    0 -0.76262982352E+01  0.84100641260E+01 -0.78227532579E+01  0.14406855032E+02  0.41800000000E+01 0.  1.
         -5    1    3    3    0  502  0.20032649856E+03  0.67796221402E+02 -0.99134423007E+03  0.10136606378E+04  0.41800000000E+01 0.  1.
        -11    1    1    2    0    0 -0.15396174199E+03 -0.89741748702E+02 -0.10398770975E+04  0.10550365763E+04  0.00000000000E+00 0. -1.
         11    1    1    2    0    0 -0.38738458339E+02  0.13535463175E+02 -0.12693001375E+03  0.13339829575E+03  0.00000000000E+00 0.  1.
</event>
<event>
 7    1  0.2688177E-009  0.1037828E+03  0.7561462E-02  0.1272536E+00
          2   -1    0    0  501    0  0.00000000000E+00  0.00000000000E+00  0.65053523193E+02  0.65053523193E+02  0.00000000000E+00 0. -1.
         -2   -1    0    0    0  501 -0.00000000000E+00 -0.00000000000E+00 -0.27957531099E+03  0.27957531099E+03  0.00000000000E+00 0.  1.
         25    2    1    2    0    0  0.38867176579E+02 -0.44708230075E+02 -0.16353118419E+03  0.21424339418E+03  0.12509316725E+03 0.  0.
          5    1    3    3  502    0 -0.29216078185E+02  0.29928763482E+01 -0.11309121375E+03  0.11691719960E+03  0.41800000000E+01 0. -1.
         -5    1    3    3    0  502  0.68083254765E+02 -0.47701106423E+02 -0.50439970437E+02  0.97326194578E+02  0.41800000000E+01 0. -1.
        -11    1    1    2    0    0  0.13582344846E+02  0.39720773731E+02  0.16204668156E+02  0.44997902477E+02  0.00000000000E+00 0. -1.
         11    1    1    2    0    0 -0.52449521425E+02  0.49874563445E+01 -0.67195271764E+02  0.85387537533E+02  0.00000000000E+00 0.  1.
</event>
<event>
 7    1  0.2688177E-009  0.1956197E+03  0.7561462E-02  0.1153488E+00
          2   -1    0    0  501    0  0.00000000000E+00  0.00000000000E+00  0.54042849043E+02  0.54042849043E+02  0.00000000000E+00 0. -1.
         -2   -1    0    0    0  501 -0.00000000000E+00 -0.00000000000E+00 -0.91301244006E+03  0.91301244006E+03  0.00000000000E+00 0.  1.
         25    2    1    2    0    0  0.17714509167E+03 -0.23133192075E+02 -0.28394584945E+03  0.35803309247E+03  0.12508765648E+03 0.  0.
          5    1    3    3  502    0  0.57036147347E+01  0.24229053643E+02 -0.95885443518E+02  0.99151747035E+02  0.41800000000E+01 0. -1.
         -5    1    3    3    0  502  0.17144147693E+03 -0.47362245718E+02 -0.18806040593E+03  0.25888134543E+03  0.41800000000E+01 0. -1.
        -11    1    1    2    0    0 -0.34806075451E+02 -0.18985365716E+02 -0.23044038326E+03  0.23382616884E+03  0.00000000000E+00 0.  1.
         11    1    1    2    0    0 -0.14233901622E+03  0.42118557791E+02 -0.34458335831E+03  0.37519602779E+03  0.00000000000E+00 0. -1.
</event>
<event>
 7    1  0.2688177E-009  0.1482625E+03  0.7561462E-02  0.1202624E+00
          1   -1    0    0  501    0  0.00000000000E+00  0.00000000000E+00  0.14327812335E+04  0.14327812335E+04  0.00000000000E+00 0. -1.
         -1   -1    0    0    0  501 -0.00000000000E+00 -0.00000000000E+00 -0.30979495885E+02  0.30979495885E+02  0.00000000000E+00 0.  1.
         25    2    1    2    0    0  0.10853521704E+03  0.85163014895E+02  0.11340995435E+04  0.11492874857E+04  0.12508923921E+03 0.  0.
          5    1    3    3  502    0  0.97967711884E+02  0.89563012972E+02  0.57823858495E+03  0.59329296253E+03  0.41800000000E+01 0. -1.
         -5    1    3    3    0  502  0.10567505152E+02 -0.43999980769E+01  0.55586095853E+03  0.55599452315E+03  0.41800000000E+01 0. -1.
        -11    1    1    2    0    0 -0.61092764855E+02 -0.89250294781E+01  0.51623490147E+02  0.80479604893E+02  0.00000000000E+00 0.  1.
         11    1    1    2    0    0 -0.47442452181E+02 -0.76237985417E+02  0.21607870399E+03  0.23399363882E+03  0.00000000000E+00 0. -1.
</event>
<event>
 7    1  0.2688177E-009  0.1724936E+03  0.7561462E-02  0.1175272E+00
         -1   -1    0    0    0  501 -0.00000000000E+00  0.00000000000E+00  0.24538994637E+02  0.24538994637E+02  0.00000000000E+00 0.  1.
          1   -1    0    0  501    0  0.00000000000E+00 -0.00000000000E+00 -0.17467877368E+04  0.17467877368E+04  0.00000000000E+00 0. -1.
         25    2    1    2    0    0  0.13041340633E+03 -0.94023387977E+02 -0.12020172434E+04  0.12191559413E+04  0.12509077366E+03 0.  0.
          5    1    3    3  502    0  0.32772937187E+02 -0.73906316109E+02 -0.27172416035E+03  0.28352724858E+03  0.41800000000E+01 0.  1.
         -5    1    3    3    0  502  0.97640469145E+02 -0.20117071868E+02 -0.93029308308E+03  0.93562869271E+03  0.41800000000E+01 0.  1.
        -11    1    1    2    0    0 -0.34750293779E+02  0.44714277335E+02 -0.74214599572E+02  0.93352859114E+02  0.00000000000E+00 0.  1.
         11    1    1    2    0    0 -0.95663112553E+02  0.49309110642E+02 -0.44601689918E+03  0.45881793105E+03  0.00000000000E+00 0. -1.
</event>
<event>
 7    1  0.2688177E-009  0.1187556E+03  0.7561462E-02  0.1245164E+00
          2   -1    0    0  501    0  0.00000000000E+00  0.00000000000E+00  0.13116750704E+03  0.13116750704E+03  0.00000000000E+00 0. -1.
         -2   -1    0    0    0  501 -0.00000000000E+00 -0.00000000000E+00 -0.11139182049E+03  0.11139182049E+03  0.00000000000E+00 0.  1.
         25    2    1    2    0    0 -0.46831037227E+02  0.57964121453E+01 -0.11082780121E+02  0.13415828292E+03  0.12509545323E+03 0.  0.
          5    1    3    3  502    0 -0.86387663332E+02  0.24149637035E+02 -0.98307674579E+01  0.90333547111E+02  0.41800000000E+01 0. -1.
         -5    1    3    3    0  502  0.39556626105E+02 -0.18353224890E+02 -0.12520126631E+01  0.43824735805E+02  0.41800000000E+01 0. -1.
        -11    1    1    2    0    0  0.24465585247E+01  0.40033353108E+02  0.12594765991E+02  0.42039066831E+02  0.00000000000E+00 0. -1.
         11    1    1    2    0    0  0.44384478703E+02 -0.45829765253E+02  0.18263700677E+02  0.66361977783E+02  0.00000000000E+00 0.  1.
</event>
<event>
 7    1  0.2688177E-009  0.1144347E+03  0.7561462E-02  0.1252571E+00
         -2   -1    0    0    0  501 -0.00000000000E+00  0.00000000000E+00  0.44233275239E+02  0.44233275239E+02  0.00000000000E+00 0.  1.
          2   -1    0    0  501    0  0.00000000000E+00 -0.00000000000E+00 -0.41239996039E+03  0.41239996039E+03  0.00000000000E+00 0. -1.
         25    2    1    2    0    0 -0.65739169525E+02  0.16716024824E+02 -0.21039446093E+03  0.25399600824E+03  0.12508828527E+03 0.  0.
          5    1    3    3  502    0 -0.35455620499E+02  0.70713495000E+02 -0.13293959305E+03  0.15475111373E+03  0.41800000000E+01 0. -1.
         -5    1    3    3    0  502 -0.30283549027E+02 -0.53997470176E+02 -0.77454867887E+02  0.99244894510E+02  0.41800000000E+01 0. -1.
        -11    1    1    2    0    0  0.37912587743E+02  0.18935622212E+02 -0.15108985228E+03  0.15692057086E+03  0.00000000000E+00 0. -1.
         11    1    1    2    0    0  0.27826581782E+02 -0.35651647037E+02 -0.66823719438E+01  0.45716656537E+02  0.00000000000E+00 0.  1.
</event>
<event>
 7    1  0.2688177E-009  0.8592593E+02  0.7561462E-02  0.1313029E+00
          2   -1    0    0  501    0  0.00000000000E+00  0.00000000000E+00  0.10312413272E+03  0.10312413272E+03  0.00000000000E+00 0.  1.
         -2   -1    0    0    0  501 -0.00000000000E+00 -0.00000000000E+00 -0.14752067723E+03  0.14752067723E+03  0.00000000000E+00 0. -1.
         25    2    1    2    0    0 -0.25140211606E+02 -0.48923904390E+02 -0.57534210111E+00  0.13664928586E+03  0.12508843930E+03 0.  0.
          5    1    3    3  502    0 -0.13110468267E+02 -0.80883025815E+02 -0.33881019284E+02  0.88765669664E+02  0.41800000000E+01 0.  1.
         -5    1    3    3    0  502 -0.12029743339E+02  0.31959121425E+02  0.33305677183E+02  0.47883616192E+02  0.41800000000E+01 0.  1.
        -11    1    1    2    0    0  0.83423925786E+01  0.10088574518E+02  0.27845999933E+02  0.30769702014E+02  0.00000000000E+00 0.  1.
         11    1    1    2    0    0  0.16797819027E+02  0.38835329872E+02 -0.71667202335E+02  0.83225822080E+02  0.00000000000E+00 0. -1.
</event>
<event>
 7    1  0.2688177E-009  0.2055183E+03  0.7561462E-02  0.1145165E+00
          2   -1    0    0  501    0  0.00000000000E+00  0.00000000000E+00  0.16183507639E+04  0.16183507639E+04  0.00000000000E+00 0. -1.
         -2   -1    0    0    0  501 -0.00000000000E+00 -0.00000000000E+00 -0.35203819178E+02  0.35203819178E+02  0.00000000000E+00 0.  1.
         25    2    1    2    0    0  0.41090007918E+02  0.19030606356E+03  0.11073847330E+04  0.11313061440E+04  0.12509139810E+03 0.  0.
          5    1    3    3  502    0  0.12839477609E+02  0.10146458285E+03  0.27023351499E+03  0.28896978870E+03  0.41800000000E+01 0. -1.
         -5    1    3    3    0  502  0.28250530309E+02  0.88841480711E+02  0.83715121802E+03  0.84233635526E+03  0.41800000000E+01 0. -1.
        -11    1    1    2    0    0 -0.62216908482E+02 -0.71896082782E+02  0.21461009135E+03  0.23472852772E+03  0.00000000000E+00 0. -1.
         11    1    1    2    0    0  0.21126900563E+02 -0.11840998078E+03  0.26115212034E+03  0.28751991137E+03  0.00000000000E+00 0.  1.
</event>
<event>
 7    1  0.2688177E-009  0.1137213E+03  0.7561462E-02  0.1253830E+00
         -1   -1    0    0    0  501 -0.00000000000E+00  0.00000000000E+00  0.51417998457E+02  0.51417998457E+02  0.00000000000E+00 0.  1.
          1   -1    0    0  501    0  0.00000000000E+00 -0.00000000000E+00 -0.34242834283E+03  0.34242834283E+03  0.00000000000E+00 0. -1.
         25    2    1    2    0    0  0.11960298999E+02 -0.61882403546E+02 -0.22775044726E+03  0.26737711312E+03  0.12509106190E+03 0.  0.
          5    1    3    3  502    0  0.26230148291E+02 -0.96273099519E+02 -0.14008068097E+03  0.17203662387E+03  0.41800000000E+01 0.  1.
         -5    1    3    3    0  502 -0.14269849293E+02  0.34390695973E+02 -0.87669766291E+02  0.95340489247E+02  0.41800000000E+01 0.  1.
        -11    1    1    2    0    0  0.24955083919E+02  0.40133040768E+02 -0.68588171916E+02  0.83293184004E+02  0.00000000000E+00 0.  1.
         11    1    1    2    0    0 -0.36915382917E+02  0.21749362778E+02  0.53282748108E+01  0.43176044164E+02  0.00000000000E+00 0. -1.
</event>
<event>
 7    1  0.2688177E-009  0.1030718E+03  0.7561462E-02  0.1273966E+00
         -2   -1    0    0    0  501 -0.00000000000E+00  0.00000000000E+00  0.10358514186E+03  0.10358514186E+03  0.00000000000E+00 0.  1.
          2   -1    0    0  501    0  0.00000000000E+00 -0.00000000000E+00 -0.12543604116E+03  0.12543604116E+03  0.00000000000E+00 0. -1.
         25    2    1    2    0    0  0.16246635767E+00  0.32859401523E+01  0.26099247225E+02  0.12782912754E+03  0.12509313068E+03 0.  0.
          5    1    3    3  502    0 -0.55192310293E+02 -0.17864726655E+02 -0.89628876417E+01  0.58848494703E+02  0.41800000000E+01 0.  1.
         -5    1    3    3    0  502  0.55354776651E+02  0.21150666807E+02  0.35062134867E+02  0.68980632832E+02  0.41800000000E+01 0.  1.
        -11    1    1    2    0    0 -0.42840679062E+02 -0.13072175820E+02 -0.18715436806E+02  0.48543517982E+02  0.00000000000E+00 0.  1.
         11    1    1    2    0    0  0.42678212705E+02  0.97862356681E+01 -0.29234709725E+02  0.52648537500E+02  0.00000000000E+00 0. -1.
</event>
<event>
 7    1  0.2688177E-009  0.1268388E+03  0.7561462E-02  0.1232223E+00
          2   -1    0    0  501    0  0.00000000000E+00  0.00000000000E+00  0.56037586821E+03  0.56037586821E+03  0.00000000000E+00 0. -1.
         -2   -1    0    0    0  501 -0.00000000000E+00 -0.00000000000E+00 -0.60292313020E+02  0.60292313020E+02  0.00000000000E+00 0.  1.
         25    2    1    2    0    0  0.69453570956E+02  0.14855427609E+02  0.42919118142E+02  0.15010927863E+03  0.12508502141E+03 0.  0.
          5    1    3    3  502    0  0.10406997719E+03 -0.29719594327E+01  0.36624907776E+02  0.11044568332E+03  0.41800000000E+01 0.  1.
         -5    1    3    3    0  502 -0.34616406231E+02  0.17827387042E+02  0.62942103657E+01  0.39663595314E+02  0.41800000000E+01 0.  1.
        -11    1    1    2    0    0 -0.72186377103E+02 -0.41681057550E+02  0.37213826221E+03  0.38135950204E+03  0.00000000000E+00 0.  1.
         11    1    1    2    0    0  0.27328061478E+01  0.26825629941E+02  0.85026174836E+02  0.89199400550E+02  0.00000000000E+00 0. -1.
</event>
<event>
 7    1  0.2688177E-009  0.1328182E+03  0.7561462E-02  0.1223333E+00
         -2   -1    0    0    0  501 -0.00000000000E+00  0.00000000000E+00  0.39804121691E+02  0.39804121691E+02  0.00000000000E+00 0.  1.
          2   -1    0    0  501    0  0.00000000000E+00 -0.00000000000E+00 -0.50218756716E+03  0.50218756716E+03  0.00000000000E+00 0. -1.
         25    2    1    2    0    0  0.39323162823E+02  0.80616035397E+02 -0.24785230812E+03  0.29175858671E+03  0.12508816881E+03 0.  0.
          5    1    3    3  502    0  0.81331607620E+01  0.10521698016E+03 -0.21682862574E+03  0.24118226833E+03  0.41800000000E+01 0. -1.
         -5    1    3    3    0  502  0.31190002061E+02 -0.24600944759E+02 -0.31023682383E+02  0.50576318374E+02  0.41800000000E+01 0. -1.
        -11    1    1    2    0    0 -0.55729435299E+02 -0.23200777305E+02 -0.15305923522E+03  0.16453320490E+03  0.00000000000E+00 0. -1.
         11    1    1    2    0    0  0.16406272475E+02 -0.57415258092E+02 -0.61471902124E+02  0.85699897252E+02  0.00000000000E+00 0.  1.
</event>
<event>
 7    1  0.3608779E-009  0.1265729E+03  0.7561462E-02  0.1232631E+00
         -2   -1    0    0    0  501 -0.00000000000E+00  0.00000000000E+00  0.20622363186E+02  0.20622363186E+02  0.00000000000E+00 0.  1.
          2   -1    0    0  501    0  0.00000000000E+00 -0.00000000000E+00 -0.11289553831E+04  0.11289553831E+04  0.00000000000E+00 0. -1.
         25    2    1    2    0    0  0.95694303529E+02  0.22965678532E+02 -0.75236583409E+03  0.76901592168E+03  0.12508524042E+03 0.  0.
          5    1    3    3  502    0  0.11122702689E+03 -0.13460794050E+02 -0.43729895447E+03  0.45144267905E+03  0.41800000000E+01 0.  1.
         -5    1    3    3    0  502 -0.15532723365E+02  0.36426472582E+02 -0.31506687962E+03  0.31757324263E+03  0.41800000000E+01 0.  1.
        -11    1    1    2    0    0 -0.29994784818E+02 -0.18753717704E+02 -0.25517635654E+02  0.43618101441E+02  0.00000000000E+00 0.  1.
         11    1    1    2    0    0 -0.65699518711E+02 -0.42119608282E+01 -0.33044955020E+03  0.33694372319E+03  0.00000000000E+00 0. -1.
</event>
<event>
 7    1  0.2688177E-009  0.8272496E+02  0.7561462E-02  0.1321492E+00
         -2   -1    0    0    0  501 -0.00000000000E+00  0.00000000000E+00  0.45174458525E+02  0.45174458525E+02  0.00000000000E+00 0.  1.
          2   -1    0    0  501    0  0.00000000000E+00 -0.00000000000E+00 -0.41543570629E+03  0.41543570629E+03  0.00000000000E+00 0. -1.
         25    2    1    2    0    0 -0.51550941391E+02  0.45169841838E+02 -0.12296216099E+03  0.18832619889E+03  0.12509696232E+03 0.  0.
          5    1    3    3  502    0 -0.55252043051E+02  0.38884393203E+02 -0.26745740212E+01  0.67745184643E+02  0.41800000000E+01 0.  1.
         -5    1    3    3    0  502  0.37011016599E+01  0.62854486347E+01 -0.12028758697E+03  0.12058101424E+03  0.41800000000E+01 0.  1.
        -11    1    1    2    0    0  0.15914062152E+02  0.13391150698E+02 -0.63105145913E+01  0.21734831161E+02  0.00000000000E+00 0.  1.
         11    1    1    2    0    0  0.35636879240E+02 -0.58560992535E+02 -0.24098857218E+03  0.25054913477E+03  0.00000000000E+00 0. -1.
</event>
<event>
 7    1  0.2688177E-009  0.2209039E+03  0.7561462E-02  0.1133211E+00
         -2   -1    0    0    0  501 -0.00000000000E+00  0.00000000000E+00  0.57237654822E+02  0.57237654822E+02  0.00000000000E+00 0.  1.
          2   -1    0    0  501    0  0.00000000000E+00 -0.00000000000E+00 -0.14743184069E+04  0.14743184069E+04  0.00000000000E+00 0. -1.
         25    2    1    2    0    0  0.16278376484E+03 -0.11904152650E+03 -0.11961807771E+04  0.12194940875E+04  0.12509172169E+03 0.  0.
          5    1    3    3  502    0  0.17533415012E+03 -0.11338842053E+03 -0.94049840482E+03  0.96340734894E+03  0.41800000000E+01 0. -1.
         -5    1    3    3    0  502 -0.12550385289E+02 -0.56531059658E+01 -0.25568237232E+03  0.25608673861E+03  0.41800000000E+01 0. -1.
        -11    1    1    2    0    0  0.13947611878E+01  0.33352633709E+02 -0.20408550147E+02  0.39126109610E+02  0.00000000000E+00 0.  1.
         11    1    1    2    0    0 -0.16417852602E+03  0.85688892789E+02 -0.20049142481E+03  0.27293586459E+03  0.00000000000E+00 0. -1.
</event>
<event>
 7    1  0.2688177E-009  0.1204873E+03  0.7561462E-02  0.1242295E+00
          1   -1    0    0  501    0  0.00000000000E+00  0.00000000000E+00  0.32346936270E+03  0.32346936270E+03  0.00000000000E+00 0. -1.
         -1   -1    0    0    0  501 -0.00000000000E+00 -0.00000000000E+00 -0.56761643808E+02  0.56761643808E+02  0.00000000000E+00 0.  1.
         25    2    1    2    0    0  0.34252066265E+02 -0.60089885874E+02  0.20374821247E+03  0.24888676709E+03  0.12508912951E+03 0.  0.
          5    1    3    3  502    0  0.77542392764E+02 -0.45632350163E+02  0.16852130277E+03  0.19108122866E+03  0.41800000000E+01 0. -1.
         -5    1    3    3    0  502 -0.43290326499E+02 -0.14457535710E+02  0.35226909699E+02  0.57805538438E+02  0.41800000000E+01 0. -1.
        -11    1    1    2    0    0 -0.42575812746E+02 -0.18116088816E+01 -0.63562994259E-01  0.42614384872E+02  0.00000000000E+00 0.  1.
         11    1    1    2    0    0  0.83237464812E+01  0.61901494755E+02  0.63023069418E+02  0.88729854543E+02  0.00000000000E+00 0. -1.
</event>
<event>
 7    1  0.2688177E-009  0.1553242E+03  0.7561462E-02  0.1194079E+00
         -1   -1    0    0    0  501 -0.00000000000E+00  0.00000000000E+00  0.56693382514E+02  0.56693382514E+02  0.00000000000E+00 0.  1.
          1   -1    0    0  501    0  0.00000000000E+00 -0.00000000000E+00 -0.57999855862E+03  0.57999855862E+03  0.00000000000E+00 0. -1.
         25    2    1    2    0    0 -0.12594259849E+03  0.32189462529E+02 -0.38854113878E+03  0.42838128280E+03  0.12509439365E+03 0.  0.
          5    1    3    3  502    0 -0.69057506380E+02 -0.26361425327E+02 -0.79170875991E+02  0.10839448297E+03  0.41800000000E+01 0. -1.
         -5    1    3    3    0  502 -0.56885092105E+02  0.58550887856E+02 -0.30937026279E+03  0.31998679984E+03  0.41800000000E+01 0. -1.
        -11    1    1    2    0    0  0.86132485102E+02 -0.61158326240E+02 -0.11235355057E+03  0.15421564831E+03  0.00000000000E+00 0.  1.
         11    1    1    2    0    0  0.39810113383E+02  0.28968863711E+02 -0.22410486760E+02  0.54095010020E+02  0.00000000000E+00 0. -1.
</event>
<event>
 7    1  0.2688177E-009  0.1041901E+03  0.7561462E-02  0.1271724E+00
         -3   -1    0    0    0  501 -0.00000000000E+00  0.00000000000E+00  0.39041835282E+03  0.39041835282E+03  0.00000000000E+00 0.  1.
          3   -1    0    0  501    0  0.00000000000E+00 -0.00000000000E+00 -0.45415870955E+02  0.45415870955E+02  0.00000000000E+00 0. -1.
         25    2    1    2    0    0  0.10764689599E+02  0.55296553663E+01  0.30847911831E+03  0.33309764361E+03  0.12509283797E+03 0.  0.
          5    1    3    3  502    0 -0.52744591658E+02  0.18355045977E+02  0.18893224802E+03  0.19705777427E+03  0.41800000000E+01 0.  1.
         -5    1    3    3    0  502  0.63509281257E+02 -0.12825390611E+02  0.11954687030E+03  0.13603986933E+03  0.41800000000E+01 0.  1.
        -11    1    1    2    0    0  0.36601894583E+02 -0.14268670690E+02  0.37850491074E+02  0.54552298988E+02  0.00000000000E+00 0.  1.
         11    1    1    2    0    0 -0.47366584182E+02  0.87390153240E+01 -0.13271275162E+01  0.48184281185E+02  0.00000000000E+00 0. -1.
</event>
<event>
 7    1  0.2688177E-009  0.7354877E+02  0.7561462E-02  0.1348425E+00
         -1   -1    0    0    0  501 -0.00000000000E+00  0.00000000000E+00  0.12645161919E+03  0.12645161919E+03  0.00000000000E+00 0.  1.
          1   -1    0    0  501    0  0.00000000000E+00 -0.00000000000E+00 -0.11753802008E+03  0.11753802008E+03  0.00000000000E+00 0. -1.
         25    2    1    2    0    0  0.62359058447E+00 -0.55298003188E+02  0.80529313663E+01  0.13700463466E+03  0.12508861736E+03 0.  0.
          5    1    3    3  502    0 -0.61537113146E+01 -0.52387718909E+02  0.62506237893E+02  0.81895319958E+02  0.41800000000E+01 0.  1.
         -5    1    3    3    0  502  0.67773018991E+01 -0.29102842798E+01 -0.54453306527E+02  0.55109314706E+02  0.41800000000E+01 0.  1.
        -11    1    1    2    0    0 -0.29588539898E+02  0.47066749128E+02 -0.30580600900E+02  0.63450246006E+02  0.00000000000E+00 0. -1.
         11    1    1    2    0    0  0.28964949313E+02  0.82312540605E+01  0.31441268645E+02  0.43534758597E+02  0.00000000000E+00 0.  1.
</event>
<event>
 7    1  0.2688177E-009  0.9666718E+02  0.7561462E-02  0.1287465E+00
         -2   -1    0    0    0  501 -0.00000000000E+00  0.00000000000E+00  0.11773102510E+03  0.11773102510E+03  0.00000000000E+00 0.  1.
          2   -1    0    0  501    0  0.00000000000E+00 -0.00000000000E+00 -0.15590288032E+03  0.15590288032E+03  0.00000000000E+00 0. -1.
         25    2    1    2    0    0 -0.33404077177E+02  0.61289366214E+01 -0.88977302705E+02  0.15722175015E+03  0.12509325357E+03 0.  0.
          5    1    3    3  502    0 -0.49760027068E+01 -0.58467194965E+02 -0.43423368869E+02  0.73117951653E+02  0.41800000000E+01 0.  1.
         -5    1    3    3    0  502 -0.28428074470E+02  0.64596131587E+02 -0.45553933837E+02  0.84103798499E+02  0.41800000000E+01 0.  1.
        -11    1    1    2    0    0  0.32635676351E+02 -0.27345693694E+02 -0.16632533215E+02  0.45711218488E+02  0.00000000000E+00 0. -1.
         11    1    1    2    0    0  0.76840082596E+00  0.21216757073E+02  0.67437980706E+02  0.70700936784E+02  0.00000000000E+00 0.  1.
</event>
<event>
 7    1  0.2688177E-009  0.1026368E+03  0.7561462E-02  0.1274847E+00
          2   -1    0    0  501    0  0.00000000000E+00  0.00000000000E+00  0.34625722311E+03  0.34625722311E+03  0.00000000000E+00 0. -1.
         -2   -1    0    0    0  501 -0.00000000000E+00 -0.00000000000E+00 -0.38202822997E+02  0.38202822997E+02  0.00000000000E+00 0.  1.
         25    2    1    2    0    0  0.39800253732E+02  0.27862151806E+01  0.16946510235E+03  0.21437961285E+03  0.12509346225E+03 0.  0.
          5    1    3    3  502    0  0.31202496996E+02  0.50004551955E+02  0.28880392446E+02  0.65769297570E+02  0.41800000000E+01 0. -1.
         -5    1    3    3    0  502  0.85977567367E+01 -0.47218336774E+02  0.14058470990E+03  0.14861031528E+03  0.41800000000E+01 0. -1.
        -11    1    1    2    0    0 -0.73702143788E+01  0.42039888356E+02  0.69623063730E+02  0.81664210497E+02  0.00000000000E+00 0. -1.
         11    1    1    2    0    0 -0.32430039353E+02 -0.44826103537E+02  0.68966234038E+02  0.88416222765E+02  0.00000000000E+00 0.  1.
</event>
<event>
 7    1  0.2688177E-009  0.1201931E+03  0.7561462E-02  0.1242779E+00
         -3   -1    0    0    0  501 -0.00000000000E+00  0.00000000000E+00  0.10567253140E+03  0.10567253140E+03  0.00000000000E+00 0.  1.
          3   -1    0    0  501    0  0.00000000000E+00 -0.00000000000E+00 -0.30972194046E+03  0.30972194046E+03  0.00000000000E+00 0. -1.
         25    2    1    2    0    0  0.83559285147E+02  0.20351824421E+02 -0.23899490085E+03  0.28313051925E+03  0.12509187585E+03 0.  0.
          5    1    3    3  502    0 -0.26760423455E+02  0.19136805520E+02 -0.22398935354E+02  0.40019024151E+02  0.41800000000E+01 0.  1.
         -5    1    3    3    0  502  0.11031970860E+03  0.12150189008E+01 -0.21659596550E+03  0.24311149510E+03  0.41800000000E+01 0.  1.
        -11    1    1    2    0    0 -0.59205856289E+02 -0.34627111895E+02  0.62516603780E+02  0.92804612198E+02  0.00000000000E+00 0.  1.
         11    1    1    2    0    0 -0.24353428859E+02  0.14275287474E+02 -0.27571111993E+02  0.39459340417E+02  0.00000000000E+00 0. -1.
</event>
<event>
 7    1  0.2688177E-009  0.9592505E+02  0.7561462E-02  0.1289106E+00
          1   -1    0    0  501    0  0.00000000000E+00  0.00000000000E+00  0.21427631604E+03  0.21427631604E+03  0.00000000000E+00 0. -1.
         -1   -1    0    0    0  501 -0.00000000000E+00 -0.00000000000E+00 -0.71270869553E+02  0.71270869553E+02  0.00000000000E+00 0.  1.
         25    2    1    2    0    0 -0.50259850536E+02  0.26238142271E+02  0.60145624288E+02  0.14993078640E+03  0.12508897594E+03 0.  0.
          5    1    3    3  502    0  0.10007809740E+02 -0.17318238493E+02  0.71707091902E+02  0.74561766807E+02  0.41800000000E+01 0.  1.
         -5    1    3    3    0  502 -0.60267660276E+02  0.43556380764E+02 -0.11561467614E+02  0.75369019589E+02  0.41800000000E+01 0.  1.
        -11    1    1    2    0    0 -0.91276567658E+01  0.19796069181E+02  0.48134020385E+02  0.52840158890E+02  0.00000000000E+00 0. -1.
         11    1    1    2    0    0  0.59387507302E+02 -0.46034211452E+02  0.34725801810E+02  0.82776240304E+02  0.00000000000E+00 0.  1.
</event>
<event>
 7    1  0.2688177E-009  0.8398228E+02  0.7561462E-02  0.1318116E+00
         -1   -1    0    0    0  501 -0.00000000000E+00  0.00000000000E+00  0.21205038945E+02  0.21205038945E+02  0.00000000000E+00 0.  1.
          1   -1    0    0  501    0  0.00000000000E+00 -0.00000000000E+00 -0.70976942251E+03  0.70976942251E+03  0.00000000000E+00 0. -1.
         25    2    1    2    0    0 -0.44104884964E+02 -0.31325959941E+02 -0.44455807439E+03  0.46497886668E+03  0.12508760258E+03 0.  0.
          5    1    3    3  502    0 -0.31066387813E+02 -0.38773919569E+01 -0.42976482294E+03  0.43092392606E+03  0.41800000000E+01 0. -1.
         -5    1    3    3    0  502 -0.13038497150E+02 -0.27448567984E+02 -0.14793251449E+02  0.34054940621E+02  0.41800000000E+01 0. -1.
        -11    1    1    2    0    0 -0.23148406998E+02  0.30699845449E+02 -0.96612130107E+02  0.10398188756E+03  0.00000000000E+00 0. -1.
         11    1    1    2    0    0  0.67253291962E+02  0.62611449163E+00 -0.14739417907E+03  0.16201370721E+03  0.00000000000E+00 0.  1.
</event>
<event>
 7    1  0.2688177E-009  0.1134030E+03  0.7561462E-02  0.1254395E+00
          2   -1    0    0  501    0  0.00000000000E+00  0.00000000000E+00  0.37420182336E+03  0.37420182336E+03  0.00000000000E+00 0. -1.
         -2   -1    0    0    0  501 -0.00000000000E+00 -0.00000000000E+00 -0.62690765256E+02  0.62690765256E+02  0.00000000000E+00 0.  1.
         25    2    1    2    0    0  0.50618198649E+01 -0.37694452895E+02  0.24247123062E+02  0.13297617379E+03  0.12509294952E+03 0.  0.
          5    1    3    3  502    0  0.87399889363E+01  0.45247449513E+02 -0.38615996534E+00  0.46274621700E+02  0.41800000000E+01 0.  1.
         -5    1    3    3    0  502 -0.36781690714E+01 -0.82941902407E+02  0.24633283027E+02  0.86701552093E+02  0.41800000000E+01 0.  1.
        -11    1    1    2    0    0 -0.44855431777E+02  0.35949512335E+01  0.16196322364E+03  0.16809824284E+03  0.00000000000E+00 0. -1.
         11    1    1    2    0    0  0.39793611912E+02  0.34099501661E+02  0.12530071140E+03  0.13581817198E+03  0.00000000000E+00 0.  1.
</event>
<event>
 7    1  0.2688177E-009  0.1212926E+03  0.7561462E-02  0.1240980E+00
          1   -1    0    0  501    0  0.00000000000E+00  0.00000000000E+00  0.43305381158E+02  0.43305381158E+02  0.00000000000E+00 0. -1.
         -1   -1    0    0    0  501 -0.00000000000E+00 -0.00000000000E+00 -0.50550225193E+03  0.50550225193E+03  0.00000000000E+00 0.  1.
         25    2    1    2    0    0 -0.80731943476E+01 -0.99686798606E+02 -0.24584354326E+03  0.29340873964E+03  0.12508799482E+03 0.  0.
          5    1    3    3  502    0  0.12153956761E+02 -0.12120390635E+02 -0.18255803080E+03  0.18341082177E+03  0.41800000000E+01 0. -1.
         -5    1    3    3    0  502 -0.20227151109E+02 -0.87566407971E+02 -0.63285512463E+02  0.10999791786E+03  0.41800000000E+01 0. -1.
        -11    1    1    2    0    0 -0.41360472773E+02  0.41356931094E+02 -0.80470333117E+02  0.99481450379E+02  0.00000000000E+00 0. -1.
         11    1    1    2    0    0  0.49433667120E+02  0.58329867512E+02 -0.13588299440E+03  0.15591744308E+03  0.00000000000E+00 0.  1.
</event>
<event>
 7    1  0.2688177E-009  0.8403861E+02  0.7561462E-02  0.1317966E+00
         -2   -1    0    0    0  501 -0.00000000000E+00  0.00000000000E+00  0.62406877492E+02  0.62406877492E+02  0.00000000000E+00 0.  1.
          2   -1    0    0  501    0  0.00000000000E+00 -0.00000000000E+00 -0.26758970975E+03  0.26758970975E+03  0.00000000000E+00 0. -1.
         25    2    1    2    0    0  0.53830756040E+02 -0.31178617848E+02 -0.15583556499E+03  0.20928942287E+03  0.12508989849E+03 0.  0.
          5    1    3    3  502    0  0.56791210928E+02 -0.14622111066E+01 -0.16752768700E+03  0.17694738769E+03  0.41800000000E+01 0.  1.
         -5    1    3    3    0  502 -0.29604548884E+01 -0.29716406742E+02  0.11692122006E+02  0.32342035183E+02  0.41800000000E+01 0.  1.
        -11    1    1    2    0    0 -0.18902897682E+02  0.40598270672E+02 -0.66893950561E+02  0.80500557414E+02  0.00000000000E+00 0. -1.
         11    1    1    2    0    0 -0.34927858357E+02 -0.94196528234E+01  0.17546683290E+02  0.40206606960E+02  0.00000000000E+00 0.  1.
</event>
<event>
 7    1  0.2688177E-009  0.9955634E+02  0.7561462E-02  0.1281232E+00
         -2   -1    0    0    0  501 -0.00000000000E+00  0.00000000000E+00  0.20039477518E+03  0.20039477518E+03  0.00000000000E+00 0.  1.
          2   -1    0    0  501    0  0.00000000000E+00 -0.00000000000E+00 -0.73594554949E+02  0.73594554949E+02  0.00000000000E+00 0. -1.
         25    2    1    2    0    0 -0.13954035539E+02 -0.48612531555E+02  0.10781847114E+03  0.17271876400E+03  0.12509618454E+03 0.  0.
          5    1    3    3  502    0 -0.56957990480E+02 -0.66623131655E+02  0.64119892576E+02  0.10868158710E+03  0.41800000000E+01 0. -1.
         -5    1    3    3    0  502  0.43003954941E+02  0.18010600099E+02  0.43698578565E+02  0.64037176898E+02  0.41800000000E+01 0. -1.
        -11    1    1    2    0    0 -0.13467074135E+02  0.83767553310E+01 -0.28909502457E+02  0.32974102686E+02  0.00000000000E+00 0. -1.
         11    1    1    2    0    0  0.27421109674E+02  0.40235776224E+02  0.47891251547E+02  0.68296463443E+02  0.00000000000E+00 0.  1.
</event>
<event>
 7    1  0.2688177E-009  0.6284482E+02  0.7561462E-02  0.1386267E+00
          1   -1    0    0  501    0  0.00000000000E+00  0.00000000000E+00  0.25094111918E+03  0.25094111918E+03  0.00000000000E+00 0. -1.
         -1   -1    0    0    0  501 -0.00000000000E+00 -0.00000000000E+00 -0.59739247144E+02  0.59739247144E+02  0.00000000000E+00 0.  1.
         25    2    1    2    0    0 -0.26455582357E+02 -0.77272271540E+01  0.44528740996E+02  0.13560978529E+03  0.12509035620E+03 0.  0.
          5    1    3    3  502    0 -0.27715466549E+02  0.14603171255E+02  0.84167033646E+02  0.89905292667E+02  0.41800000000E+01 0. -1.
         -5    1    3    3    0  502  0.12598841920E+01 -0.22330398409E+02 -0.39638292650E+02  0.45704492618E+02  0.41800000000E+01 0. -1.
        -11    1    1    2    0    0  0.46545899578E+02 -0.60983417293E+01  0.14287415911E+03  0.15038861620E+03  0.00000000000E+00 0. -1.
         11    1    1    2    0    0 -0.20090317221E+02  0.13825568883E+02  0.37989719328E+01  0.24681964847E+02  0.00000000000E+00 0.  1.
</event>
<event>
 7    1  0.2688177E-009  0.9775466E+02  0.7561462E-02  0.1285090E+00
         -2   -1    0    0    0  501 -0.00000000000E+00  0.00000000000E+00  0.31954418359E+02  0.31954418359E+02  0.00000000000E+00 0.  1.
          2   -1    0    0  501    0  0.00000000000E+00 -0.00000000000E+00 -0.41738406112E+03  0.41738406112E+03  0.00000000000E+00 0. -1.
         25    2    1    2    0    0  0.29541616729E+02  0.29834029867E+02 -0.21437809366E+03  0.25173057225E+03  0.12509011754E+03 0.  0.
          5    1    3    3  502    0  0.41797118509E+02  0.55575553470E+02 -0.52301160511E+02  0.87112140658E+02  0.41800000000E+01 0.  1.
         -5    1    3    3    0  502 -0.12255501780E+02 -0.25741523603E+02 -0.16207693315E+03  0.16461843159E+03  0.41800000000E+01 0.  1.
        -11    1    1    2    0    0 -0.39982064149E+02  0.20981671035E+02 -0.60523467361E+02  0.75510834152E+02  0.00000000000E+00 0. -1.
         11    1    1    2    0    0  0.10440447420E+02 -0.50815700902E+02 -0.11052808174E+03  0.12209707307E+03  0.00000000000E+00 0.  1.
</event>
<event>
 7    1  0.2688177E-009  0.2705667E+03  0.7561462E-02  0.1100956E+00
         -2   -1    0    0    0  501 -0.00000000000E+00  0.00000000000E+00  0.26529954585E+03  0.26529954585E+03  0.00000000000E+00 0. -1.
          2   -1    0    0  501    0  0.00000000000E+00 -0.00000000000E+00 -0.34556150630E+03  0.34556150630E+03  0.00000000000E+00 0.  1.
         25    2    1    2    0    0  0.41493983207E+02 -0.26379309804E+03  0.44680606582E+02  0.29824893613E+03  0.12509005589E+03 0.  0.
          5    1    3    3  502    0 -0.15524160046E+02 -0.43560064207E+02 -0.33942081178E+02  0.57515354589E+02  0.41800000000E+01 0. -1.
         -5    1    3    3    0  502  0.57018143253E+02 -0.22023303384E+03  0.78622687760E+02  0.24073358154E+03  0.41800000000E+01 0. -1.
        -11    1    1    2    0    0 -0.37550438632E+02  0.21841595217E+03 -0.14285058059E+03  0.26366996791E+03  0.00000000000E+00 0.  1.
         11    1    1    2    0    0 -0.39435445758E+01  0.45377145876E+02  0.17908013558E+02  0.48942148107E+02  0.00000000000E+00 0. -1.
</event>
<event>
 7    1  0.2688177E-009  0.1263560E+03  0.7561462E-02  0.1232965E+00
         -1   -1    0    0    0  501 -0.00000000000E+00  0.00000000000E+00  0.84824588961E+02  0.84824588961E+02  0.00000000000E+00 0.  1.
          1   -1    0    0  501    0  0.00000000000E+00 -0.00000000000E+00 -0.24612554573E+03  0.24612554573E+03  0.00000000000E+00 0. -1.
         25    2    1    2    0    0  0.20713494394E+02  0.63696959112E+02 -0.94314486161E+01  0.14220090566E+03  0.12508314793E+03 0.  0.
          5    1    3    3  502    0 -0.35257881290E+01  0.98810048754E+02 -0.47561809556E+01  0.99075479176E+02  0.41800000000E+01 0.  1.
         -5    1    3    3    0  502  0.24239282523E+02 -0.35113089641E+02 -0.46752676605E+01  0.43125426480E+02  0.41800000000E+01 0.  1.
        -11    1    1    2    0    0  0.19032749277E+02 -0.68267764932E+02 -0.83377053488E+02  0.10942790468E+03  0.00000000000E+00 0.  1.
         11    1    1    2    0    0 -0.39746243671E+02  0.45708058200E+01 -0.68492454662E+02  0.79321324355E+02  0.00000000000E+00 0. -1.
</event>
<event>
 7    1  0.2688177E-009  0.1035369E+03  0.7561462E-02  0.1273029E+00
         -1   -1    0    0    0  501 -0.00000000000E+00  0.00000000000E+00  0.47268671996E+02  0.47268671996E+02  0.00000000000E+00 0.  1.
          1   -1    0    0  501    0  0.00000000000E+00 -0.00000000000E+00 -0.31951227586E+03  0.31951227586E+03  0.00000000000E+00 0. -1.
         25    2    1    2    0    0 -0.44994011526E+02  0.16256166399E+01 -0.15396749486E+03  0.20342142563E+03  0.12508870144E+03 0.  0.
          5    1    3    3  502    0 -0.78241847569E+02  0.12776872357E+02 -0.50491128309E+02  0.94084332470E+02  0.41800000000E+01 0.  1.
         -5    1    3    3    0  502  0.33247836043E+02 -0.11151255717E+02 -0.10347636655E+03  0.10933709316E+03  0.41800000000E+01 0.  1.
        -11    1    1    2    0    0 -0.21884871950E+02  0.10705352778E+02 -0.83491806075E+02  0.86973753972E+02  0.00000000000E+00 0. -1.
         11    1    1    2    0    0  0.66878883476E+02 -0.12330969418E+02 -0.34784302926E+02  0.76385768254E+02  0.00000000000E+00 0.  1.
</event>
<event>
 7    1  0.2688177E-009  0.1713309E+03  0.7561462E-02  0.1176467E+00
         -2   -1    0    0    0  501 -0.00000000000E+00  0.00000000000E+00  0.29778802563E+03  0.29778802563E+03  0.00000000000E+00 0.  1.
          2   -1    0    0  501    0  0.00000000000E+00 -0.00000000000E+00 -0.12477592701E+03  0.12477592701E+03  0.00000000000E+00 0. -1.
         25    2    1    2    0    0  0.14545246937E+02  0.14409293097E+03  0.16422403256E+03  0.25217315066E+03  0.12508968015E+03 0.  0.
          5    1    3    3  502    0  0.43509409935E+02  0.25924797168E+02  0.10530605348E+03  0.11692733282E+03  0.41800000000E+01 0.  1.
         -5    1    3    3    0  502 -0.28964162998E+02  0.11816813380E+03  0.58917979085E+02  0.13524581784E+03  0.41800000000E+01 0.  1.
        -11    1    1    2    0    0 -0.36516500982E+02 -0.15536959230E+02  0.14397918998E+00  0.39684665503E+02  0.00000000000E+00 0.  1.
         11    1    1    2    0    0  0.21971254045E+02 -0.12855597174E+03  0.86440868672E+01  0.13070613648E+03  0.00000000000E+00 0. -1.
</event>
<event>
 7    1  0.2688177E-009  0.1693950E+03  0.7561462E-02  0.1178480E+00
         -1   -1    0    0    0  501 -0.00000000000E+00  0.00000000000E+00  0.15094817735E+03  0.15094817735E+03  0.00000000000E+00 0.  1.
          1   -1    0    0  501    0  0.00000000000E+00 -0.00000000000E+00 -0.24887720917E+03  0.24887720917E+03  0.00000000000E+00 0. -1.
         25    2    1    2    0    0  0.12525282865E+03  0.84592579138E+02  0.40483637622E+01  0.19623435584E+03  0.12508939857E+03 0.  0.
          5    1    3    3  502    0 -0.14255670424E+02  0.33253190789E+02 -0.25698568115E+02  0.44574517833E+02  0.41800000000E+01 0.  1.
         -5    1    3    3    0  502  0.13950849907E+03  0.51339388349E+02  0.29746931877E+02  0.15165983801E+03  0.41800000000E+01 0.  1.
        -11    1    1    2    0    0 -0.85028177118E+02 -0.72252205252E+02 -0.22737718790E+02  0.11387350844E+03  0.00000000000E+00 0.  1.
         11    1    1    2    0    0 -0.40224651531E+02 -0.12340373886E+02 -0.79239676790E+02  0.89717522237E+02  0.00000000000E+00 0. -1.
</event>
<event>
 7    1  0.2688177E-009  0.1443698E+03  0.7561462E-02  0.1207567E+00
         -2   -1    0    0    0  501 -0.00000000000E+00  0.00000000000E+00  0.17004591185E+03  0.17004591185E+03  0.00000000000E+00 0.  1.
          2   -1    0    0  501    0  0.00000000000E+00 -0.00000000000E+00 -0.21622206541E+03  0.21622206541E+03  0.00000000000E+00 0. -1.
         25    2    1    2    0    0  0.12809510898E+03 -0.38448413316E+02  0.48475682962E+02  0.18943015728E+03  0.12508898920E+03 0.  0.
          5    1    3    3  502    0  0.10989138174E+03 -0.13138766096E+02  0.86176603607E+02  0.14033040428E+03  0.41800000000E+01 0.  1.
         -5    1    3    3    0  502  0.18203727235E+02 -0.25309647220E+02 -0.37700920645E+02  0.49099753005E+02  0.41800000000E+01 0.  1.
        -11    1    1    2    0    0 -0.25545058035E+02  0.35759199857E+02 -0.82579157157E+02  0.93544575263E+02  0.00000000000E+00 0. -1.
         11    1    1    2    0    0 -0.10255005094E+03  0.26892134591E+01 -0.12072679365E+02  0.10329324472E+03  0.00000000000E+00 0.  1.
</event>
<event>
 7    1  0.2688177E-009  0.9886845E+02  0.7561462E-02  0.1282694E+00
          3   -1    0    0  501    0  0.00000000000E+00  0.00000000000E+00  0.11017923509E+03  0.11017923509E+03  0.00000000000E+00 0. -1.
         -3   -1    0    0    0  501 -0.00000000000E+00 -0.00000000000E+00 -0.11359342167E+03  0.11359342167E+03  0.00000000000E+00 0.  1.
         25    2    1    2    0    0 -0.96942315987E+01  0.26414195028E+02  0.41924284706E+01  0.12828114385E+03  0.12508711998E+03 0.  0.
          5    1    3    3  502    0  0.23881964172E+02  0.54304486766E+02 -0.35394229862E+02  0.69206570520E+02  0.41800000000E+01 0.  1.
         -5    1    3    3    0  502 -0.33576195770E+02 -0.27890291737E+02  0.39586658333E+02  0.59074573325E+02  0.41800000000E+01 0.  1.
        -11    1    1    2    0    0 -0.39389688121E+02 -0.16113180323E+01 -0.91681790304E+01  0.40474675821E+02  0.00000000000E+00 0.  1.
         11    1    1    2    0    0  0.49083919720E+02 -0.24802876996E+02  0.15615639766E+01  0.55016837099E+02  0.00000000000E+00 0. -1.
</event>
<event>
 7    1  0.2688177E-009  0.8107454E+02  0.7561462E-02  0.1326029E+00
         -1   -1    0    0    0  501 -0.00000000000E+00  0.00000000000E+00  0.12381960593E+03  0.12381960593E+03  0.00000000000E+00 0.  1.
          1   -1    0    0  501    0  0.00000000000E+00 -0.00000000000E+00 -0.10251607270E+03  0.10251607270E+03  0.00000000000E+00 0. -1.
         25    2    1    2    0    0  0.60213593199E+01  0.56034214184E+01 -0.16908302932E+02  0.12649315089E+03  0.12508785478E+03 0.  0.
          5    1    3    3  502    0 -0.24085259877E+02 -0.30708337567E+02 -0.53707673360E+02  0.66521337308E+02  0.41800000000E+01 0.  1.
         -5    1    3    3    0  502  0.30106619197E+02  0.36311758986E+02  0.36799370428E+02  0.59971813580E+02  0.41800000000E+01 0.  1.
        -11    1    1    2    0    0 -0.21373720226E+02  0.29963655359E+02  0.47416632090E+02  0.60024941129E+02  0.00000000000E+00 0.  1.
         11    1    1    2    0    0  0.15352360906E+02 -0.35567076778E+02 -0.92047959289E+01  0.39817586617E+02  0.00000000000E+00 0. -1.
</event>
<event>
 7    1  0.2745276E-009  0.1634207E+03  0.7561462E-02  0.1184888E+00
         -2   -1    0    0    0  501 -0.00000000000E+00  0.00000000000E+00  0.28837725951E+02  0.28837725951E+02  0.00000000000E+00 0.  1.
          2   -1    0    0  501    0  0.00000000000E+00 -0.00000000000E+00 -0.11500100988E+04  0.11500100988E+04  0.00000000000E+00 0. -1.
         25    2    1    2    0    0 -0.51692686627E+02 -0.12580214643E+03 -0.76281239374E+03  0.78487479219E+03  0.12508947787E+03 0.  0.
          5    1    3    3  502    0  0.41957556006E+01 -0.12737019307E+03 -0.56926918819E+03  0.58337436648E+03  0.41800000000E+01 0.  1.
         -5    1    3    3    0  502 -0.55888442227E+02  0.15680466375E+01 -0.19354320556E+03  0.20150042571E+03  0.41800000000E+01 0.  1.
        -11    1    1    2    0    0  0.54921632003E+02  0.78222331026E+02 -0.31616733146E+03  0.33029819893E+03  0.00000000000E+00 0. -1.
         11    1    1    2    0    0 -0.32289453760E+01  0.47579815407E+02 -0.42192647642E+02  0.63674833627E+02  0.00000000000E+00 0.  1.
</event>
<event>
 7    1  0.4186646E-009  0.1373760E+03  0.7561462E-02  0.1216904E+00
          2   -1    0    0  501    0  0.00000000000E+00  0.00000000000E+00  0.22465324965E+03  0.22465324965E+03  0.00000000000E+00 0. -1.
         -2   -1    0    0    0  501 -0.00000000000E+00 -0.00000000000E+00 -0.13091007126E+03  0.13091007126E+03  0.00000000000E+00 0.  1.
         25    2    1    2    0    0 -0.43461489058E+02  0.11406265746E+03  0.10344617902E+03  0.20309634281E+03  0.12509125330E+03 0.  0.
          5    1    3    3  502    0  0.17583456150E+02  0.69390412250E+02  0.10520311223E+03  0.12731604166E+03  0.41800000000E+01 0. -1.
         -5    1    3    3    0  502 -0.61044945208E+02  0.44672245214E+02 -0.17569332115E+01  0.75780301149E+02  0.41800000000E+01 0. -1.
        -11    1    1    2    0    0  0.44924857298E+02 -0.69851037710E+02  0.34499868142E+02  0.89931369245E+02  0.00000000000E+00 0. -1.
         11    1    1    2    0    0 -0.14633682401E+01 -0.44211619754E+02 -0.44202868761E+02  0.62535608853E+02  0.00000000000E+00 0.  1.
</event>
<event>
 7    1  0.2688177E-009  0.1401682E+03  0.7561462E-02  0.1213103E+00
         -3   -1    0    0    0  501 -0.00000000000E+00  0.00000000000E+00  0.17826033456E+03  0.17826033456E+03  0.00000000000E+00 0.  1.
          3   -1    0    0  501    0  0.00000000000E+00 -0.00000000000E+00 -0.11713748172E+03  0.11713748172E+03  0.00000000000E+00 0. -1.
         25    2    1    2    0    0  0.60180532587E+02  0.71224974448E+02  0.48487497507E+02  0.16335811070E+03  0.12506055105E+03 0.  0.
          5    1    3    3  502    0  0.98316288604E+02  0.55054597327E+02  0.45583598275E+02  0.12162416751E+03  0.41800000000E+01 0. -1.
         -5    1    3    3    0  502 -0.38135756017E+02  0.16170377120E+02  0.29038992320E+01  0.41733943187E+02  0.41800000000E+01 0. -1.
        -11    1    1    2    0    0  0.48220016172E+01 -0.59741278215E+02 -0.12821936758E+02  0.61291713018E+02  0.00000000000E+00 0.  1.
         11    1    1    2    0    0 -0.65002534204E+02 -0.11483696232E+02  0.25457292092E+02  0.70747992570E+02  0.00000000000E+00 0. -1.
</event>
<event>
 7    1  0.2688177E-009  0.2353050E+03  0.7561462E-02  0.1122961E+00
          1   -1    0    0  501    0  0.00000000000E+00  0.00000000000E+00  0.23538945040E+03  0.23538945040E+03  0.00000000000E+00 0.  1.
         -1   -1    0    0    0  501 -0.00000000000E+00 -0.00000000000E+00 -0.25046679527E+03  0.25046679527E+03  0.00000000000E+00 0. -1.
         25    2    1    2    0    0  0.38538800136E+01 -0.21530481364E+03  0.14749309997E+02  0.24947000845E+03  0.12508688102E+03 0.  0.
          5    1    3    3  502    0 -0.47273977937E+02 -0.16083439966E+03  0.36362683286E+02  0.17158744196E+03  0.41800000000E+01 0.  1.
         -5    1    3    3    0  502  0.51127857951E+02 -0.54470413984E+02 -0.21613373289E+02  0.77882566490E+02  0.41800000000E+01 0.  1.
        -11    1    1    2    0    0  0.35702316103E+02  0.97897936866E+02  0.13634060752E+02  0.10509304939E+03  0.00000000000E+00 0. -1.
         11    1    1    2    0    0 -0.39556196117E+02  0.11740687678E+03 -0.43460715624E+02  0.13129318782E+03  0.00000000000E+00 0.  1.
</event>
<event>
 7    1  0.2688177E-009  0.1056963E+03  0.7561462E-02  0.1268754E+00
          1   -1    0    0  501    0  0.00000000000E+00  0.00000000000E+00  0.32040656487E+02  0.32040656487E+02  0.00000000000E+00 0. -1.
         -1   -1    0    0    0  501 -0.00000000000E+00 -0.00000000000E+00 -0.57690803011E+03  0.57690803011E+03  0.00000000000E+00 0.  1.
         25    2    1    2    0    0  0.32438773670E+02  0.72834111115E+02 -0.34729117442E+03  0.37764588166E+03  0.12509264696E+03 0.  0.
          5    1    3    3  502    0  0.40383620314E+02  0.19585078603E+02 -0.30694622816E+03  0.31023841071E+03  0.41800000000E+01 0.  1.
         -5    1    3    3    0  502 -0.79448466439E+01  0.53249032512E+02 -0.40344946259E+02  0.67407470953E+02  0.41800000000E+01 0.  1.
        -11    1    1    2    0    0  0.26518096728E+02 -0.23823188434E+02 -0.10620080803E+03  0.11202395006E+03  0.00000000000E+00 0.  1.
         11    1    1    2    0    0 -0.58956870399E+02 -0.49010922680E+02 -0.91375391174E+02  0.11927885488E+03  0.00000000000E+00 0. -1.
</event>
<event>
 7    1  0.3034792E-009  0.1334956E+03  0.7561462E-02  0.1222359E+00
         -2   -1    0    0    0  501 -0.00000000000E+00  0.00000000000E+00  0.40214484512E+02  0.40214484512E+02  0.00000000000E+00 0.  1.
          2   -1    0    0  501    0  0.00000000000E+00 -0.00000000000E+00 -0.60739641469E+03  0.60739641469E+03  0.00000000000E+00 0. -1.
         25    2    1    2    0    0  0.99615160467E+02  0.47055280486E+02 -0.26143367110E+03  0.31005337702E+03  0.12509257613E+03 0.  0.
          5    1    3    3  502    0  0.10003404997E+03 -0.81497800691E+01 -0.21678785746E+03  0.23893027772E+03  0.41800000000E+01 0.  1.
         -5    1    3    3    0  502 -0.41888950010E+00  0.55205060555E+02 -0.44645813642E+02  0.71123099307E+02  0.41800000000E+01 0.  1.
        -11    1    1    2    0    0 -0.55669589829E+02 -0.18063985383E+02 -0.51637282826E+02  0.78050110681E+02  0.00000000000E+00 0.  1.
         11    1    1    2    0    0 -0.43945570637E+02 -0.28991295103E+02 -0.25411097625E+03  0.25950741150E+03  0.00000000000E+00 0. -1.
</event>
<event>
 7    1  0.2688177E-009  0.2805818E+03  0.7561462E-02  0.1095372E+00
          1   -1    0    0  501    0  0.00000000000E+00  0.00000000000E+00  0.62212056033E+03  0.62212056033E+03  0.00000000000E+00 0. -1.
         -1   -1    0    0    0  501 -0.00000000000E+00 -0.00000000000E+00 -0.13265828068E+03  0.13265828068E+03  0.00000000000E+00 0.  1.
         25    2    1    2    0    0  0.22353601166E+03  0.14199425525E+03  0.30446856976E+03  0.42246766472E+03  0.12508837166E+03 0.  0.
          5    1    3    3  502    0  0.23695630358E+02  0.71530730173E+02  0.11857236591E+03  0.14055250483E+03  0.41800000000E+01 0.  1.
         -5    1    3    3    0  502  0.19984038131E+03  0.70463525076E+02  0.18589620384E+03  0.28191515988E+03  0.41800000000E+01 0.  1.
        -11    1    1    2    0    0 -0.18526129777E+03 -0.14514707461E+03  0.17294684093E+03  0.29206169127E+03  0.00000000000E+00 0.  1.
         11    1    1    2    0    0 -0.38274713891E+02  0.31528193621E+01  0.12046868963E+02  0.40249485030E+02  0.00000000000E+00 0. -1.
</event>
<event>
 7    1  0.2688177E-009  0.3876459E+03  0.7561462E-02  0.1048143E+00
         -3   -1    0    0    0  501 -0.00000000000E+00  0.00000000000E+00  0.55334797066E+03  0.55334797066E+03  0.00000000000E+00 0.  1.
          3   -1    0    0  501    0  0.00000000000E+00 -0.00000000000E+00 -0.51313916352E+03  0.51313916352E+03  0.00000000000E+00 0. -1.
         25    2    1    2    0    0  0.34794907296E+03 -0.14997604686E+03 -0.33835992849E+03  0.52315880784E+03  0.12508527095E+03 0.  0.
          5    1    3    3  502    0  0.37455016124E+02  0.96356840544E+01 -0.29519590859E+01  0.39011679053E+02  0.41800000000E+01 0. -1.
         -5    1    3    3    0  502  0.31049405684E+03 -0.15961173091E+03 -0.33540796940E+03  0.48414712879E+03  0.41800000000E+01 0. -1.
        -11    1    1    2    0    0 -0.65860135293E+02 -0.37998205446E+01  0.89204301471E+02  0.11094775103E+03  0.00000000000E+00 0.  1.
         11    1    1    2    0    0 -0.28208893767E+03  0.15377586740E+03  0.28936443416E+03  0.43238057531E+03  0.00000000000E+00 0. -1.
</event>
<event>
 7    1  0.2688177E-009  0.1936396E+03  0.7561462E-02  0.1155219E+00
         -1   -1    0    0    0  501 -0.00000000000E+00  0.00000000000E+00  0.59830631901E+03  0.59830631901E+03  0.00000000000E+00 0.  1.
          1   -1    0    0  501    0  0.00000000000E+00 -0.00000000000E+00 -0.75001874087E+02  0.75001874087E+02  0.00000000000E+00 0. -1.
         25    2    1    2    0    0 -0.92662987299E+02 -0.14356801941E+03  0.36856277832E+03  0.42507173280E+03  0.12509696660E+03 0.  0.
          5    1    3    3  502    0  0.61194941928E+01 -0.75697588321E+02  0.22773539895E+03  0.24010093174E+03  0.41800000000E+01 0. -1.
         -5    1    3    3    0  502 -0.98782481492E+02 -0.67870431087E+02  0.14082737936E+03  0.18497080106E+03  0.41800000000E+01 0. -1.
        -11    1    1    2    0    0  0.22395727101E+02  0.11207967430E+03  0.71375834306E+02  0.13475136996E+03  0.00000000000E+00 0.  1.
         11    1    1    2    0    0  0.70267260198E+02  0.31488345111E+02  0.83365832299E+02  0.11348509034E+03  0.00000000000E+00 0. -1.
</event>
<event>
 7    1  0.2688177E-009  0.1050398E+03  0.7561462E-02  0.1270041E+00
          2   -1    0    0  501    0  0.00000000000E+00  0.00000000000E+00  0.20243630053E+03  0.20243630053E+03  0.00000000000E+00 0. -1.
         -2   -1    0    0    0  501 -0.00000000000E+00 -0.00000000000E+00 -0.68607980882E+02  0.68607980882E+02  0.00000000000E+00 0.  1.
         25    2    1    2    0    0  0.83949946823E+01 -0.34920199359E+02  0.40920254374E+02  0.13642679213E+03  0.12509159098E+03 0.  0.
          5    1    3    3  502    0  0.36950413829E+02 -0.69492558548E+02  0.52756556248E+01  0.78992744717E+02  0.41800000000E+01 0. -1.
         -5    1    3    3    0  502 -0.28555419147E+02  0.34572359189E+02  0.35644598749E+02  0.57434047416E+02  0.41800000000E+01 0. -1.
        -11    1    1    2    0    0  0.17391310984E+02 -0.19426849995E+02  0.27292288656E+01  0.26216576601E+02  0.00000000000E+00 0.  1.
         11    1    1    2    0    0 -0.25786305666E+02  0.54347049354E+02  0.90178836407E+02  0.10840091268E+03  0.00000000000E+00 0. -1.
</event>
<event>
 7    1  0.2688177E-009  0.1010803E+03  0.7561462E-02  0.1278040E+00
          1   -1    0    0  501    0  0.00000000000E+00  0.00000000000E+00  0.31586175839E+03  0.31586175839E+03  0.00000000000E+00 0.  1.
         -1   -1    0    0    0  501 -0.00000000000E+00 -0.00000000000E+00 -0.48481604866E+02  0.48481604866E+02  0.00000000000E+00 0. -1.
         25    2    1    2    0    0  0.14431786718E+02  0.45425203685E+02  0.19951671211E+03  0.24026519769E+03  0.12509484886E+03 0.  0.
          5    1    3    3  502    0  0.55383090767E+02 -0.23598855903E+01  0.15034012494E+03  0.16028874374E+03  0.41800000000E+01 0. -1.
         -5    1    3    3    0  502 -0.40951304048E+02  0.47785089275E+02  0.49176587172E+02  0.79976453948E+02  0.41800000000E+01 0. -1.
        -11    1    1    2    0    0  0.10597612740E+02  0.14844419847E+02  0.54490302779E+02  0.57461807258E+02  0.00000000000E+00 0.  1.
         11    1    1    2    0    0 -0.25029399458E+02 -0.60269623532E+02  0.13373138636E+02  0.66616358313E+02  0.00000000000E+00 0. -1.
</event>
<event>
 6    1  0.2688177E-009  0.1147005E+03  0.7561462E-02  0.1252105E+00
          2   -1    0    0  501    0  0.00000000000E+00  0.00000000000E+00  0.70119655645E+03  0.70119655645E+03  0.00000000000E+00 0. -1.
         -2   -1    0    0    0  501 -0.00000000000E+00 -0.00000000000E+00 -0.53778691087E+02  0.53778691087E+02  0.00000000000E+00 0.  1.
          5    1    1    2  502    0 -0.29691313317E+02  0.70889630292E+02  0.98558830338E+02  0.12505290563E+03  0.41800000000E+01 0.  1.
         -5    1    1    2    0  502  0.22525210197E+02  0.59620552363E+01 -0.29055575025E+02  0.37478394271E+02  0.41800000000E+01 0.  1.
        -11    1    1    2    0    0 -0.27832143491E+02  0.14175873544E+02  0.10354749583E+03  0.10815575572E+03  0.00000000000E+00 0.  1.
         11    1    1    2    0    0  0.34998246611E+02 -0.91027559071E+02  0.47436711422E+03  0.48428819192E+03  0.00000000000E+00 0. -1.
</event>
<event>
 7    1  0.2688177E-009  0.9053431E+02  0.7561462E-02  0.1301563E+00
         -2   -1    0    0    0  501 -0.00000000000E+00  0.00000000000E+00  0.50492941358E+02  0.50492941358E+02  0.00000000000E+00 0.  1.
          2   -1    0    0  501    0  0.00000000000E+00 -0.00000000000E+00 -0.28831880770E+03  0.28831880770E+03  0.00000000000E+00 0. -1.
         25    2    1    2    0    0  0.88408400580E+01  0.53662991231E+02 -0.12815620991E+03  0.18716217122E+03  0.12509111526E+03 0.  0.
          5    1    3    3  502    0 -0.15885568666E+02 -0.30858889445E+02 -0.44302397967E+01  0.35238072795E+02  0.41800000000E+01 0. -1.
         -5    1    3    3    0  502  0.24726408724E+02  0.84521880676E+02 -0.12372597012E+03  0.15192409843E+03  0.41800000000E+01 0. -1.
        -11    1    1    2    0    0 -0.13067627839E+02 -0.19198142746E+02 -0.11428535728E+03  0.11662107216E+03  0.00000000000E+00 0. -1.
         11    1    1    2    0    0  0.42267877811E+01 -0.34464848485E+02  0.46157008497E+01  0.35028505683E+02  0.00000000000E+00 0.  1.
</event>
<event>
 7    1  0.2688177E-009  0.9349940E+02  0.7561462E-02  0.1294592E+00
          2   -1    0    0  501    0  0.00000000000E+00  0.00000000000E+00  0.33849815183E+03  0.33849815183E+03  0.00000000000E+00 0.  1.
         -2   -1    0    0    0  501 -0.00000000000E+00 -0.00000000000E+00 -0.42662808271E+02  0.42662808271E+02  0.00000000000E+00 0. -1.
         25    2    1    2    0    0  0.18172712235E+02  0.42958607022E+02  0.12499621793E+03  0.18288371509E+03  0.12508680730E+03 0.  0.
          5    1    3    3  502    0 -0.68309699928E+01 -0.18424984206E+02 -0.16875306599E+02  0.26237198152E+02  0.41800000000E+01 0.  1.
         -5    1    3    3    0  502  0.25003682228E+02  0.61383591228E+02  0.14187152453E+03  0.15664651694E+03  0.41800000000E+01 0.  1.
        -11    1    1    2    0    0 -0.30950687084E+02 -0.66701926682E+02  0.12024138681E+03  0.14094354599E+03  0.00000000000E+00 0. -1.
         11    1    1    2    0    0  0.12777974850E+02  0.23743319660E+02  0.50597738823E+02  0.57333699024E+02  0.00000000000E+00 0.  1.
</event>
<event>
 7    1  0.2688177E-009  0.1093210E+03  0.7561462E-02  0.1261832E+00
          2   -1    0    0  501    0  0.00000000000E+00  0.00000000000E+00  0.14821558438E+03  0.14821558438E+03  0.00000000000E+00 0. -1.
         -2   -1    0    0    0  501 -0.00000000000E+00 -0.00000000000E+00 -0.93183500070E+02  0.93183500070E+02  0.00000000000E+00 0.  1.
         25    2    1    2    0    0  0.43006135086E+01 -0.33965660906E+02  0.61224498692E+02  0.14341865190E+03  0.12509320156E+03 0.  0.
          5    1    3    3  502    0 -0.53230602303E+02  0.13367365608E+02  0.27621727981E+02  0.61584216659E+02  0.41800000000E+01 0. -1.
         -5    1    3    3    0  502  0.57531215812E+02 -0.47333026513E+02  0.33602770711E+02  0.81834435241E+02  0.41800000000E+01 0. -1.
        -11    1    1    2    0    0  0.38250560014E+02  0.78235510119E+01 -0.22968959742E+02  0.45297752741E+02  0.00000000000E+00 0.  1.
         11    1    1    2    0    0 -0.42551173523E+02  0.26142109894E+02  0.16776545361E+02  0.52682679811E+02  0.00000000000E+00 0. -1.
</event>
<event>
 7    1  0.2817840E-009  0.1158276E+03  0.7561462E-02  0.1250143E+00
         -2   -1    0    0    0  501 -0.00000000000E+00  0.00000000000E+00  0.39109536544E+02  0.39109536544E+02  0.00000000000E+00 0.  1.
          2   -1    0    0  501    0  0.00000000000E+00 -0.00000000000E+00 -0.37501032740E+03  0.37501032740E+03  0.00000000000E+00 0. -1.
         25    2    1    2    0    0  0.45935316467E+02 -0.28515044225E+02 -0.17469390861E+03  0.22155775254E+03  0.12508682968E+03 0.  0.
          5    1    3    3  502    0  0.47841484285E+02 -0.74865035306E+02 -0.10332162184E+03  0.13633198843E+03  0.41800000000E+01 0. -1.
         -5    1    3    3    0  502 -0.19061678183E+01  0.46349991081E+02 -0.71372286775E+02  0.85225764111E+02  0.41800000000E+01 0. -1.
        -11    1    1    2    0    0 -0.36234114021E+02 -0.23522551679E+02 -0.11296317580E+03  0.12094172375E+03  0.00000000000E+00 0.  1.
         11    1    1    2    0    0 -0.97012024461E+01  0.52037595904E+02 -0.48243706441E+02  0.71620387653E+02  0.00000000000E+00 0. -1.
</event>
<event>
 7    1  0.2688177E-009  0.1220171E+03  0.7561462E-02  0.1239806E+00
          2   -1    0    0  501    0  0.00000000000E+00  0.00000000000E+00  0.44150519181E+02  0.44150519181E+02  0.00000000000E+00 0. -1.
         -2   -1    0    0    0  501 -0.00000000000E+00 -0.00000000000E+00 -0.54872652705E+03  0.54872652705E+03  0.00000000000E+00 0.  1.
         25    2    1    2    0    0 -0.27337462944E+02  0.95236247106E+02 -0.36915201266E+03  0.40216712266E+03  0.12509159224E+03 0.  0.
          5    1    3    3  502    0  0.51172979390E+01  0.90572453663E+02 -0.11825165261E+03  0.14909889954E+03  0.41800000000E+01 0.  1.
         -5    1    3    3    0  502 -0.32454760883E+02  0.46637934433E+01 -0.25090036006E+03  0.25306822311E+03  0.41800000000E+01 0.  1.
        -11    1    1    2    0    0  0.47987648532E+02 -0.83786428277E+02 -0.13635466720E+03  0.16707954765E+03  0.00000000000E+00 0.  1.
         11    1    1    2    0    0 -0.20650185587E+02 -0.11449818829E+02  0.93067199481E+00  0.23630375925E+02  0.00000000000E+00 0. -1.
</event>
<event>
 7    1  0.2688177E-009  0.1056073E+03  0.7561462E-02  0.1268928E+00
         -2   -1    0    0    0  501 -0.00000000000E+00  0.00000000000E+00  0.46369661315E+02  0.46369661315E+02  0.00000000000E+00 0.  1.
          2   -1    0    0  501    0  0.00000000000E+00 -0.00000000000E+00 -0.30238671446E+03  0.30238671446E+03  0.00000000000E+00 0. -1.
         25    2    1    2    0    0 -0.19918980930E+02  0.36584389099E+02 -0.10423703290E+03  0.16807366253E+03  0.12509282026E+03 0.  0.
          5    1    3    3  502    0  0.37753237715E+02  0.57511484457E+02 -0.42701896559E+02  0.81078987242E+02  0.41800000000E+01 0. -1.
         -5    1    3    3    0  502 -0.57672218646E+02 -0.20927095359E+02 -0.61535136343E+02  0.86994675288E+02  0.41800000000E+01 0. -1.
        -11    1    1    2    0    0  0.41891931435E+02 -0.40740170328E+02 -0.51344907551E+02  0.77788141314E+02  0.00000000000E+00 0.  1.
         11    1    1    2    0    0 -0.21972950505E+02  0.41557812291E+01 -0.10043511269E+03  0.10289457193E+03  0.00000000000E+00 0. -1.
</event>
<event>
 7    1  0.2688177E-009  0.9453682E+02  0.7561462E-02  0.1292223E+00
         -2   -1    0    0    0  501 -0.00000000000E+00  0.00000000000E+00  0.84612417598E+02  0.84612417598E+02  0.00000000000E+00 0. -1.
          2   -1    0    0  501    0  0.00000000000E+00 -0.00000000000E+00 -0.18543395607E+03  0.18543395607E+03  0.00000000000E+00 0.  1.
         25    2    1    2    0    0 -0.13402470760E+02  0.22202123787E+02  0.27998448429E+01  0.12777950321E+03  0.12508877562E+03 0.  0.
          5    1    3    3  502    0 -0.36131936584E+02  0.59773597476E+02 -0.26504659362E+02  0.74822250464E+02  0.41800000000E+01 0.  1.
         -5    1    3    3    0  502  0.22729465825E+02 -0.37571473689E+02  0.29304504205E+02  0.52957252747E+02  0.41800000000E+01 0.  1.
        -11    1    1    2    0    0  0.28931360936E+02 -0.41270520352E+02 -0.10618742170E+03  0.11754168632E+03  0.00000000000E+00 0.  1.
         11    1    1    2    0    0 -0.15528890176E+02  0.19068396565E+02  0.25660383845E+01  0.24725184138E+02  0.00000000000E+00 0. -1.
</event>
<event>
 7    1  0.2688177E-009  0.9850723E+02  0.7561462E-02  0.1283467E+00
          1   -1    0    0  501    0  0.00000000000E+00  0.00000000000E+00  0.45874332718E+02  0.45874332718E+02  0.00000000000E+00 0. -1.
         -1   -1    0    0    0  501 -0.00000000000E+00 -0.00000000000E+00 -0.26819474867E+03  0.26819474867E+03  0.00000000000E+00 0.  1.
         25    2    1    2    0    0  0.27179216024E+02 -0.15627900018E+02 -0.11804128289E+03  0.17482551348E+03  0.12508906689E+03 0.  0.
          5    1    3    3  502    0  0.71787774914E+02 -0.15377199995E+02 -0.37225232578E+02  0.82420466192E+02  0.41800000000E+01 0. -1.
         -5    1    3    3    0  502 -0.44608558890E+02 -0.25070002380E+00 -0.80816050310E+02  0.92405047289E+02  0.41800000000E+01 0. -1.
        -11    1    1    2    0    0  0.23484730279E+02  0.15264130517E+02 -0.59579498639E+01  0.28636050763E+02  0.00000000000E+00 0. -1.
         11    1    1    2    0    0 -0.50663946303E+02  0.36376950126E+00 -0.98321183201E+02  0.11060751715E+03  0.00000000000E+00 0.  1.
</event>
<event>
 7    1  0.2688177E-009  0.1069750E+03  0.7561462E-02  0.1266277E+00
          1   -1    0    0  501    0  0.00000000000E+00  0.00000000000E+00  0.28591717083E+03  0.28591717083E+03  0.00000000000E+00 0. -1.
         -1   -1    0    0    0  501 -0.00000000000E+00 -0.00000000000E+00 -0.55166253897E+02  0.55166253897E+02  0.00000000000E+00 0.  1.
         25    2    1    2    0    0  0.33091194524E+00 -0.62343655540E+02  0.14071956623E+03  0.19833326227E+03  0.12508895121E+03 0.  0.
          5    1    3    3  502    0 -0.61409731350E+02 -0.38561938980E+02  0.84352978923E+02  0.11131520873E+03  0.41800000000E+01 0.  1.
         -5    1    3    3    0  502  0.61740643295E+02 -0.23781716560E+02  0.56366587302E+02  0.87018053536E+02  0.41800000000E+01 0.  1.
        -11    1    1    2    0    0  0.13153742824E+02  0.59887929860E+02  0.10698293853E+02  0.62241775236E+02  0.00000000000E+00 0.  1.
         11    1    1    2    0    0 -0.13484654769E+02  0.24557256802E+01  0.79333056850E+02  0.80508387216E+02  0.00000000000E+00 0. -1.
</event>
<event>
 7    1  0.2688177E-009  0.2235341E+03  0.7561462E-02  0.1131275E+00
          1   -1    0    0  501    0  0.00000000000E+00  0.00000000000E+00  0.36539495795E+03  0.36539495795E+03  0.00000000000E+00 0. -1.
         -1   -1    0    0    0  501 -0.00000000000E+00 -0.00000000000E+00 -0.25613168056E+03  0.25613168056E+03  0.00000000000E+00 0.  1.
         25    2    1    2    0    0  0.13649756414E+03 -0.17628849024E+03  0.24086767423E+03  0.35124622112E+03  0.12508978596E+03 0.  0.
          5    1    3    3  502    0  0.97896441852E+02 -0.13414202688E+03  0.24247280336E+03  0.29391891649E+03  0.41800000000E+01 0. -1.
         -5    1    3    3    0  502  0.38601122290E+02 -0.42146463362E+02 -0.16051291311E+01  0.57327304625E+02  0.41800000000E+01 0. -1.
        -11    1    1    2    0    0 -0.84318975342E+02  0.12242577426E+03 -0.12636648103E+03  0.19510573373E+03  0.00000000000E+00 0.  1.
         11    1    1    2    0    0 -0.52178588800E+02  0.53862715983E+02 -0.52379158101E+01  0.75174683666E+02  0.00000000000E+00 0. -1.
</event>
<event>
 7    1  0.2688177E-009  0.1391661E+03  0.7561462E-02  0.1214455E+00
          2   -1    0    0  501    0  0.00000000000E+00  0.00000000000E+00  0.26648905047E+03  0.26648905047E+03  0.00000000000E+00 0. -1.
         -2   -1    0    0    0  501 -0.00000000000E+00 -0.00000000000E+00 -0.73110900639E+02  0.73110900639E+02  0.00000000000E+00 0.  1.
         25    2    1    2    0    0 -0.89668681110E+02 -0.85048047867E+01  0.10094906893E+03  0.18425783102E+03  0.12508968662E+03 0.  0.
          5    1    3    3  502    0 -0.12107833893E+03 -0.21096416665E+01  0.86346470777E+02  0.14878709676E+03  0.41800000000E+01 0.  1.
         -5    1    3    3    0  502  0.31409657825E+02 -0.63951631201E+01  0.14602598153E+02  0.35470734258E+02  0.41800000000E+01 0.  1.
        -11    1    1    2    0    0 -0.11455583217E+02 -0.17044088892E+02  0.16079960400E+02  0.26082493735E+02  0.00000000000E+00 0. -1.
         11    1    1    2    0    0  0.10112426433E+03  0.25548893678E+02  0.76349120505E+02  0.12925962636E+03  0.00000000000E+00 0.  1.
</event>
<event>
 7    1  0.2788189E-009  0.1651969E+03  0.7561462E-02  0.1182951E+00
         -2   -1    0    0    0  501 -0.00000000000E+00  0.00000000000E+00  0.42770544537E+02  0.42770544537E+02  0.00000000000E+00 0.  1.
          2   -1    0    0  501    0  0.00000000000E+00 -0.00000000000E+00 -0.74845843941E+03  0.74845843941E+03  0.00000000000E+00 0. -1.
         25    2    1    2    0    0 -0.12660072987E+03  0.25742324339E+02 -0.24279821099E+03  0.30214176022E+03  0.12509300516E+03 0.  0.
          5    1    3    3  502    0 -0.90845867787E+02 -0.42121041640E+02 -0.16321985672E+03  0.19153419505E+03  0.41800000000E+01 0. -1.
         -5    1    3    3    0  502 -0.35754862083E+02  0.67863365980E+02 -0.79578354269E+02  0.11060756517E+03  0.41800000000E+01 0. -1.
        -11    1    1    2    0    0  0.91691987205E+02  0.21916465837E+02 -0.33848084503E+03  0.35136453214E+03  0.00000000000E+00 0. -1.
         11    1    1    2    0    0  0.34908742664E+02 -0.47658790177E+02 -0.12440883885E+03  0.13772269159E+03  0.00000000000E+00 0.  1.
</event>
<event>
 7    1  0.2688177E-009  0.9523473E+02  0.7561462E-02  0.1290648E+00
         -4   -1    0    0    0  501 -0.00000000000E+00  0.00000000000E+00  0.39477807670E+02  0.39477807670E+02  0.00000000000E+00 0. -1.
          4   -1    0    0  501    0  0.00000000000E+00 -0.00000000000E+00 -0.38613387015E+03  0.38613387015E+03  0.00000000000E+00 0.  1.
         25    2    1    2    0    0 -0.30745661530E+02  0.24342976379E+02 -0.26486579656E+03  0.29553275668E+03  0.12509134216E+03 0.  0.
          5    1    3    3  502    0  0.20120928104E+02  0.61025923835E+02 -0.98406784925E+02  0.11760264813E+03  0.41800000000E+01 0. -1.
         -5    1    3    3    0  502 -0.50866589633E+02 -0.36682947456E+02 -0.16645901164E+03  0.17793010855E+03  0.41800000000E+01 0. -1.
        -11    1    1    2    0    0  0.35939503375E+02  0.23626377249E+01 -0.93697336329E+02  0.10038137673E+03  0.00000000000E+00 0.  1.
         11    1    1    2    0    0 -0.51938418454E+01 -0.26705614104E+02  0.11907070410E+02  0.29697544403E+02  0.00000000000E+00 0. -1.
</event>
<event>
 7    1  0.2688177E-009  0.9041545E+02  0.7561462E-02  0.1301849E+00
          1   -1    0    0  501    0  0.00000000000E+00  0.00000000000E+00  0.23859019420E+03  0.23859019420E+03  0.00000000000E+00 0. -1.
         -1   -1    0    0    0  501 -0.00000000000E+00 -0.00000000000E+00 -0.67916667168E+02  0.67916667168E+02  0.00000000000E+00 0.  1.
         25    2    1    2    0    0 -0.61003187078E+02  0.25454318812E+02  0.82971760834E+02  0.16402476972E+03  0.12510196164E+03 0.  0.
          5    1    3    3  502    0  0.20123644714E+02  0.72639335547E+01 -0.21381690472E+02  0.30534814470E+02  0.41800000000E+01 0.  1.
         -5    1    3    3    0  502 -0.81126831792E+02  0.18190385257E+02  0.10435345131E+03  0.13348995525E+03  0.41800000000E+01 0.  1.
        -11    1    1    2    0    0  0.63283043070E+02 -0.14934149435E+02  0.10417631775E+03  0.12280259582E+03  0.00000000000E+00 0. -1.
         11    1    1    2    0    0 -0.22798559922E+01 -0.10520169377E+02 -0.16474551557E+02  0.19679495829E+02  0.00000000000E+00 0.  1.
</event>
<event>
 7    1  0.2688177E-009  0.1232751E+03  0.7561462E-02  0.1237790E+00
          3   -1    0    0  501    0  0.00000000000E+00  0.00000000000E+00  0.59598871279E+03  0.59598871279E+03  0.00000000000E+00 0. -1.
         -3   -1    0    0    0  501 -0.00000000000E+00 -0.00000000000E+00 -0.27078474031E+02  0.27078474031E+02  0.00000000000E+00 0.  1.
         25    2    1    2    0    0  0.47849101344E+02  0.46465496083E+02  0.28019751257E+03  0.31401743518E+03  0.12509086584E+03 0.  0.
          5    1    3    3  502    0 -0.16776190989E+02  0.70521672149E+02  0.14842034491E+03  0.16522959181E+03  0.41800000000E+01 0.  1.
         -5    1    3    3    0  502  0.64625292333E+02 -0.24056176066E+02  0.13177716766E+03  0.14878784336E+03  0.41800000000E+01 0.  1.
        -11    1    1    2    0    0 -0.57522669016E+02 -0.63242735126E+02  0.18846040926E+03  0.20694401865E+03  0.00000000000E+00 0.  1.
         11    1    1    2    0    0  0.96735676711E+01  0.16777239042E+02  0.10025231692E+03  0.10210573299E+03  0.00000000000E+00 0. -1.
</event>
<event>
 7    1  0.2688177E-009  0.8848827E+02  0.7561462E-02  0.1306554E+00
         -1   -1    0    0    0  501 -0.00000000000E+00  0.00000000000E+00  0.32066377460E+03  0.32066377460E+03  0.00000000000E+00 0.  1.
          1   -1    0    0  501    0  0.00000000000E+00 -0.00000000000E+00 -0.67943505341E+02  0.67943505341E+02  0.00000000000E+00 0. -1.
         25    2    1    2    0    0 -0.66796262150E+02 -0.26514531823E+01  0.22330593633E+03  0.26453701891E+03  0.12508206238E+03 0.  0.
          5    1    3    3  502    0 -0.58539775075E+01  0.65937622997E+00 -0.15989680955E+02  0.17545544355E+02  0.41800000000E+01 0. -1.
         -5    1    3    3    0  502 -0.60942284643E+02 -0.33108294123E+01  0.23929561729E+03  0.24699147455E+03  0.41800000000E+01 0. -1.
        -11    1    1    2    0    0  0.94820209880E+01 -0.37447430157E+02  0.37275197065E+02  0.53681086647E+02  0.00000000000E+00 0. -1.
         11    1    1    2    0    0  0.57314241162E+02  0.40098883340E+02 -0.78608641423E+01  0.70389174382E+02  0.00000000000E+00 0.  1.
</event>
<event>
 7    1  0.2863226E-009  0.1030923E+03  0.7561462E-02  0.1273924E+00
         -1   -1    0    0    0  501 -0.00000000000E+00  0.00000000000E+00  0.11595514415E+03  0.11595514415E+03  0.00000000000E+00 0.  1.
          1   -1    0    0  501    0  0.00000000000E+00 -0.00000000000E+00 -0.13613856289E+03  0.13613856289E+03  0.00000000000E+00 0. -1.
         25    2    1    2    0    0 -0.58484745125E+01  0.49765473374E+02  0.28035336210E+02  0.13763868053E+03  0.12509044451E+03 0.  0.
          5    1    3    3  502    0  0.48752068730E+02  0.61249498759E+02  0.21614769246E+02  0.81319960362E+02  0.41800000000E+01 0. -1.
         -5    1    3    3    0  502 -0.54600543243E+02 -0.11484025385E+02  0.64205669636E+01  0.56318720170E+02  0.41800000000E+01 0. -1.
        -11    1    1    2    0    0 -0.21746818226E+02 -0.33088614814E+02  0.15913700172E+02  0.42673485755E+02  0.00000000000E+00 0.  1.
         11    1    1    2    0    0  0.27595292739E+02 -0.16676858560E+02 -0.64132455126E+02  0.71781540756E+02  0.00000000000E+00 0. -1.
</event>
<event>
 7    1  0.2688177E-009  0.1416510E+03  0.7561462E-02  0.1211124E+00
          2   -1    0    0  501    0  0.00000000000E+00  0.00000000000E+00  0.78993511710E+03  0.78993511710E+03  0.00000000000E+00 0. -1.
         -2   -1    0    0    0  501 -0.00000000000E+00 -0.00000000000E+00 -0.34869161135E+02  0.34869161135E+02  0.00000000000E+00 0.  1.
         25    2    1    2    0    0 -0.11971326864E+03  0.14053931233E+02  0.48695629673E+03  0.51701458206E+03  0.12509541742E+03 0.  0.
          5    1    3    3  502    0 -0.11686876447E+03 -0.32616846668E+01  0.48495353057E+03  0.49886505781E+03  0.41800000000E+01 0.  1.
         -5    1    3    3    0  502 -0.28445041659E+01  0.17315615900E+02  0.20027661656E+01  0.18149524243E+02  0.41800000000E+01 0.  1.
        -11    1    1    2    0    0  0.14531151255E+02 -0.37755178133E+02  0.48633970522E+02  0.63260342407E+02  0.00000000000E+00 0.  1.
         11    1    1    2    0    0  0.10518211738E+03  0.23701246900E+02  0.21947568871E+03  0.24452935378E+03  0.00000000000E+00 0. -1.
</event>
<event>
 7    1  0.2688177E-009  0.1067847E+03  0.7561462E-02  0.1266643E+00
         -1   -1    0    0    0  501 -0.00000000000E+00  0.00000000000E+00  0.24085808462E+03  0.24085808462E+03  0.00000000000E+00 0.  1.
          1   -1    0    0  501    0  0.00000000000E+00 -0.00000000000E+00 -0.74810901064E+02  0.74810901064E+02  0.00000000000E+00 0. -1.
         25    2    1    2    0    0  0.29446918704E+02 -0.67588230565E+02  0.12649166617E+03  0.19257106592E+03  0.12509270117E+03 0.  0.
          5    1    3    3  502    0 -0.30508059601E+02 -0.35733843649E+02 -0.19699752012E+01  0.47212312852E+02  0.41800000000E+01 0.  1.
         -5    1    3    3    0  502  0.59954978305E+02 -0.31854386917E+02  0.12846164137E+03  0.14535875306E+03  0.41800000000E+01 0.  1.
        -11    1    1    2    0    0  0.20954640115E+02  0.17215801783E+02 -0.17101057479E+02  0.32061299729E+02  0.00000000000E+00 0. -1.
         11    1    1    2    0    0 -0.50401558820E+02  0.50372428782E+02  0.56656574872E+02  0.91036620044E+02  0.00000000000E+00 0.  1.
</event>
<event>
 7    1  0.2688177E-009  0.1459217E+03  0.7561462E-02  0.1205576E+00
          1   -1    0    0  501    0  0.00000000000E+00  0.00000000000E+00  0.17248461325E+03  0.17248461325E+03  0.00000000000E+00 0. -1.
         -1   -1    0    0    0  501 -0.00000000000E+00 -0.00000000000E+00 -0.26060741138E+03  0.26060741138E+03  0.00000000000E+00 0.  1.
         25    2    1    2    0    0  0.11603859879E+03 -0.34161433745E+02 -0.18214926329E+03  0.25190515800E+03  0.12508355026E+03 0.  0.
          5    1    3    3  502    0  0.11663129136E+03  0.73528192390E+01 -0.17359743525E+03  0.20930949334E+03  0.41800000000E+01 0. -1.
         -5    1    3    3    0  502 -0.59269256422E+00 -0.41514252984E+02 -0.85518280351E+01  0.42595664663E+02  0.41800000000E+01 0. -1.
        -11    1    1    2    0    0 -0.82704726897E+02  0.49604550500E+02  0.10527027127E+03  0.14276733974E+03  0.00000000000E+00 0. -1.
         11    1    1    2    0    0 -0.33333871895E+02 -0.15443116754E+02 -0.11243806119E+02  0.38419526892E+02  0.00000000000E+00 0.  1.
</event>
<event>
 7    1  0.2688177E-009  0.1878943E+03  0.7561462E-02  0.1160374E+00
          2   -1    0    0  501    0  0.00000000000E+00  0.00000000000E+00  0.32512309354E+03  0.32512309354E+03  0.00000000000E+00 0. -1.
         -2   -1    0    0    0  501 -0.00000000000E+00 -0.00000000000E+00 -0.11582921759E+03  0.11582921759E+03  0.00000000000E+00 0.  1.
         25    2    1    2    0    0  0.14224812156E+03 -0.65049291622E+02  0.67337618103E+02  0.21130100267E+03  0.12509124866E+03 0.  0.
          5    1    3    3  502    0  0.82771697820E+02  0.27794842908E+02  0.13233162403E+02  0.88409819813E+02  0.41800000000E+01 0. -1.
         -5    1    3    3    0  502  0.59476423737E+02 -0.92844134530E+02  0.54104455701E+02  0.12289118286E+03  0.41800000000E+01 0. -1.
        -11    1    1    2    0    0 -0.85642334158E+02  0.82383129831E+02  0.76173118631E+02  0.14115216429E+03  0.00000000000E+00 0.  1.
         11    1    1    2    0    0 -0.56605787399E+02 -0.17333838208E+02  0.65783139212E+02  0.88499144169E+02  0.00000000000E+00 0. -1.
</event>
<event>
 7    1  0.2688177E-009  0.1058716E+03  0.7561462E-02  0.1268412E+00
          2   -1    0    0  501    0  0.00000000000E+00  0.00000000000E+00  0.98306972083E+02  0.98306972083E+02  0.00000000000E+00 0.  1.
         -2   -1    0    0    0  501 -0.00000000000E+00 -0.00000000000E+00 -0.13212451010E+03  0.13212451010E+03  0.00000000000E+00 0. -1.
         25    2    1    2    0    0 -0.21494744340E+02 -0.17706376987E+02 -0.39217711766E+01  0.12821517909E+03  0.12509281371E+03 0.  0.
          5    1    3    3  502    0  0.44611967723E+02  0.18177833715E+02  0.14839223188E+02  0.50579998493E+02  0.41800000000E+01 0.  1.
         -5    1    3    3    0  502 -0.66106712063E+02 -0.35884210702E+02 -0.18760994364E+02  0.77635180602E+02  0.41800000000E+01 0.  1.
        -11    1    1    2    0    0 -0.32380689115E+02  0.67066748965E+01 -0.33551175422E+02  0.47108066060E+02  0.00000000000E+00 0. -1.
         11    1    1    2    0    0  0.53875433455E+02  0.10999702091E+02  0.36554085859E+01  0.55108237025E+02  0.00000000000E+00 0.  1.
</event>
<event>
 7    1  0.2688177E-009  0.8890805E+02  0.7561462E-02  0.1305518E+00
         -1   -1    0    0    0  501 -0.00000000000E+00  0.00000000000E+00  0.17913473405E+03  0.17913473405E+03  0.00000000000E+00 0.  1.
          1   -1    0    0  501    0  0.00000000000E+00 -0.00000000000E+00 -0.89794390923E+02  0.89794390923E+02  0.00000000000E+00 0. -1.
         25    2    1    2    0    0  0.30231148046E+02 -0.39099765684E+02  0.10419702007E+02  0.13490423463E+03  0.12509143993E+03 0.  0.
          5    1    3    3  502    0  0.50520943489E+02 -0.58737486522E+01  0.55364092141E+02  0.75296226685E+02  0.41800000000E+01 0. -1.
         -5    1    3    3    0  502 -0.20289795443E+02 -0.33226017032E+02 -0.44944390134E+02  0.59608007947E+02  0.41800000000E+01 0. -1.
        -11    1    1    2    0    0 -0.26451637979E+02 -0.16972680442E+02  0.70512686509E+02  0.77199740880E+02  0.00000000000E+00 0. -1.
         11    1    1    2    0    0 -0.37795100668E+01  0.56072446126E+02  0.84079546154E+01  0.56825149465E+02  0.00000000000E+00 0.  1.
</event>
<event>
 7    1  0.2712981E-009  0.1781896E+03  0.7561462E-02  0.1169567E+00
          2   -1    0    0  501    0  0.00000000000E+00  0.00000000000E+00  0.10179671983E+04  0.10179671983E+04  0.00000000000E+00 0. -1.
         -2   -1    0    0    0  501 -0.00000000000E+00 -0.00000000000E+00 -0.32907582858E+02  0.32907582858E+02  0.00000000000E+00 0.  1.
         25    2    1    2    0    0  0.93135838997E+02 -0.10710401917E+03  0.62865892642E+03  0.65650954807E+03  0.12508871059E+03 0.  0.
          5    1    3    3  502    0  0.21774884166E+02 -0.11430524361E+03  0.35682911629E+03  0.37534560732E+03  0.41800000000E+01 0. -1.
         -5    1    3    3    0  502  0.71360954832E+02  0.72012244416E+01  0.27182981013E+03  0.28116394075E+03  0.41800000000E+01 0. -1.
        -11    1    1    2    0    0 -0.10381802551E+03  0.60233977289E+02  0.23726823960E+03  0.26589947718E+03  0.00000000000E+00 0.  1.
         11    1    1    2    0    0  0.10682186516E+02  0.46870041884E+02  0.11913244944E+03  0.12846575592E+03  0.00000000000E+00 0. -1.
</event>
<event>
 7    1  0.2688177E-009  0.1036551E+03  0.7561462E-02  0.1272792E+00
          2   -1    0    0  501    0  0.00000000000E+00  0.00000000000E+00  0.16367225938E+03  0.16367225938E+03  0.00000000000E+00 0. -1.
         -2   -1    0    0    0  501 -0.00000000000E+00 -0.00000000000E+00 -0.76235637484E+02  0.76235637484E+02  0.00000000000E+00 0.  1.
         25    2    1    2    0    0  0.17535133597E+02 -0.10289117228E+02  0.37301311925E+02  0.13211678574E+03  0.12510040112E+03 0.  0.
          5    1    3    3  502    0  0.11682051517E+02 -0.66079927078E+02  0.35043047740E+02  0.75818959932E+02  0.41800000000E+01 0. -1.
         -5    1    3    3    0  502  0.58530820807E+01  0.55790809850E+02  0.22582641850E+01  0.56297825808E+02  0.41800000000E+01 0. -1.
        -11    1    1    2    0    0 -0.40863385190E+02  0.32040908110E+02  0.45105507238E+01  0.52122750402E+02  0.00000000000E+00 0.  1.
         11    1    1    2    0    0  0.23328251592E+02 -0.21751790882E+02  0.45624759244E+02  0.55668360718E+02  0.00000000000E+00 0. -1.
</event>
<event>
 7    1  0.2688177E-009  0.1052099E+03  0.7561462E-02  0.1269707E+00
         -2   -1    0    0    0  501 -0.00000000000E+00  0.00000000000E+00  0.53476011765E+02  0.53476011765E+02  0.00000000000E+00 0. -1.
          2   -1    0    0  501    0  0.00000000000E+00 -0.00000000000E+00 -0.37127094022E+03  0.37127094022E+03  0.00000000000E+00 0.  1.
         25    2    1    2    0    0 -0.83393811025E+02  0.12804634855E+02 -0.12863196732E+03  0.19827297798E+03  0.12508998517E+03 0.  0.
          5    1    3    3  502    0 -0.15488371517E+02 -0.36511290819E+02  0.52315613390E+01  0.40221954746E+02  0.41800000000E+01 0.  1.
         -5    1    3    3    0  502 -0.67905439508E+02  0.49315925674E+02 -0.13386352866E+03  0.15805102323E+03  0.41800000000E+01 0.  1.
        -11    1    1    2    0    0  0.41033057923E+02  0.33623341939E+01 -0.17378646716E+03  0.17859662175E+03  0.00000000000E+00 0.  1.
         11    1    1    2    0    0  0.42360753102E+02 -0.16166969049E+02 -0.15376493973E+02  0.47877352251E+02  0.00000000000E+00 0. -1.
</event>
<event>
 7    1  0.2688177E-009  0.6330770E+02  0.7561462E-02  0.1384453E+00
         -2   -1    0    0    0  501 -0.00000000000E+00  0.00000000000E+00  0.20813012877E+02  0.20813012877E+02  0.00000000000E+00 0.  1.
          2   -1    0    0  501    0  0.00000000000E+00 -0.00000000000E+00 -0.93001014319E+03  0.93001014319E+03  0.00000000000E+00 0. -1.
         25    2    1    2    0    0  0.10145931243E+02  0.53466619438E+02 -0.73212643041E+03  0.74472647497E+03  0.12508714204E+03 0.  0.
          5    1    3    3  502    0  0.21205361668E+02  0.64471446080E+01 -0.64192277115E+03  0.64231888463E+03  0.41800000000E+01 0.  1.
         -5    1    3    3    0  502 -0.11059430426E+02  0.47019474830E+02 -0.90203659262E+02  0.10240759034E+03  0.41800000000E+01 0.  1.
        -11    1    1    2    0    0  0.91746453331E+00 -0.25295048990E+02  0.11369124733E+01  0.25337202185E+02  0.00000000000E+00 0.  1.
         11    1    1    2    0    0 -0.11063395776E+02 -0.28171570448E+02 -0.17820761238E+03  0.18075947891E+03  0.00000000000E+00 0. -1.
</event>
<event>
 7    1  0.2688177E-009  0.8026779E+02  0.7561462E-02  0.1328293E+00
          2   -1    0    0  501    0  0.00000000000E+00  0.00000000000E+00  0.29960215172E+03  0.29960215172E+03  0.00000000000E+00 0.  1.
         -2   -1    0    0    0  501 -0.00000000000E+00 -0.00000000000E+00 -0.66289449984E+02  0.66289449984E+02  0.00000000000E+00 0. -1.
         25    2    1    2    0    0 -0.16265527489E+02  0.29442307158E+01  0.24109555045E+03  0.27211783814E+03  0.12509123673E+03 0.  0.
          5    1    3    3  502    0 -0.59295397741E+02 -0.18297586749E+01  0.21101249043E+03  0.21923283451E+03  0.41800000000E+01 0.  1.
         -5    1    3    3    0  502  0.43029870251E+02  0.47739893907E+01  0.30083060026E+02  0.52885003631E+02  0.41800000000E+01 0.  1.
        -11    1    1    2    0    0 -0.17094330232E+02 -0.14344658769E+02  0.33018050214E+02  0.39851938487E+02  0.00000000000E+00 0.  1.
         11    1    1    2    0    0  0.33359857721E+02  0.11400428053E+02 -0.40800898927E+02  0.53921825082E+02  0.00000000000E+00 0. -1.
</event>
<event>
 7    1  0.2688177E-009  0.1799735E+03  0.7561462E-02  0.1167829E+00
         -3   -1    0    0    0  501 -0.00000000000E+00  0.00000000000E+00  0.12104871577E+03  0.12104871577E+03  0.00000000000E+00 0.  1.
          3   -1    0    0  501    0  0.00000000000E+00 -0.00000000000E+00 -0.45337960170E+03  0.45337960170E+03  0.00000000000E+00 0. -1.
         25    2    1    2    0    0  0.13653526391E+02 -0.14376832844E+03 -0.35220867912E+03  0.40069226270E+03  0.12509030616E+03 0.  0.
          5    1    3    3  502    0 -0.41401798093E+02 -0.12268305347E+03 -0.21074688639E+03  0.24738019933E+03  0.41800000000E+01 0.  1.
         -5    1    3    3    0  502  0.55055324484E+02 -0.21085274971E+02 -0.14146179272E+03  0.15331206337E+03  0.41800000000E+01 0.  1.
        -11    1    1    2    0    0 -0.33137634636E+02  0.79378117211E+01 -0.44858882506E+01  0.34369097712E+02  0.00000000000E+00 0.  1.
         11    1    1    2    0    0  0.19484108244E+02  0.13583051672E+03  0.24363681429E+02  0.13936695706E+03  0.00000000000E+00 0. -1.
</event>
<event>
 7    1  0.2688177E-009  0.8023087E+02  0.7561462E-02  0.1328398E+00
          1   -1    0    0  501    0  0.00000000000E+00  0.00000000000E+00  0.60175750327E+02  0.60175750327E+02  0.00000000000E+00 0. -1.
         -1   -1    0    0    0  501 -0.00000000000E+00 -0.00000000000E+00 -0.19087637293E+03  0.19087637293E+03  0.00000000000E+00 0.  1.
         25    2    1    2    0    0  0.84237510704E+01 -0.42137570319E+02 -0.91437952371E+02  0.16079517716E+03  0.12509058898E+03 0.  0.
          5    1    3    3  502    0  0.23306957953E+02 -0.67802262296E+02 -0.81461168970E+01  0.72278576922E+02  0.41800000000E+01 0. -1.
         -5    1    3    3    0  502 -0.14883206883E+02  0.25664691977E+02 -0.83291835474E+02  0.88516600239E+02  0.41800000000E+01 0. -1.
        -11    1    1    2    0    0  0.92110095430E+01  0.39849448089E+02  0.62672860585E+01  0.41377531153E+02  0.00000000000E+00 0. -1.
         11    1    1    2    0    0 -0.17634760613E+02  0.22881222304E+01 -0.45529956287E+02  0.48879414938E+02  0.00000000000E+00 0.  1.
</event>
<event>
 7    1  0.2688177E-009  0.1551834E+03  0.7561462E-02  0.1194244E+00
          1   -1    0    0  501    0  0.00000000000E+00  0.00000000000E+00  0.11618280224E+03  0.11618280224E+03  0.00000000000E+00 0. -1.
         -1   -1    0    0    0  501 -0.00000000000E+00 -0.00000000000E+00 -0.23009069357E+03  0.23009069357E+03  0.00000000000E+00 0.  1.
         25    2    1    2    0    0 -0.11621772493E+03 -0.34782044825E+01 -0.10199277842E+03  0.19891938404E+03  0.12509091495E+03 0.  0.
          5    1    3    3  502    0 -0.10590665895E+03  0.47414371732E+02 -0.53869248129E+02  0.12799887246E+03  0.41800000000E+01 0. -1.
         -5    1    3    3    0  502 -0.10311065979E+02 -0.50892576215E+02 -0.48123530290E+02  0.70920511581E+02  0.41800000000E+01 0. -1.
        -11    1    1    2    0    0  0.36138135129E+02  0.40206603011E+02 -0.22626872300E+02  0.58604701914E+02  0.00000000000E+00 0.  1.
         11    1    1    2    0    0  0.80079589801E+02 -0.36728398528E+02  0.10711759394E+02  0.88749409859E+02  0.00000000000E+00 0. -1.
</event>
<event>
 7    1  0.2688177E-009  0.1550261E+03  0.7561462E-02  0.1194429E+00
         -1   -1    0    0    0  501 -0.00000000000E+00  0.00000000000E+00  0.92364124926E+02  0.92364124926E+02  0.00000000000E+00 0. -1.
          1   -1    0    0  501    0  0.00000000000E+00 -0.00000000000E+00 -0.28009196632E+03  0.28009196632E+03  0.00000000000E+00 0.  1.
         25    2    1    2    0    0  0.12121608236E+03 -0.25370734110E+02 -0.10651031327E+03  0.20574132244E+03  0.12509209469E+03 0.  0.
          5    1    3    3  502    0  0.14094755520E+03  0.45268877178E+00 -0.72659459390E+02  0.15862940358E+03  0.41800000000E+01 0.  1.
         -5    1    3    3    0  502 -0.19731472839E+02 -0.25823422882E+02 -0.33850853883E+02  0.47111918857E+02  0.41800000000E+01 0.  1.
        -11    1    1    2    0    0 -0.12074156848E+02  0.24293026067E+02 -0.43439565445E+02  0.51214570438E+02  0.00000000000E+00 0.  1.
         11    1    1    2    0    0 -0.10914192551E+03  0.10777080438E+01 -0.37777962674E+02  0.11550019836E+03  0.00000000000E+00 0. -1.
</event>
<event>
 7    1  0.2688177E-009  0.1026892E+03  0.7561462E-02  0.1274741E+00
          2   -1    0    0  501    0  0.00000000000E+00  0.00000000000E+00  0.16210271780E+03  0.16210271780E+03  0.00000000000E+00 0.  1.
         -2   -1    0    0    0  501 -0.00000000000E+00 -0.00000000000E+00 -0.10893528186E+03  0.10893528186E+03  0.00000000000E+00 0. -1.
         25    2    1    2    0    0  0.71002840329E+02  0.15943592576E+02  0.53035016455E+02  0.15413261185E+03  0.12509415489E+03 0.  0.
          5    1    3    3  502    0  0.52181808579E+02  0.33891214598E+02  0.89540025638E+02  0.10911665393E+03  0.41800000000E+01 0.  1.
         -5    1    3    3    0  502  0.18821031751E+02 -0.17947622022E+02 -0.36505009183E+02  0.45015957925E+02  0.41800000000E+01 0.  1.
        -11    1    1    2    0    0 -0.10643201977E+02 -0.47421503334E+02 -0.35549504061E+01  0.48731041433E+02  0.00000000000E+00 0. -1.
         11    1    1    2    0    0 -0.60359638352E+02  0.31477910758E+02  0.36873698893E+01  0.68174346381E+02  0.00000000000E+00 0.  1.
</event>
<event>
 7    1  0.2688177E-009  0.7014844E+02  0.7561462E-02  0.1359589E+00
         -2   -1    0    0    0  501 -0.00000000000E+00  0.00000000000E+00  0.44656793297E+03  0.44656793297E+03  0.00000000000E+00 0. -1.
          2   -1    0    0  501    0  0.00000000000E+00 -0.00000000000E+00 -0.27600008215E+02  0.27600008215E+02  0.00000000000E+00 0.  1.
         25    2    1    2    0    0  0.28637603787E+02  0.92676346359E+01  0.23405702426E+03  0.26709056162E+03  0.12509466854E+03 0.  0.
          5    1    3    3  502    0 -0.84693657215E+01 -0.57791009711E+01 -0.12827326175E+02  0.16945231204E+02  0.41800000000E+01 0.  1.
         -5    1    3    3    0  502  0.37106969508E+02  0.15046735607E+02  0.24688435044E+03  0.25014533042E+03  0.41800000000E+01 0.  1.
        -11    1    1    2    0    0  0.11595245677E+02 -0.37867430113E+02  0.11395318325E+03  0.12063879955E+03  0.00000000000E+00 0. -1.
         11    1    1    2    0    0 -0.40232849464E+02  0.28599795477E+02  0.70957717242E+02  0.86438580006E+02  0.00000000000E+00 0.  1.
</event>
<event>
 7    1  0.2688177E-009  0.1014886E+03  0.7561462E-02  0.1277196E+00
          1   -1    0    0  501    0  0.00000000000E+00  0.00000000000E+00  0.20789590473E+03  0.20789590473E+03  0.00000000000E+00 0. -1.
         -1   -1    0    0    0  501 -0.00000000000E+00 -0.00000000000E+00 -0.85182906458E+02  0.85182906458E+02  0.00000000000E+00 0.  1.
         25    2    1    2    0    0  0.15690790400E+02  0.16075565542E+02 -0.46797344859E+01  0.12717887198E+03  0.12509172976E+03 0.  0.
          5    1    3    3  502    0 -0.23319300607E+02 -0.46927982124E+02  0.23827378673E+01  0.52622952471E+02  0.41800000000E+01 0. -1.
         -5    1    3    3    0  502  0.39010091007E+02  0.63003547666E+02 -0.70624723532E+01  0.74555919514E+02  0.41800000000E+01 0. -1.
        -11    1    1    2    0    0  0.14283980628E+02 -0.36980279413E+02  0.72221719563E+01  0.40295569680E+02  0.00000000000E+00 0.  1.
         11    1    1    2    0    0 -0.29974771028E+02  0.20904713871E+02  0.12017056080E+03  0.12560436952E+03  0.00000000000E+00 0. -1.
</event>
<event>
 7    1  0.2688177E-009  0.8957821E+02  0.7561462E-02  0.1303876E+00
         -1   -1    0    0    0  501 -0.00000000000E+00  0.00000000000E+00  0.12000704137E+03  0.12000704137E+03  0.00000000000E+00 0.  1.
          1   -1    0    0  501    0  0.00000000000E+00 -0.00000000000E+00 -0.13755451171E+03  0.13755451171E+03  0.00000000000E+00 0. -1.
         25    2    1    2    0    0 -0.37343950331E+01  0.42654803897E+02  0.43999968661E+02  0.13934811002E+03  0.12509404671E+03 0.  0.
          5    1    3    3  502    0  0.36161703495E+02  0.11697090649E+02 -0.30733446178E+02  0.49056170288E+02  0.41800000000E+01 0. -1.
         -5    1    3    3    0  502 -0.39896098528E+02  0.30957713248E+02  0.74733414840E+02  0.90291939734E+02  0.41800000000E+01 0. -1.
        -11    1    1    2    0    0  0.35176440627E+02  0.24566225935E+01  0.55375262385E+00  0.35266465824E+02  0.00000000000E+00 0.  1.
         11    1    1    2    0    0 -0.31442045594E+02 -0.45111426490E+02 -0.62101191623E+02  0.82946977233E+02  0.00000000000E+00 0. -1.
</event>
<event>
 7    1  0.2688177E-009  0.1091187E+03  0.7561462E-02  0.1262211E+00
         -1   -1    0    0    0  501 -0.00000000000E+00  0.00000000000E+00  0.38643110204E+03  0.38643110204E+03  0.00000000000E+00 0.  1.
          1   -1    0    0  501    0  0.00000000000E+00 -0.00000000000E+00 -0.34154420428E+02  0.34154420428E+02  0.00000000000E+00 0. -1.
         25    2    1    2    0    0  0.17724763744E+02  0.69527715675E+00  0.26302249648E+03  0.29179318350E+03  0.12509107731E+03 0.  0.
          5    1    3    3  502    0 -0.38103200173E+01  0.61046632024E+02  0.14509422725E+03  0.15751513261E+03  0.41800000000E+01 0. -1.
         -5    1    3    3    0  502  0.21535083761E+02 -0.60351354867E+02  0.11792826922E+03  0.13427805088E+03  0.41800000000E+01 0. -1.
        -11    1    1    2    0    0 -0.39062880820E+01  0.44900899295E+02  0.46869255095E+02  0.65023664286E+02  0.00000000000E+00 0. -1.
         11    1    1    2    0    0 -0.13818475662E+02 -0.45596176451E+02  0.42384930040E+02  0.63768674685E+02  0.00000000000E+00 0.  1.
</event>
<event>
 7    1  0.2688177E-009  0.1855088E+03  0.7561462E-02  0.1162576E+00
         -1   -1    0    0    0  501 -0.00000000000E+00  0.00000000000E+00  0.18634458768E+03  0.18634458768E+03  0.00000000000E+00 0.  1.
          1   -1    0    0  501    0  0.00000000000E+00 -0.00000000000E+00 -0.27457236566E+03  0.27457236566E+03  0.00000000000E+00 0. -1.
         25    2    1    2    0    0 -0.12334378342E+03 -0.81535616385E+02 -0.15413073347E+03  0.24751949390E+03  0.12509145141E+03 0.  0.
          5    1    3    3  502    0 -0.13083846583E+03 -0.42392291446E+02 -0.70106582881E+02  0.15442867570E+03  0.41800000000E+01 0. -1.
         -5    1    3    3    0  502  0.74946824166E+01 -0.39143324939E+02 -0.84024150586E+02  0.93090818202E+02  0.41800000000E+01 0. -1.
        -11    1    1    2    0    0  0.22915314468E+02  0.89705458221E+02 -0.74568973220E+00  0.92589075624E+02  0.00000000000E+00 0. -1.
         11    1    1    2    0    0  0.10042846895E+03 -0.81698418354E+01  0.66648645214E+02  0.12080838381E+03  0.00000000000E+00 0.  1.
</event>
<event>
 7    1  0.2966168E-009  0.1261813E+03  0.7561462E-02  0.1233235E+00
          4   -1    0    0  501    0  0.00000000000E+00  0.00000000000E+00  0.87759303860E+02  0.87759303860E+02  0.00000000000E+00 0.  1.
         -4   -1    0    0    0  501 -0.00000000000E+00 -0.00000000000E+00 -0.19759153802E+03  0.19759153802E+03  0.00000000000E+00 0. -1.
         25    2    1    2    0    0 -0.70263620666E+02  0.18270871547E+02 -0.41564538443E+02  0.15048316277E+03  0.12508705083E+03 0.  0.
          5    1    3    3  502    0 -0.71339443779E+02 -0.41615106661E+02 -0.12014502545E+02  0.83564071302E+02  0.41800000000E+01 0.  1.
         -5    1    3    3    0  502  0.10758231132E+01  0.59885978208E+02 -0.29550035898E+02  0.66919091468E+02  0.41800000000E+01 0.  1.
        -11    1    1    2    0    0  0.28838147806E+02  0.32925135573E+02 -0.58978587572E+01  0.44164330170E+02  0.00000000000E+00 0.  1.
         11    1    1    2    0    0  0.41425472860E+02 -0.51196007120E+02 -0.62369836959E+02  0.90703348940E+02  0.00000000000E+00 0. -1.
</event>
<event>
 7    1  0.2688177E-009  0.1062882E+03  0.7561462E-02  0.1267602E+00
         -1   -1    0    0    0  501 -0.00000000000E+00  0.00000000000E+00  0.50888573873E+02  0.50888573873E+02  0.00000000000E+00 0.  1.
          1   -1    0    0  501    0  0.00000000000E+00 -0.00000000000E+00 -0.30880191314E+03  0.30880191314E+03  0.00000000000E+00 0. -1.
         25    2    1    2    0    0  0.31324552086E+02 -0.51868168626E+02 -0.11595418198E+03  0.18101037991E+03  0.12509136996E+03 0.  0.
          5    1    3    3  502    0  0.34215697394E+02  0.33106535095E+02 -0.17595209443E+02  0.50929563217E+02  0.41800000000E+01 0.  1.
         -5    1    3    3    0  502 -0.28911453073E+01 -0.84974703722E+02 -0.98358972533E+02  0.13008081669E+03  0.41800000000E+01 0.  1.
        -11    1    1    2    0    0 -0.20052324575E+00  0.48331545817E+02 -0.19230815988E+02  0.52017331864E+02  0.00000000000E+00 0.  1.
         11    1    1    2    0    0 -0.31124028841E+02  0.35366228090E+01 -0.12272834131E+03  0.12666277524E+03  0.00000000000E+00 0. -1.
</event>
<event>
 7    1  0.2688177E-009  0.1817993E+03  0.7561462E-02  0.1166073E+00
          2   -1    0    0  501    0  0.00000000000E+00  0.00000000000E+00  0.74483899583E+03  0.74483899583E+03  0.00000000000E+00 0. -1.
         -2   -1    0    0    0  501 -0.00000000000E+00 -0.00000000000E+00 -0.44836859886E+02  0.44836859886E+02  0.00000000000E+00 0.  1.
         25    2    1    2    0    0  0.11038940074E+03 -0.91014728402E+01  0.35808659952E+03  0.39514829063E+03  0.12508997652E+03 0.  0.
          5    1    3    3  502    0  0.12154515158E+03  0.30703012648E+02  0.27477651835E+03  0.30205215823E+03  0.41800000000E+01 0. -1.
         -5    1    3    3    0  502 -0.11155750839E+02 -0.39804485488E+02  0.83310081169E+02  0.93096132392E+02  0.41800000000E+01 0. -1.
        -11    1    1    2    0    0 -0.12481138268E+03 -0.50985279210E+02  0.24302378732E+03  0.27791714799E+03  0.00000000000E+00 0. -1.
         11    1    1    2    0    0  0.14421981942E+02  0.60086752050E+02  0.98891749105E+02  0.11661041710E+03  0.00000000000E+00 0.  1.
</event>
<event>
 7    1  0.2688177E-009  0.1079774E+03  0.7561462E-02  0.1264362E+00
          3   -1    0    0  501    0  0.00000000000E+00  0.00000000000E+00  0.20096878101E+03  0.20096878101E+03  0.00000000000E+00 0. -1.
         -3   -1    0    0    0  501 -0.00000000000E+00 -0.00000000000E+00 -0.68660145631E+02  0.68660145631E+02  0.00000000000E+00 0.  1.
         25    2    1    2    0    0 -0.23460592611E+02  0.37900804765E+02  0.88014266311E+02  0.15931215877E+03  0.12508789889E+03 0.  0.
          5    1    3    3  502    0 -0.16939184711E+02 -0.43669435376E+02  0.51094850837E+02  0.69441426733E+02  0.41800000000E+01 0. -1.
         -5    1    3    3    0  502 -0.65214079002E+01  0.81570240141E+02  0.36919415474E+02  0.89870732035E+02  0.41800000000E+01 0. -1.
        -11    1    1    2    0    0  0.37370432888E+02 -0.54028963297E+02  0.53276608828E+01  0.65909499313E+02  0.00000000000E+00 0.  1.
         11    1    1    2    0    0 -0.13909840276E+02  0.16128158532E+02  0.38966708188E+02  0.44407268562E+02  0.00000000000E+00 0. -1.
</event>
<event>
 7    1  0.2688177E-009  0.1396753E+03  0.7561462E-02  0.1213767E+00
         -2   -1    0    0    0  501 -0.00000000000E+00  0.00000000000E+00  0.67085520190E+02  0.67085520190E+02  0.00000000000E+00 0.  1.
          2   -1    0    0  501    0  0.00000000000E+00 -0.00000000000E+00 -0.36837839017E+03  0.36837839017E+03  0.00000000000E+00 0. -1.
         25    2    1    2    0    0  0.96990818718E+02  0.97498697544E+01 -0.23830159439E+03  0.28624683419E+03  0.12508925342E+03 0.  0.
          5    1    3    3  502    0  0.85732138477E+02  0.52124448160E+02 -0.21292004372E+03  0.23541320074E+03  0.41800000000E+01 0.  1.
         -5    1    3    3    0  502  0.11258680241E+02 -0.42374578406E+02 -0.25381550663E+02  0.50833633452E+02  0.41800000000E+01 0.  1.
        -11    1    1    2    0    0 -0.74731308170E+02  0.36790152488E+02 -0.33397473672E+02  0.89742269798E+02  0.00000000000E+00 0. -1.
         11    1    1    2    0    0 -0.22259510548E+02 -0.46540022242E+02 -0.29593801916E+02  0.59474806363E+02  0.00000000000E+00 0.  1.
</event>
<event>
 7    1  0.2688177E-009  0.7724479E+02  0.7561462E-02  0.1337057E+00
         -1   -1    0    0    0  501 -0.00000000000E+00  0.00000000000E+00  0.69627347736E+02  0.69627347736E+02  0.00000000000E+00 0.  1.
          1   -1    0    0  501    0  0.00000000000E+00 -0.00000000000E+00 -0.19669810397E+03  0.19669810397E+03  0.00000000000E+00 0. -1.
         25    2    1    2    0    0  0.31783461981E+02  0.26000875030E+01 -0.10877515702E+03  0.16880819431E+03  0.12508885950E+03 0.  0.
          5    1    3    3  502    0  0.14563515555E+02 -0.23658688910E+02  0.21093522959E+02  0.35131732908E+02  0.41800000000E+01 0. -1.
         -5    1    3    3    0  502  0.17219946426E+02  0.26258776413E+02 -0.12986867998E+03  0.13367646140E+03  0.41800000000E+01 0. -1.
        -11    1    1    2    0    0 -0.29597048532E+02  0.41273474435E+02 -0.25501487438E+01  0.50852612837E+02  0.00000000000E+00 0. -1.
         11    1    1    2    0    0 -0.21864134487E+01 -0.43873561938E+02 -0.15745450466E+02  0.46664644553E+02  0.00000000000E+00 0.  1.
</event>
<event>
 7    1  0.2688177E-009  0.1539617E+03  0.7561462E-02  0.1195688E+00
         -1   -1    0    0    0  501 -0.00000000000E+00  0.00000000000E+00  0.30191180657E+03  0.30191180657E+03  0.00000000000E+00 0.  1.
          1   -1    0    0  501    0  0.00000000000E+00 -0.00000000000E+00 -0.16608787275E+03  0.16608787275E+03  0.00000000000E+00 0. -1.
         25    2    1    2    0    0  0.12795153463E+03  0.39364075806E+02  0.21943290843E+03  0.28586610155E+03  0.12508997174E+03 0.  0.
          5    1    3    3  502    0  0.36099056287E+02  0.64266226741E+02  0.15253365779E+03  0.16946173291E+03  0.41800000000E+01 0.  1.
         -5    1    3    3    0  502  0.91852478346E+02 -0.24902150935E+02  0.66899250646E+02  0.11640436863E+03  0.41800000000E+01 0.  1.
        -11    1    1    2    0    0 -0.50291087358E+02  0.29810684950E+01 -0.78825298038E+02  0.93549494107E+02  0.00000000000E+00 0. -1.
         11    1    1    2    0    0 -0.77660447275E+02 -0.42345144301E+02 -0.47836765798E+01  0.88584083663E+02  0.00000000000E+00 0.  1.
</event>
<event>
 7    1  0.2688177E-009  0.9780451E+02  0.7561462E-02  0.1284982E+00
          2   -1    0    0  501    0  0.00000000000E+00  0.00000000000E+00  0.32000122361E+03  0.32000122361E+03  0.00000000000E+00 0. -1.
         -2   -1    0    0    0  501 -0.00000000000E+00 -0.00000000000E+00 -0.85925237920E+02  0.85925237920E+02  0.00000000000E+00 0.  1.
         25    2    1    2    0    0 -0.14851480142E+02  0.53601706720E+01  0.27602981369E+03  0.30347460200E+03  0.12512025464E+03 0.  0.
          5    1    3    3  502    0 -0.54114228398E+02 -0.37810705874E+02  0.16926866932E+03  0.18173429507E+03  0.41800000000E+01 0. -1.
         -5    1    3    3    0  502  0.39262748256E+02  0.43170876546E+02  0.10676114438E+03  0.12174030693E+03  0.41800000000E+01 0. -1.
        -11    1    1    2    0    0  0.31536448241E+02 -0.28447997490E+02  0.96078714133E+01  0.43544773761E+02  0.00000000000E+00 0. -1.
         11    1    1    2    0    0 -0.16684968099E+02  0.23087826818E+02 -0.51561699412E+02  0.58907085770E+02  0.00000000000E+00 0.  1.
</event>
<event>
 7    1  0.2688177E-009  0.1136933E+03  0.7561462E-02  0.1253879E+00
         -2   -1    0    0    0  501 -0.00000000000E+00  0.00000000000E+00  0.54500817835E+03  0.54500817835E+03  0.00000000000E+00 0. -1.
          2   -1    0    0  501    0  0.00000000000E+00 -0.00000000000E+00 -0.25680399803E+02  0.25680399803E+02  0.00000000000E+00 0.  1.
         25    2    1    2    0    0 -0.39544603155E+02  0.20787853838E+02  0.31404530138E+03  0.34097909729E+03  0.12508550262E+03 0.  0.
          5    1    3    3  502    0 -0.81779789287E+02  0.52863025995E+01  0.24577016790E+03  0.25910678641E+03  0.41800000000E+01 0. -1.
         -5    1    3    3    0  502  0.42235186132E+02  0.15501551238E+02  0.68275133472E+02  0.81872310882E+02  0.41800000000E+01 0. -1.
        -11    1    1    2    0    0 -0.15157351161E+02  0.24714676086E+02  0.86685817952E+02  0.91405642836E+02  0.00000000000E+00 0. -1.
         11    1    1    2    0    0  0.54701954315E+02 -0.45502529924E+02  0.11859665922E+03  0.13830383803E+03  0.00000000000E+00 0.  1.
</event>
<event>
 7    1  0.2688177E-009  0.1119434E+03  0.7561462E-02  0.1257013E+00
          1   -1    0    0  501    0  0.00000000000E+00  0.00000000000E+00  0.27587882846E+03  0.27587882846E+03  0.00000000000E+00 0. -1.
         -1   -1    0    0    0  501 -0.00000000000E+00 -0.00000000000E+00 -0.10998202679E+03  0.10998202679E+03  0.00000000000E+00 0.  1.
         25    2    1    2    0    0  0.68175660973E+02 -0.21653674291E+02 -0.40639933076E+02  0.14971996024E+03  0.12509060706E+03 0.  0.
          5    1    3    3  502    0  0.93454207501E+02 -0.41855544258E+02 -0.67962877650E+01  0.10270948063E+03  0.41800000000E+01 0. -1.
         -5    1    3    3    0  502 -0.25278546528E+02  0.20201869968E+02 -0.33843645311E+02  0.47010479605E+02  0.41800000000E+01 0. -1.
        -11    1    1    2    0    0 -0.29472442088E+02 -0.17042170312E+02  0.15478494546E+02  0.37398451906E+02  0.00000000000E+00 0.  1.
         11    1    1    2    0    0 -0.38703218885E+02  0.38695844602E+02  0.19105824020E+03  0.19874244310E+03  0.00000000000E+00 0. -1.
</event>
<event>
 7    1  0.2688177E-009  0.1578844E+03  0.7561462E-02  0.1191106E+00
         -2   -1    0    0    0  501 -0.00000000000E+00  0.00000000000E+00  0.22075621015E+03  0.22075621015E+03  0.00000000000E+00 0.  1.
          2   -1    0    0  501    0  0.00000000000E+00 -0.00000000000E+00 -0.15548393436E+03  0.15548393436E+03  0.00000000000E+00 0. -1.
         25    2    1    2    0    0  0.14169570585E+03 -0.46479392623E+02  0.16158097572E+02  0.19530744442E+03  0.12508359898E+03 0.  0.
          5    1    3    3  502    0  0.39177796861E+02  0.11959337141E+02 -0.46108444344E+02  0.61817364482E+02  0.41800000000E+01 0. -1.
         -5    1    3    3    0  502  0.10251790899E+03 -0.58438729764E+02  0.62266541916E+02  0.13349007994E+03  0.41800000000E+01 0. -1.
        -11    1    1    2    0    0 -0.74889264573E+02  0.49282276034E+02  0.66761809827E+02  0.11177783291E+03  0.00000000000E+00 0. -1.
         11    1    1    2    0    0 -0.66806441281E+02 -0.28028834111E+01 -0.17647631602E+02  0.69154867170E+02  0.00000000000E+00 0.  1.
</event>
<event>
 7    1  0.2688177E-009  0.8904245E+02  0.7561462E-02  0.1305187E+00
          1   -1    0    0  501    0  0.00000000000E+00  0.00000000000E+00  0.74476192953E+02  0.74476192953E+02  0.00000000000E+00 0. -1.
         -1   -1    0    0    0  501 -0.00000000000E+00 -0.00000000000E+00 -0.19650765881E+03  0.19650765881E+03  0.00000000000E+00 0.  1.
         25    2    1    2    0    0 -0.26596532667E+02  0.20106697789E+02 -0.11212866464E+03  0.17126782151E+03  0.12509266327E+03 0.  0.
          5    1    3    3  502    0 -0.14405905310E+02  0.47786600336E+02 -0.12757182522E+03  0.13705156793E+03  0.41800000000E+01 0. -1.
         -5    1    3    3    0  502 -0.12190627357E+02 -0.27679902548E+02  0.15443160587E+02  0.34216253584E+02  0.41800000000E+01 0. -1.
        -11    1    1    2    0    0 -0.15732539726E+02 -0.45473707279E+02  0.44484334481E+01  0.48323487251E+02  0.00000000000E+00 0. -1.
         11    1    1    2    0    0  0.42329072392E+02  0.25367009491E+02 -0.14351234672E+02  0.51392543007E+02  0.00000000000E+00 0.  1.
</event>
<event>
 7    1  0.2688177E-009  0.8322838E+02  0.7561462E-02  0.1320132E+00
          1   -1    0    0  501    0  0.00000000000E+00  0.00000000000E+00  0.11078579869E+03  0.11078579869E+03  0.00000000000E+00 0. -1.
         -1   -1    0    0    0  501 -0.00000000000E+00 -0.00000000000E+00 -0.12631731865E+03  0.12631731865E+03  0.00000000000E+00 0.  1.
         25    2    1    2    0    0 -0.48080320421E+02  0.10226912518E+01  0.38631558416E+01  0.13412355387E+03  0.12514567759E+03 0.  0.
          5    1    3    3  502    0  0.90974829761E+01  0.34693978809E+01  0.55757706439E+02  0.56755573695E+02  0.41800000000E+01 0.  1.
         -5    1    3    3    0  502 -0.57177803397E+02 -0.24467066291E+01 -0.51894550597E+02  0.77367980175E+02  0.41800000000E+01 0.  1.
        -11    1    1    2    0    0 -0.84630800494E+01 -0.32623618474E+02 -0.17957210514E+02  0.38188815323E+02  0.00000000000E+00 0.  1.
         11    1    1    2    0    0  0.56543400470E+02  0.31600927223E+02 -0.14374652866E+01  0.64790748140E+02  0.00000000000E+00 0. -1.
</event>
<event>
 7    1  0.2688177E-009  0.1345699E+03  0.7561462E-02  0.1220828E+00
         -1   -1    0    0    0  501 -0.00000000000E+00  0.00000000000E+00  0.19433742246E+02  0.19433742246E+02  0.00000000000E+00 0.  1.
          1   -1    0    0  501    0  0.00000000000E+00 -0.00000000000E+00 -0.14752175757E+04  0.14752175757E+04  0.00000000000E+00 0. -1.
         25    2    1    2    0    0  0.12402537020E+03  0.14598292822E+02 -0.94378370223E+03  0.96019417925E+03  0.12509909144E+03 0.  0.
          5    1    3    3  502    0  0.14900478920E+02 -0.13820507220E+02 -0.55443364858E+03  0.55482174954E+03  0.41800000000E+01 0.  1.
         -5    1    3    3    0  502  0.10912489128E+03  0.28418800042E+02 -0.38935005365E+03  0.40537242971E+03  0.41800000000E+01 0.  1.
        -11    1    1    2    0    0 -0.92522051964E+02  0.13294264964E+02 -0.44948211418E+03  0.45909828855E+03  0.00000000000E+00 0. -1.
         11    1    1    2    0    0 -0.31503318240E+02 -0.27892557786E+02 -0.62518017081E+02  0.75358850175E+02  0.00000000000E+00 0.  1.
</event>
<event>
 7    1  0.2688177E-009  0.1205599E+03  0.7561462E-02  0.1242176E+00
         -1   -1    0    0    0  501 -0.00000000000E+00  0.00000000000E+00  0.17334511605E+03  0.17334511605E+03  0.00000000000E+00 0.  1.
          1   -1    0    0  501    0  0.00000000000E+00 -0.00000000000E+00 -0.14380696887E+03  0.14380696887E+03  0.00000000000E+00 0. -1.
         25    2    1    2    0    0 -0.50990204121E+02  0.67906190541E+02  0.91631907502E+02  0.17678733192E+03  0.12508438202E+03 0.  0.
          5    1    3    3  502    0 -0.25525034014E+02 -0.35614260000E+02  0.20463240107E+02  0.48539875077E+02  0.41800000000E+01 0. -1.
         -5    1    3    3    0  502 -0.25465170107E+02  0.10352045054E+03  0.71168667396E+02  0.12824745685E+03  0.41800000000E+01 0. -1.
        -11    1    1    2    0    0  0.35794207433E+02 -0.66025267062E+02  0.13334268898E+01  0.75115505747E+02  0.00000000000E+00 0.  1.
         11    1    1    2    0    0  0.15195996688E+02 -0.18809234786E+01 -0.63427187210E+02  0.65249247243E+02  0.00000000000E+00 0. -1.
</event>
<event>
 7    1  0.2688177E-009  0.1565043E+03  0.7561462E-02  0.1192701E+00
          1   -1    0    0  501    0  0.00000000000E+00  0.00000000000E+00  0.16328368028E+03  0.16328368028E+03  0.00000000000E+00 0. -1.
         -1   -1    0    0    0  501 -0.00000000000E+00 -0.00000000000E+00 -0.19030915324E+03  0.19030915324E+03  0.00000000000E+00 0.  1.
         25    2    1    2    0    0  0.89899893233E+01  0.12945290875E+03 -0.71698473225E+02  0.19398245022E+03  0.12509853891E+03 0.  0.
          5    1    3    3  502    0  0.58666745936E+02  0.62426303250E+02 -0.69545501119E+02  0.11042137267E+03  0.41800000000E+01 0.  1.
         -5    1    3    3    0  502 -0.49676756613E+02  0.67026605499E+02 -0.21529721062E+01  0.83561077549E+02  0.41800000000E+01 0.  1.
        -11    1    1    2    0    0 -0.35686671158E+02 -0.72536419718E+02 -0.27130685684E+01  0.80885297953E+02  0.00000000000E+00 0.  1.
         11    1    1    2    0    0  0.26696681835E+02 -0.56916489031E+02  0.47386068832E+02  0.78725085354E+02  0.00000000000E+00 0. -1.
</event>
<event>
 7    1  0.2688177E-009  0.8564853E+02  0.7561462E-02  0.1313745E+00
          2   -1    0    0  501    0  0.00000000000E+00  0.00000000000E+00  0.17109799371E+03  0.17109799371E+03  0.00000000000E+00 0. -1.
         -2   -1    0    0    0  501 -0.00000000000E+00 -0.00000000000E+00 -0.88412721588E+02  0.88412721588E+02  0.00000000000E+00 0.  1.
         25    2    1    2    0    0  0.11596854191E+02  0.81906372402E+01 -0.11332177263E+02  0.12640224203E+03  0.12509010746E+03 0.  0.
          5    1    3    3  502    0  0.51775821291E+02  0.45641249637E+02 -0.16459050795E+02  0.71079055226E+02  0.41800000000E+01 0. -1.
         -5    1    3    3    0  502 -0.40178967100E+02 -0.37450612397E+02  0.51268735319E+01  0.55323186806E+02  0.41800000000E+01 0. -1.
        -11    1    1    2    0    0  0.17198078473E+02 -0.26945782068E+00 -0.13281331131E+02  0.21731089878E+02  0.00000000000E+00 0.  1.
         11    1    1    2    0    0 -0.28794932663E+02 -0.79211794195E+01  0.10729878052E+03  0.11137738339E+03  0.00000000000E+00 0. -1.
</event>
<event>
 7    1  0.2688177E-009  0.9655832E+02  0.7561462E-02  0.1287704E+00
         -1   -1    0    0    0  501 -0.00000000000E+00  0.00000000000E+00  0.99825246513E+02  0.99825246513E+02  0.00000000000E+00 0.  1.
          1   -1    0    0  501    0  0.00000000000E+00 -0.00000000000E+00 -0.11660844099E+03  0.11660844099E+03  0.00000000000E+00 0. -1.
         25    2    1    2    0    0  0.23358983314E+00  0.22207348042E+01 -0.10727155102E+02  0.12557087346E+03  0.12509191092E+03 0.  0.
          5    1    3    3  502    0  0.32822399307E+01 -0.52972959351E+02  0.25822380453E+02  0.59170729703E+02  0.41800000000E+01 0. -1.
         -5    1    3    3    0  502 -0.30486500976E+01  0.55193694155E+02 -0.36549535555E+02  0.66400143759E+02  0.41800000000E+01 0. -1.
        -11    1    1    2    0    0  0.63772658954E+01 -0.42828016027E+02 -0.19626543489E+02  0.47540610918E+02  0.00000000000E+00 0. -1.
         11    1    1    2    0    0 -0.66108557285E+01  0.40607281223E+02  0.13570504112E+02  0.43322203125E+02  0.00000000000E+00 0.  1.
</event>
<event>
 7    1  0.2688177E-009  0.2190215E+03  0.7561462E-02  0.1134615E+00
         -2   -1    0    0    0  501 -0.00000000000E+00  0.00000000000E+00  0.33811000952E+02  0.33811000952E+02  0.00000000000E+00 0.  1.
          2   -1    0    0  501    0  0.00000000000E+00 -0.00000000000E+00 -0.16102425027E+04  0.16102425027E+04  0.00000000000E+00 0. -1.
         25    2    1    2    0    0  0.17002526123E+03  0.99760669281E+02 -0.10739069493E+04  0.10989918997E+04  0.12508508843E+03 0.  0.
          5    1    3    3  502    0  0.50667215837E+02  0.95959969614E+02 -0.62963185072E+03  0.63892818249E+03  0.41800000000E+01 0.  1.
         -5    1    3    3    0  502  0.11935804539E+03  0.38006996666E+01 -0.44427509853E+03  0.46006371721E+03  0.41800000000E+01 0.  1.
        -11    1    1    2    0    0 -0.12261414428E+03 -0.31065558173E+02 -0.32987698729E+03  0.35329608549E+03  0.00000000000E+00 0.  1.
         11    1    1    2    0    0 -0.47411116951E+02 -0.68695111108E+02 -0.17264756519E+03  0.19176551845E+03  0.00000000000E+00 0. -1.
</event>
<event>
 7    1  0.2688177E-009  0.1557128E+03  0.7561462E-02  0.1193624E+00
         -1   -1    0    0    0  501 -0.00000000000E+00  0.00000000000E+00  0.10097252087E+03  0.10097252087E+03  0.00000000000E+00 0.  1.
          1   -1    0    0  501    0  0.00000000000E+00 -0.00000000000E+00 -0.28057306190E+03  0.28057306190E+03  0.00000000000E+00 0. -1.
         25    2    1    2    0    0 -0.22048433048E+02  0.12189612658E+03 -0.13329863337E+03  0.22081751937E+03  0.12508817741E+03 0.  0.
          5    1    3    3  502    0  0.65068701674E+01  0.14065352646E+03 -0.11493405600E+03  0.18180501504E+03  0.41800000000E+01 0. -1.
         -5    1    3    3    0  502 -0.28555303215E+02 -0.18757399882E+02 -0.18364577368E+02  0.39012504328E+02  0.41800000000E+01 0. -1.
        -11    1    1    2    0    0 -0.17697333927E+02 -0.60218862819E+02  0.15661760811E+02  0.64690013286E+02  0.00000000000E+00 0.  1.
         11    1    1    2    0    0  0.39745766975E+02 -0.61677263763E+02 -0.61963668479E+02  0.96038050111E+02  0.00000000000E+00 0. -1.
</event>
<event>
 7    1  0.2688177E-009  0.7275184E+02  0.7561462E-02  0.1350978E+00
          3   -1    0    0  501    0  0.00000000000E+00  0.00000000000E+00  0.34731555912E+03  0.34731555912E+03  0.00000000000E+00 0. -1.
         -3   -1    0    0    0  501 -0.00000000000E+00 -0.00000000000E+00 -0.34779913787E+02  0.34779913787E+02  0.00000000000E+00 0.  1.
         25    2    1    2    0    0  0.52485678130E+01  0.36652357013E+01  0.14336625841E+03  0.19036980853E+03  0.12508316646E+03 0.  0.
          5    1    3    3  502    0  0.21959857301E+02  0.33188350848E+02  0.15026310411E+03  0.15549975827E+03  0.41800000000E+01 0. -1.
         -5    1    3    3    0  502 -0.16711289488E+02 -0.29523115146E+02 -0.68968457035E+01  0.34870050257E+02  0.41800000000E+01 0. -1.
        -11    1    1    2    0    0  0.30436044312E+02 -0.14912067045E+02  0.14066256311E+03  0.14468821375E+03  0.00000000000E+00 0. -1.
         11    1    1    2    0    0 -0.35684612125E+02  0.11246831344E+02  0.28506823812E+02  0.47037450629E+02  0.00000000000E+00 0.  1.
</event>
<event>
 7    1  0.2688177E-009  0.1113269E+03  0.7561462E-02  0.1258132E+00
         -3   -1    0    0    0  501 -0.00000000000E+00  0.00000000000E+00  0.42418162473E+03  0.42418162473E+03  0.00000000000E+00 0. -1.
          3   -1    0    0  501    0  0.00000000000E+00 -0.00000000000E+00 -0.33949484047E+02  0.33949484047E+02  0.00000000000E+00 0.  1.
         25    2    1    2    0    0 -0.29982043615E+02 -0.42346040210E+02  0.23909172953E+03  0.27477565913E+03  0.12507876583E+03 0.  0.
          5    1    3    3  502    0 -0.62082709287E+02  0.14006082506E+02  0.16103923887E+03  0.17320953206E+03  0.41800000000E+01 0.  1.
         -5    1    3    3    0  502  0.32100665672E+02 -0.56352122716E+02  0.78052490662E+02  0.10156612708E+03  0.41800000000E+01 0.  1.
        -11    1    1    2    0    0 -0.10463012290E+02 -0.18246958204E+02  0.75617155719E+01  0.22351860153E+02  0.00000000000E+00 0.  1.
         11    1    1    2    0    0  0.40445055905E+02  0.60592998415E+02  0.14357869558E+03  0.16100358949E+03  0.00000000000E+00 0. -1.
</event>
<event>
 7    1  0.2688177E-009  0.7275576E+02  0.7561462E-02  0.1350965E+00
         -2   -1    0    0    0  501 -0.00000000000E+00  0.00000000000E+00  0.18089773506E+03  0.18089773506E+03  0.00000000000E+00 0.  1.
          2   -1    0    0  501    0  0.00000000000E+00 -0.00000000000E+00 -0.78215962563E+02  0.78215962563E+02  0.00000000000E+00 0. -1.
         25    2    1    2    0    0 -0.43900108997E+02 -0.13551350915E+02  0.77645749077E+02  0.15423059993E+03  0.12508939572E+03 0.  0.
          5    1    3    3  502    0 -0.61467711301E+02 -0.35172067377E+02  0.96911437025E+02  0.12010267642E+03  0.41800000000E+01 0.  1.
         -5    1    3    3    0  502  0.17567602304E+02  0.21620716461E+02 -0.19265687948E+02  0.34127923510E+02  0.41800000000E+01 0.  1.
        -11    1    1    2    0    0  0.34438499316E+02  0.77473032890E+01  0.59219910691E+02  0.68942213234E+02  0.00000000000E+00 0.  1.
         11    1    1    2    0    0  0.94616096810E+01  0.58040476262E+01 -0.34183887274E+02  0.35940884460E+02  0.00000000000E+00 0. -1.
</event>
<event>
 7    1  0.2688177E-009  0.1024185E+03  0.7561462E-02  0.1275291E+00
         -3   -1    0    0    0  501 -0.00000000000E+00  0.00000000000E+00  0.23476463328E+03  0.23476463328E+03  0.00000000000E+00 0.  1.
          3   -1    0    0  501    0  0.00000000000E+00 -0.00000000000E+00 -0.51981157508E+02  0.51981157508E+02  0.00000000000E+00 0. -1.
         25    2    1    2    0    0 -0.19049529912E+02  0.79407535545E+01  0.94424227011E+02  0.15807484660E+03  0.12508310167E+03 0.  0.
          5    1    3    3  502    0 -0.35055012403E+02 -0.46830765278E+02  0.79777739404E+02  0.99014819979E+02  0.41800000000E+01 0.  1.
         -5    1    3    3    0  502  0.16005482491E+02  0.54771518832E+02  0.14646487607E+02  0.59060026619E+02  0.41800000000E+01 0.  1.
        -11    1    1    2    0    0  0.45046932088E+02 -0.30625915297E+02  0.72537181314E+02  0.90712818561E+02  0.00000000000E+00 0. -1.
         11    1    1    2    0    0 -0.25997402177E+02  0.22685161743E+02  0.15822067451E+02  0.37958125634E+02  0.00000000000E+00 0.  1.
</event>
<event>
 7    1  0.2688177E-009  0.9904739E+02  0.7561462E-02  0.1282312E+00
          2   -1    0    0  501    0  0.00000000000E+00  0.00000000000E+00  0.54702884707E+03  0.54702884707E+03  0.00000000000E+00 0. -1.
         -2   -1    0    0    0  501 -0.00000000000E+00 -0.00000000000E+00 -0.27128710289E+02  0.27128710289E+02  0.00000000000E+00 0.  1.
         25    2    1    2    0    0  0.65595370232E+01 -0.52985146925E+02  0.25306258392E+03  0.28729592061E+03  0.12509125188E+03 0.  0.
          5    1    3    3  502    0  0.30785421567E+02 -0.63691566217E+02  0.61393429281E+02  0.93760243958E+02  0.41800000000E+01 0. -1.
         -5    1    3    3    0  502 -0.24225884544E+02  0.10706419292E+02  0.19166915464E+03  0.19353567665E+03  0.41800000000E+01 0. -1.
        -11    1    1    2    0    0 -0.41653347327E+02  0.64787301247E+01  0.15660822397E+03  0.16218233906E+03  0.00000000000E+00 0.  1.
         11    1    1    2    0    0  0.35093810304E+02  0.46506416801E+02  0.11022932889E+03  0.12467929769E+03  0.00000000000E+00 0. -1.
</event>
<event>
 7    1  0.2688177E-009  0.1528313E+03  0.7561462E-02  0.1197036E+00
          1   -1    0    0  501    0  0.00000000000E+00  0.00000000000E+00  0.20730919870E+03  0.20730919870E+03  0.00000000000E+00 0. -1.
         -1   -1    0    0    0  501 -0.00000000000E+00 -0.00000000000E+00 -0.14824660961E+03  0.14824660961E+03  0.00000000000E+00 0.  1.
         25    2    1    2    0    0  0.96296582517E+02 -0.67008712364E+02  0.10431720669E+03  0.20073240728E+03  0.12509284704E+03 0.  0.
          5    1    3    3  502    0  0.12583571146E+03 -0.60618302203E+02  0.75813213596E+02  0.15897899420E+03  0.41800000000E+01 0. -1.
         -5    1    3    3    0  502 -0.29539128945E+02 -0.63904101606E+01  0.28503993098E+02  0.41753413075E+02  0.41800000000E+01 0. -1.
        -11    1    1    2    0    0 -0.21137439660E+02 -0.13653371667E+02  0.14885176695E+02  0.29236525076E+02  0.00000000000E+00 0.  1.
         11    1    1    2    0    0 -0.75159142857E+02  0.80662084031E+02 -0.60139794292E+02  0.12558687596E+03  0.00000000000E+00 0. -1.
</event>
<event>
 7    1  0.2688177E-009  0.1268071E+03  0.7561462E-02  0.1232272E+00
          1   -1    0    0  501    0  0.00000000000E+00  0.00000000000E+00  0.50176011632E+03  0.50176011632E+03  0.00000000000E+00 0. -1.
         -1   -1    0    0    0  501 -0.00000000000E+00 -0.00000000000E+00 -0.36455675851E+02  0.36455675851E+02  0.00000000000E+00 0.  1.
         25    2    1    2    0    0 -0.36526371294E+02 -0.62367910559E+02  0.19646764865E+03  0.24386854575E+03  0.12509355929E+03 0.  0.
          5    1    3    3  502    0 -0.44022446815E+02 -0.93504353950E+02  0.10732025499E+03  0.14905082879E+03  0.41800000000E+01 0. -1.
         -5    1    3    3    0  502  0.74960755211E+01  0.31136443392E+02  0.89147393652E+02  0.94817716964E+02  0.41800000000E+01 0. -1.
        -11    1    1    2    0    0 -0.31639791449E+02  0.16127710079E+02  0.58220164509E+02  0.68196532102E+02  0.00000000000E+00 0.  1.
         11    1    1    2    0    0  0.68166162742E+02  0.46240200480E+02  0.21061662731E+03  0.22615071431E+03  0.00000000000E+00 0. -1.
</event>
<event>
 7    1  0.2688177E-009  0.8693995E+02  0.7561462E-02  0.1310436E+00
          1   -1    0    0  501    0  0.00000000000E+00  0.00000000000E+00  0.84158719260E+02  0.84158719260E+02  0.00000000000E+00 0. -1.
         -1   -1    0    0    0  501 -0.00000000000E+00 -0.00000000000E+00 -0.14362513124E+03  0.14362513124E+03  0.00000000000E+00 0.  1.
         25    2    1    2    0    0  0.28426154422E+01 -0.20953098511E+02 -0.44181290556E+02  0.13433775482E+03  0.12509010007E+03 0.  0.
          5    1    3    3  502    0  0.62270591603E+02 -0.14460008967E+02 -0.37001041817E+02  0.73981537788E+02  0.41800000000E+01 0. -1.
         -5    1    3    3    0  502 -0.59427976161E+02 -0.64930895438E+01 -0.71802487382E+01  0.60356217031E+02  0.41800000000E+01 0. -1.
        -11    1    1    2    0    0 -0.20757022319E+02 -0.19077547342E+01  0.31859855555E+02  0.38072876167E+02  0.00000000000E+00 0. -1.
         11    1    1    2    0    0  0.17914406877E+02  0.22860853245E+02 -0.47144976983E+02  0.55373219516E+02  0.00000000000E+00 0.  1.
</event>
<event>
 7    1  0.2688177E-009  0.1074943E+03  0.7561462E-02  0.1265282E+00
         -1   -1    0    0    0  501 -0.00000000000E+00  0.00000000000E+00  0.53833124907E+02  0.53833124907E+02  0.00000000000E+00 0.  1.
          1   -1    0    0  501    0  0.00000000000E+00 -0.00000000000E+00 -0.49895786578E+03  0.49895786578E+03  0.00000000000E+00 0. -1.
         25    2    1    2    0    0 -0.25344047967E+02 -0.92956734083E+02 -0.36565970962E+03  0.39829272485E+03  0.12508715462E+03 0.  0.
          5    1    3    3  502    0 -0.29862413611E+02 -0.32574161692E+02 -0.22421979784E+02  0.49729843495E+02  0.41800000000E+01 0.  1.
         -5    1    3    3    0  502  0.45183656440E+01 -0.60382572390E+02 -0.34323772984E+03  0.34856288136E+03  0.41800000000E+01 0.  1.
        -11    1    1    2    0    0  0.29519345097E+02  0.17467449571E+02  0.11536111074E+02  0.36188194044E+02  0.00000000000E+00 0.  1.
         11    1    1    2    0    0 -0.41752971298E+01  0.75489284512E+02 -0.91001142324E+02  0.11831007179E+03  0.00000000000E+00 0. -1.
</event>
<event>
 7    1  0.2688177E-009  0.1061937E+03  0.7561462E-02  0.1267785E+00
         -2   -1    0    0    0  501 -0.00000000000E+00  0.00000000000E+00  0.49799199083E+02  0.49799199083E+02  0.00000000000E+00 0. -1.
          2   -1    0    0  501    0  0.00000000000E+00 -0.00000000000E+00 -0.37480123200E+03  0.37480123200E+03  0.00000000000E+00 0.  1.
         25    2    1    2    0    0  0.71073800432E+01  0.74624880793E+02 -0.23421348214E+03  0.27590354654E+03  0.12508966421E+03 0.  0.
          5    1    3    3  502    0 -0.68092044500E+01  0.83128180669E+02 -0.64924889455E+02  0.10577983436E+03  0.41800000000E+01 0.  1.
         -5    1    3    3    0  502  0.13916584493E+02 -0.85032998755E+01 -0.16928859269E+03  0.17012371218E+03  0.41800000000E+01 0.  1.
        -11    1    1    2    0    0 -0.17224219209E+02 -0.91096021991E+02 -0.90213173207E+02  0.12935832238E+03  0.00000000000E+00 0.  1.
         11    1    1    2    0    0  0.10116839166E+02  0.16471141198E+02 -0.57537757142E+00  0.19338562160E+02  0.00000000000E+00 0. -1.
</event>
<event>
 7    1  0.2688177E-009  0.1041174E+03  0.7561462E-02  0.1271868E+00
          3   -1    0    0  501    0  0.00000000000E+00  0.00000000000E+00  0.28121171884E+03  0.28121171884E+03  0.00000000000E+00 0. -1.
         -3   -1    0    0    0  501 -0.00000000000E+00 -0.00000000000E+00 -0.57799946828E+02  0.57799946828E+02  0.00000000000E+00 0.  1.
         25    2    1    2    0    0 -0.51563072112E+02 -0.86912696088E+01  0.17801194459E+03  0.22376007301E+03  0.12508408886E+03 0.  0.
          5    1    3    3  502    0 -0.22271706649E+02  0.55906696386E+02  0.10971939019E+03  0.12520944294E+03  0.41800000000E+01 0.  1.
         -5    1    3    3    0  502 -0.29291365463E+02 -0.64597965994E+02  0.68292554397E+02  0.98550630071E+02  0.41800000000E+01 0.  1.
        -11    1    1    2    0    0  0.38542069049E+02  0.32042591170E+02  0.65014384947E+02  0.82091954450E+02  0.00000000000E+00 0. -1.
         11    1    1    2    0    0  0.13021003064E+02 -0.23351321561E+02 -0.19614557520E+02  0.33159638208E+02  0.00000000000E+00 0.  1.
</event>
<event>
 7    1  0.2688177E-009  0.9806184E+02  0.7561462E-02  0.1284425E+00
         -2   -1    0    0    0  501 -0.00000000000E+00  0.00000000000E+00  0.19689493867E+03  0.19689493867E+03  0.00000000000E+00 0.  1.
          2   -1    0    0  501    0  0.00000000000E+00 -0.00000000000E+00 -0.82627670211E+02  0.82627670211E+02  0.00000000000E+00 0. -1.
         25    2    1    2    0    0  0.61420568644E+01 -0.53259572342E+02  0.22467596282E+02  0.13793499977E+03  0.12508782663E+03 0.  0.
          5    1    3    3  502    0 -0.34654199660E+02 -0.65529611710E+02  0.47697203023E+02  0.88247034745E+02  0.41800000000E+01 0. -1.
         -5    1    3    3    0  502  0.40796256524E+02  0.12270039368E+02 -0.25229606741E+02  0.49687965030E+02  0.41800000000E+01 0. -1.
        -11    1    1    2    0    0 -0.20482544570E+02  0.59872751653E+02  0.10392713102E+03  0.12167633124E+03  0.00000000000E+00 0.  1.
         11    1    1    2    0    0  0.14340487706E+02 -0.66131793108E+01 -0.12127458843E+02  0.19911277865E+02  0.00000000000E+00 0. -1.
</event>
<event>
 7    1  0.2688177E-009  0.1022721E+03  0.7561462E-02  0.1275589E+00
         -1   -1    0    0    0  501 -0.00000000000E+00  0.00000000000E+00  0.38857990649E+03  0.38857990649E+03  0.00000000000E+00 0.  1.
          1   -1    0    0  501    0  0.00000000000E+00 -0.00000000000E+00 -0.39602553237E+02  0.39602553237E+02  0.00000000000E+00 0. -1.
         25    2    1    2    0    0 -0.16146899628E+02 -0.84684963423E+01  0.16167141775E+03  0.20522569303E+03  0.12508996748E+03 0.  0.
          5    1    3    3  502    0 -0.57234686511E+02  0.21589610492E+02  0.13346539490E+03  0.14687547330E+03  0.41800000000E+01 0.  1.
         -5    1    3    3    0  502  0.41087786884E+02 -0.30058106834E+02  0.28206022851E+02  0.58350219730E+02  0.41800000000E+01 0.  1.
        -11    1    1    2    0    0  0.33651962454E+02  0.42303050405E+02  0.31505666718E+02  0.62566841745E+02  0.00000000000E+00 0. -1.
         11    1    1    2    0    0 -0.17505062826E+02 -0.33834554063E+02  0.15580026879E+03  0.16038992496E+03  0.00000000000E+00 0.  1.
</event>
<event>
 7    1  0.2688177E-009  0.2242543E+03  0.7561462E-02  0.1130750E+00
         -1   -1    0    0    0  501 -0.00000000000E+00  0.00000000000E+00  0.15655390069E+04  0.15655390069E+04  0.00000000000E+00 0.  1.
          1   -1    0    0  501    0  0.00000000000E+00 -0.00000000000E+00 -0.37023193198E+02  0.37023193198E+02  0.00000000000E+00 0. -1.
         25    2    1    2    0    0  0.63213303901E+02  0.19844046898E+03  0.10073430926E+04  0.10362254593E+04  0.12509418391E+03 0.  0.
          5    1    3    3  502    0  0.73161701735E+02  0.44111743636E+02  0.28791633871E+03  0.30035274433E+03  0.41800000000E+01 0. -1.
         -5    1    3    3    0  502 -0.99483978342E+01  0.15432872535E+03  0.71942675390E+03  0.73587271502E+03  0.41800000000E+01 0. -1.
        -11    1    1    2    0    0 -0.11430491657E+02 -0.37589913158E+02  0.19577820496E+03  0.19968165476E+03  0.00000000000E+00 0.  1.
         11    1    1    2    0    0 -0.51782812244E+02 -0.16085055582E+03  0.32539451611E+03  0.36665508597E+03  0.00000000000E+00 0. -1.
</event>
<event>
 7    1  0.2688177E-009  0.1534073E+03  0.7561462E-02  0.1196348E+00
          2   -1    0    0  501    0  0.00000000000E+00  0.00000000000E+00  0.13895268767E+03  0.13895268767E+03  0.00000000000E+00 0.  1.
         -2   -1    0    0    0  501 -0.00000000000E+00 -0.00000000000E+00 -0.19407935855E+03  0.19407935855E+03  0.00000000000E+00 0. -1.
         25    2    1    2    0    0  0.74654224376E+02 -0.97179774848E+02 -0.18664169048E+02  0.17610192187E+03  0.12508546607E+03 0.  0.
          5    1    3    3  502    0 -0.24621384855E+02  0.56247218506E+01  0.14374779569E+02  0.29359100390E+02  0.41800000000E+01 0.  1.
         -5    1    3    3    0  502  0.99275609231E+02 -0.10280449670E+03 -0.33038948617E+02  0.14674282148E+03  0.41800000000E+01 0.  1.
        -11    1    1    2    0    0 -0.80127237105E+02  0.58587050925E+02  0.58078561136E+01  0.99431121158E+02  0.00000000000E+00 0. -1.
         11    1    1    2    0    0  0.54730127288E+01  0.38592723923E+02 -0.42270357947E+02  0.57499003201E+02  0.00000000000E+00 0.  1.
</event>
<event>
 7    1  0.2688177E-009  0.1454115E+03  0.7561462E-02  0.1206227E+00
         -1   -1    0    0    0  501 -0.00000000000E+00  0.00000000000E+00  0.81998832371E+03  0.81998832371E+03  0.00000000000E+00 0.  1.
          1   -1    0    0  501    0  0.00000000000E+00 -0.00000000000E+00 -0.28480242851E+02  0.28480242851E+02  0.00000000000E+00 0. -1.
         25    2    1    2    0    0 -0.71660143309E+02  0.10151763530E+03  0.45820913763E+03  0.49096163621E+03  0.12508680191E+03 0.  0.
          5    1    3    3  502    0 -0.74518565580E+02  0.12099329898E+03  0.44432563399E+03  0.46651381162E+03  0.41800000000E+01 0. -1.
         -5    1    3    3    0  502  0.28584222706E+01 -0.19475663685E+02  0.13883503637E+02  0.24447824588E+02  0.41800000000E+01 0. -1.
        -11    1    1    2    0    0  0.61080851303E+02 -0.59727197194E+02  0.23937394445E+03  0.25416155052E+03  0.00000000000E+00 0.  1.
         11    1    1    2    0    0  0.10579292007E+02 -0.41790438102E+02  0.93924998772E+02  0.10334537982E+03  0.00000000000E+00 0. -1.
</event>
<event>
 7    1  0.2688177E-009  0.9096853E+02  0.7561462E-02  0.1300523E+00
          1   -1    0    0  501    0  0.00000000000E+00  0.00000000000E+00  0.50909282723E+03  0.50909282723E+03  0.00000000000E+00 0. -1.
         -1   -1    0    0    0  501 -0.00000000000E+00 -0.00000000000E+00 -0.24328980114E+02  0.24328980114E+02  0.00000000000E+00 0.  1.
         25    2    1    2    0    0  0.11606832142E+02 -0.26812895293E+02  0.27160324105E+03  0.30044909289E+03  0.12509071493E+03 0.  0.
          5    1    3    3  502    0 -0.10752258355E+02 -0.62904339784E+02  0.71844266319E+02  0.96185435625E+02  0.41800000000E+01 0. -1.
         -5    1    3    3    0  502  0.22359090497E+02  0.36091444491E+02  0.19975897473E+03  0.20426365726E+03  0.41800000000E+01 0. -1.
        -11    1    1    2    0    0 -0.33969637333E+02 -0.70963093046E+01  0.31635477403E+02  0.46958463527E+02  0.00000000000E+00 0.  1.
         11    1    1    2    0    0  0.22362805191E+02  0.33909204598E+02  0.18152512867E+03  0.18601425093E+03  0.00000000000E+00 0. -1.
</event>
<event>
 7    1  0.2688177E-009  0.3987675E+03  0.7561462E-02  0.1044207E+00
          4   -1    0    0  501    0  0.00000000000E+00  0.00000000000E+00  0.14020828614E+03  0.14020828614E+03  0.00000000000E+00 0. -1.
         -4   -1    0    0    0  501 -0.00000000000E+00 -0.00000000000E+00 -0.13906811850E+04  0.13906811850E+04  0.00000000000E+00 0.  1.
         25    2    1    2    0    0  0.14051713638E+02 -0.38786807739E+03 -0.94231370624E+03  0.10267627731E+04  0.12509026827E+03 0.  0.
          5    1    3    3  502    0 -0.47603318349E+02 -0.98918612900E+02 -0.20801015700E+03  0.23523746664E+03  0.41800000000E+01 0.  1.
         -5    1    3    3    0  502  0.61655031987E+02 -0.28894946449E+03 -0.73430354924E+03  0.79152530650E+03  0.41800000000E+01 0.  1.
        -11    1    1    2    0    0 -0.35981966904E+02  0.25583512287E+03 -0.15738391698E+03  0.30251613074E+03  0.00000000000E+00 0. -1.
         11    1    1    2    0    0  0.21930253265E+02  0.13203295453E+03 -0.15077527564E+03  0.20161056727E+03  0.00000000000E+00 0.  1.
</event>
<event>
 7    1  0.2688177E-009  0.1491544E+03  0.7561462E-02  0.1201516E+00
          2   -1    0    0  501    0  0.00000000000E+00  0.00000000000E+00  0.64816329431E+03  0.64816329431E+03  0.00000000000E+00 0. -1.
         -2   -1    0    0    0  501 -0.00000000000E+00 -0.00000000000E+00 -0.48304947976E+02  0.48304947976E+02  0.00000000000E+00 0.  1.
         25    2    1    2    0    0  0.23984393505E+02 -0.13412957488E+03  0.26062182582E+03  0.31957511110E+03  0.12505407452E+03 0.  0.
          5    1    3    3  502    0  0.43419415598E+02 -0.27584270243E+02  0.19423560834E+02  0.55144217568E+02  0.41800000000E+01 0. -1.
         -5    1    3    3    0  502 -0.19435022093E+02 -0.10654530463E+03  0.24119826499E+03  0.26443089354E+03  0.41800000000E+01 0. -1.
        -11    1    1    2    0    0 -0.26191736815E+02  0.80793862972E+02  0.29675806965E+03  0.30867297788E+03  0.00000000000E+00 0. -1.
         11    1    1    2    0    0  0.22073433094E+01  0.53335711904E+02  0.42478450861E+02  0.68220153300E+02  0.00000000000E+00 0.  1.
</event>
<event>
 7    1  0.2688177E-009  0.1134139E+03  0.7561462E-02  0.1254375E+00
         -2   -1    0    0    0  501 -0.00000000000E+00  0.00000000000E+00  0.79340137714E+02  0.79340137714E+02  0.00000000000E+00 0.  1.
          2   -1    0    0  501    0  0.00000000000E+00 -0.00000000000E+00 -0.20940770613E+03  0.20940770613E+03  0.00000000000E+00 0. -1.
         25    2    1    2    0    0  0.17958609182E+02  0.36710820365E+02 -0.81865943531E+01  0.13184968351E+03  0.12508845966E+03 0.  0.
          5    1    3    3  502    0 -0.42444759872E+02 -0.19379612677E+02 -0.14589463642E+02  0.49065791316E+02  0.41800000000E+01 0. -1.
         -5    1    3    3    0  502  0.60403369054E+02  0.56090433042E+02  0.64028692888E+01  0.82783892195E+02  0.41800000000E+01 0. -1.
        -11    1    1    2    0    0 -0.39093799628E+02 -0.56357358877E+02 -0.73244101034E+02  0.10034528093E+03  0.00000000000E+00 0. -1.
         11    1    1    2    0    0  0.21135190447E+02  0.19646538511E+02 -0.48636873033E+02  0.56552879406E+02  0.00000000000E+00 0.  1.
</event>
<event>
 7    1  0.2688177E-009  0.1530829E+03  0.7561462E-02  0.1196735E+00
         -2   -1    0    0    0  501 -0.00000000000E+00  0.00000000000E+00  0.35218354685E+02  0.35218354685E+02  0.00000000000E+00 0.  1.
          2   -1    0    0  501    0  0.00000000000E+00 -0.00000000000E+00 -0.98082160044E+03  0.98082160044E+03  0.00000000000E+00 0. -1.
         25    2    1    2    0    0  0.48322543362E+02 -0.13449101203E+03 -0.62428523875E+03  0.65253567521E+03  0.12509135698E+03 0.  0.
          5    1    3    3  502    0  0.70388442378E+01 -0.51400341146E+02 -0.46688396693E+03  0.46977617157E+03  0.41800000000E+01 0.  1.
         -5    1    3    3    0  502  0.41283699124E+02 -0.83090670885E+02 -0.15740127182E+03  0.18275950364E+03  0.41800000000E+01 0.  1.
        -11    1    1    2    0    0  0.20305331127E+02  0.31797997320E+02 -0.34101546589E+02  0.50856018184E+02  0.00000000000E+00 0.  1.
         11    1    1    2    0    0 -0.68627874490E+02  0.10269301471E+03 -0.28721646042E+03  0.31264826174E+03  0.00000000000E+00 0. -1.
</event>
<event>
 7    1  0.2688177E-009  0.8427996E+02  0.7561462E-02  0.1317326E+00
         -2   -1    0    0    0  501 -0.00000000000E+00  0.00000000000E+00  0.53339520318E+02  0.53339520318E+02  0.00000000000E+00 0.  1.
          2   -1    0    0  501    0  0.00000000000E+00 -0.00000000000E+00 -0.39225753381E+03  0.39225753381E+03  0.00000000000E+00 0. -1.
         25    2    1    2    0    0 -0.13374277201E+02 -0.77704066184E+02 -0.27652288251E+03  0.31357539890E+03  0.12509129887E+03 0.  0.
          5    1    3    3  502    0 -0.22300608131E+02 -0.19142019475E+02 -0.24413264740E+03  0.24593079506E+03  0.41800000000E+01 0. -1.
         -5    1    3    3    0  502  0.89263309301E+01 -0.58562046710E+02 -0.32390235115E+02  0.67644603846E+02  0.41800000000E+01 0. -1.
        -11    1    1    2    0    0 -0.63731981218E+00  0.23329857548E+02  0.21059562265E+02  0.31435546640E+02  0.00000000000E+00 0.  1.
         11    1    1    2    0    0  0.14011597013E+02  0.54374208636E+02 -0.83454693246E+02  0.10058610859E+03  0.00000000000E+00 0. -1.
</event>
<event>
 7    1  0.2688177E-009  0.3073183E+03  0.7561462E-02  0.1081638E+00
          1   -1    0    0  501    0  0.00000000000E+00  0.00000000000E+00  0.18239216827E+03  0.18239216827E+03  0.00000000000E+00 0. -1.
         -1   -1    0    0    0  501 -0.00000000000E+00 -0.00000000000E+00 -0.54691400530E+03  0.54691400530E+03  0.00000000000E+00 0.  1.
         25    2    1    2    0    0 -0.80006511825E+02  0.28078963504E+03 -0.13326079165E+03  0.34445721827E+03  0.12509386694E+03 0.  0.
          5    1    3    3  502    0 -0.48219236931E+02  0.18215820820E+02 -0.10206524100E+02  0.52712014500E+02  0.41800000000E+01 0. -1.
         -5    1    3    3    0  502 -0.31787274893E+02  0.26257381422E+03 -0.12305426755E+03  0.29174520377E+03  0.41800000000E+01 0. -1.
        -11    1    1    2    0    0  0.14332698678E+02 -0.16224944160E+03 -0.17217366425E+03  0.23701071329E+03  0.00000000000E+00 0.  1.
         11    1    1    2    0    0  0.65673813147E+02 -0.11854019344E+03 -0.59087381123E+02  0.14783824201E+03  0.00000000000E+00 0. -1.
</event>
<event>
 7    1  0.2688177E-009  0.1007032E+03  0.7561462E-02  0.1278824E+00
         -2   -1    0    0    0  501 -0.00000000000E+00  0.00000000000E+00  0.35508685009E+03  0.35508685009E+03  0.00000000000E+00 0.  1.
          2   -1    0    0  501    0  0.00000000000E+00 -0.00000000000E+00 -0.42711066778E+02  0.42711066778E+02  0.00000000000E+00 0. -1.
         25    2    1    2    0    0 -0.13345456638E+02 -0.51773578157E+02  0.21622415641E+03  0.25545839325E+03  0.12508996866E+03 0.  0.
          5    1    3    3  502    0 -0.52294934627E+02 -0.73655486895E+02  0.15664123426E+03  0.18086967576E+03  0.41800000000E+01 0. -1.
         -5    1    3    3    0  502  0.38949477989E+02  0.21881908738E+02  0.59582922153E+02  0.74588717498E+02  0.41800000000E+01 0. -1.
        -11    1    1    2    0    0  0.26578740543E+02  0.26245891195E+02  0.10564887002E+03  0.11205784216E+03  0.00000000000E+00 0.  1.
         11    1    1    2    0    0 -0.13233283905E+02  0.25527686962E+02 -0.94972431229E+01  0.30281681451E+02  0.00000000000E+00 0. -1.
</event>
<event>
 7    1  0.2688177E-009  0.1251380E+03  0.7561462E-02  0.1234854E+00
          1   -1    0    0  501    0  0.00000000000E+00  0.00000000000E+00  0.60626913363E+02  0.60626913363E+02  0.00000000000E+00 0. -1.
         -1   -1    0    0    0  501 -0.00000000000E+00 -0.00000000000E+00 -0.38424236761E+03  0.38424236761E+03  0.00000000000E+00 0.  1.
         25    2    1    2    0    0  0.88245939701E+02 -0.59466191598E+02 -0.19305890546E+03  0.25346157096E+03  0.12508978041E+03 0.  0.
          5    1    3    3  502    0  0.88545546649E+02 -0.49285151815E+02 -0.55797102489E+02  0.11575892651E+03  0.41800000000E+01 0. -1.
         -5    1    3    3    0  502 -0.29960694762E+00 -0.10181039783E+02 -0.13726180297E+03  0.13770264445E+03  0.41800000000E+01 0. -1.
        -11    1    1    2    0    0 -0.27403696972E+02 -0.22712209375E+02 -0.20042658666E+02  0.40847462942E+02  0.00000000000E+00 0.  1.
         11    1    1    2    0    0 -0.60842242730E+02  0.82178400973E+02 -0.11051389013E+03  0.15056024707E+03  0.00000000000E+00 0. -1.
</event>
<event>
 7    1  0.2688177E-009  0.7842001E+02  0.7561462E-02  0.1333596E+00
         -3   -1    0    0    0  501 -0.00000000000E+00  0.00000000000E+00  0.55637428857E+02  0.55637428857E+02  0.00000000000E+00 0.  1.
          3   -1    0    0  501    0  0.00000000000E+00 -0.00000000000E+00 -0.26275925133E+03  0.26275925133E+03  0.00000000000E+00 0. -1.
         25    2    1    2    0    0 -0.36634697280E+01 -0.36543843800E+02 -0.16657268073E+03  0.21152911079E+03  0.12509689532E+03 0.  0.
          5    1    3    3  502    0  0.14343277414E+02  0.35377404860E+02 -0.12316515136E+02  0.40329385400E+02  0.41800000000E+01 0. -1.
         -5    1    3    3    0  502 -0.18006747142E+02 -0.71921248660E+02 -0.15425616559E+03  0.17119972539E+03  0.41800000000E+01 0. -1.
        -11    1    1    2    0    0  0.13174630230E+02  0.11863503536E+02 -0.67092775685E+02  0.69395634927E+02  0.00000000000E+00 0. -1.
         11    1    1    2    0    0 -0.95111605016E+01  0.24680340264E+02  0.26543633943E+02  0.37471934465E+02  0.00000000000E+00 0.  1.
</event>
<event>
 7    1  0.2688177E-009  0.7991161E+02  0.7561462E-02  0.1329302E+00
          2   -1    0    0  501    0  0.00000000000E+00  0.00000000000E+00  0.51437812549E+03  0.51437812549E+03  0.00000000000E+00 0. -1.
         -2   -1    0    0    0  501 -0.00000000000E+00 -0.00000000000E+00 -0.47219504159E+02  0.47219504159E+02  0.00000000000E+00 0.  1.
         25    2    1    2    0    0  0.59907201605E+02  0.13673832044E+02  0.82736960848E+02  0.16207981540E+03  0.12509442586E+03 0.  0.
          5    1    3    3  502    0  0.40272712872E+02 -0.52943962650E+00 -0.27620536827E+02  0.49015693027E+02  0.41800000000E+01 0.  1.
         -5    1    3    3    0  502  0.19634488734E+02  0.14203271671E+02  0.11035749767E+03  0.11306412237E+03  0.41800000000E+01 0.  1.
        -11    1    1    2    0    0 -0.30984724375E+02  0.29494345908E+02  0.80249342069E+02  0.90939136171E+02  0.00000000000E+00 0.  1.
         11    1    1    2    0    0 -0.28922477231E+02 -0.43168177952E+02  0.30417231841E+03  0.30857867808E+03  0.00000000000E+00 0. -1.
</event>
<event>
 7    1  0.2688177E-009  0.1123364E+03  0.7561462E-02  0.1256303E+00
          2   -1    0    0  501    0  0.00000000000E+00  0.00000000000E+00  0.86697108243E+03  0.86697108243E+03  0.00000000000E+00 0. -1.
         -2   -1    0    0    0  501 -0.00000000000E+00 -0.00000000000E+00 -0.19560791618E+02  0.19560791618E+02  0.00000000000E+00 0.  1.
         25    2    1    2    0    0 -0.29626824690E+02  0.33486800222E+02  0.64382820011E+03  0.65739047275E+03  0.12509343655E+03 0.  0.
          5    1    3    3  502    0 -0.23746278127E+02 -0.45433723674E+02  0.19789740320E+03  0.20447240294E+03  0.41800000000E+01 0. -1.
         -5    1    3    3    0  502 -0.58805465624E+01  0.78920523896E+02  0.44593079691E+03  0.45291806980E+03  0.41800000000E+01 0. -1.
        -11    1    1    2    0    0 -0.32465278540E+01  0.25903848979E+02  0.18481153166E+02  0.31985971259E+02  0.00000000000E+00 0.  1.
         11    1    1    2    0    0  0.32873352544E+02 -0.59390649200E+02  0.18510093753E+03  0.19715543004E+03  0.00000000000E+00 0. -1.
</event>
<event>
 7    1  0.2688177E-009  0.9334138E+02  0.7561462E-02  0.1294956E+00
          1   -1    0    0  501    0  0.00000000000E+00  0.00000000000E+00  0.21155798563E+04  0.21155798563E+04  0.00000000000E+00 0. -1.
         -1   -1    0    0    0  501 -0.00000000000E+00 -0.00000000000E+00 -0.84902495748E+01  0.84902495748E+01  0.00000000000E+00 0.  1.
         25    2    1    2    0    0 -0.66066795690E+02  0.26287123210E+02  0.14734529524E+04  0.14804615463E+04  0.12508778101E+03 0.  0.
          5    1    3    3  502    0 -0.15853605190E+02 -0.12690167649E+01  0.12378824995E+04  0.12379917214E+04  0.41800000000E+01 0. -1.
         -5    1    3    3    0  502 -0.50213190499E+02  0.27556139975E+02  0.23557045288E+03  0.24246982497E+03  0.41800000000E+01 0. -1.
        -11    1    1    2    0    0  0.30503865401E+02  0.32202249989E+02  0.25835559150E+03  0.26213561827E+03  0.00000000000E+00 0.  1.
         11    1    1    2    0    0  0.35562930289E+02 -0.58489373199E+02  0.37528106287E+03  0.38147294129E+03  0.00000000000E+00 0. -1.
</event>
<event>
 7    1  0.2688177E-009  0.6933384E+02  0.7561462E-02  0.1362373E+00
          1   -1    0    0  501    0  0.00000000000E+00  0.00000000000E+00  0.22060497304E+02  0.22060497304E+02  0.00000000000E+00 0. -1.
         -1   -1    0    0    0  501 -0.00000000000E+00 -0.00000000000E+00 -0.65686309149E+03  0.65686309149E+03  0.00000000000E+00 0.  1.
         25    2    1    2    0    0 -0.27761809934E+02 -0.30251002814E+02 -0.28108302034E+03  0.31038885088E+03  0.12509089959E+03 0.  0.
          5    1    3    3  502    0 -0.26260995775E+02 -0.37885803149E+02 -0.22164463985E+02  0.51319682804E+02  0.41800000000E+01 0. -1.
         -5    1    3    3    0  502 -0.15008141584E+01  0.76348003343E+01 -0.25891855636E+03  0.25906916807E+03  0.41800000000E+01 0. -1.
        -11    1    1    2    0    0  0.23097629337E+02 -0.21519207168E+02 -0.42161921209E+02  0.52670716325E+02  0.00000000000E+00 0.  1.
         11    1    1    2    0    0  0.46641805963E+01  0.51770209982E+02 -0.31155765263E+03  0.31586402159E+03  0.00000000000E+00 0. -1.
</event>
<event>
 7    1  0.2688177E-009  0.3780795E+03  0.7561462E-02  0.1051646E+00
          1   -1    0    0  501    0  0.00000000000E+00  0.00000000000E+00  0.58676772214E+03  0.58676772214E+03  0.00000000000E+00 0. -1.
         -1   -1    0    0    0  501 -0.00000000000E+00 -0.00000000000E+00 -0.24672480317E+03  0.24672480317E+03  0.00000000000E+00 0.  1.
         25    2    1    2    0    0 -0.16519196923E+03  0.32485827885E+03  0.15824817207E+03  0.41654673501E+03  0.12508960967E+03 0.  0.
          5    1    3    3  502    0 -0.12211964894E+03  0.11793939958E+03  0.10078948997E+03  0.19748140246E+03  0.41800000000E+01 0. -1.
         -5    1    3    3    0  502 -0.43072320288E+02  0.20691887927E+03  0.57458682094E+02  0.21906533255E+03  0.41800000000E+01 0. -1.
        -11    1    1    2    0    0  0.68655299671E+02 -0.53864271280E+02  0.35491813053E+02  0.94204982285E+02  0.00000000000E+00 0.  1.
         11    1    1    2    0    0  0.96536669558E+02 -0.27099400757E+03  0.14630293384E+03  0.32274080802E+03  0.00000000000E+00 0. -1.
</event>
<event>
 7    1  0.2897159E-009  0.9346325E+02  0.7561462E-02  0.1294675E+00
         -2   -1    0    0    0  501 -0.00000000000E+00  0.00000000000E+00  0.95405697018E+02  0.95405697018E+02  0.00000000000E+00 0.  1.
          2   -1    0    0  501    0  0.00000000000E+00 -0.00000000000E+00 -0.18072496007E+03  0.18072496007E+03  0.00000000000E+00 0. -1.
         25    2    1    2    0    0  0.23596349447E+02 -0.73439911293E+00  0.26128125976E+02  0.12995232839E+03  0.12509037389E+03 0.  0.
          5    1    3    3  502    0 -0.49203861532E+02 -0.11398316979E+02 -0.28603912281E+01  0.50760179842E+02  0.41800000000E+01 0. -1.
         -5    1    3    3    0  502  0.72800210978E+02  0.10663917866E+02  0.28988517204E+02  0.79192148553E+02  0.41800000000E+01 0. -1.
        -11    1    1    2    0    0 -0.17591967950E+02 -0.28070337114E+02 -0.11195163453E+03  0.11675011621E+03  0.00000000000E+00 0. -1.
         11    1    1    2    0    0 -0.60043814971E+01  0.28804736227E+02  0.50424550184E+00  0.29428212480E+02  0.00000000000E+00 0.  1.
</event>
<event>
 7    1  0.2688177E-009  0.8849813E+02  0.7561462E-02  0.1306530E+00
          2   -1    0    0  501    0  0.00000000000E+00  0.00000000000E+00  0.52794447593E+03  0.52794447593E+03  0.00000000000E+00 0. -1.
         -2   -1    0    0    0  501 -0.00000000000E+00 -0.00000000000E+00 -0.41412697057E+02  0.41412697057E+02  0.00000000000E+00 0.  1.
         25    2    1    2    0    0  0.18100396118E+02  0.27146878828E-01  0.44200297346E+03  0.45971989961E+03  0.12509249569E+03 0.  0.
          5    1    3    3  502    0 -0.30509093017E+02 -0.44010754252E+02  0.12629204322E+03  0.13724031415E+03  0.41800000000E+01 0. -1.
         -5    1    3    3    0  502  0.48609489135E+02  0.44037901131E+02  0.31571093024E+03  0.32247958547E+03  0.41800000000E+01 0. -1.
        -11    1    1    2    0    0  0.13283990203E+02 -0.17238943960E+02 -0.23954046647E+02  0.32364207627E+02  0.00000000000E+00 0.  1.
         11    1    1    2    0    0 -0.31384386321E+02  0.17211797081E+02  0.68482852066E+02  0.77273065751E+02  0.00000000000E+00 0. -1.
</event>
<event>
 7    1  0.2688177E-009  0.8969866E+02  0.7561462E-02  0.1303583E+00
          1   -1    0    0  501    0  0.00000000000E+00  0.00000000000E+00  0.16122442793E+03  0.16122442793E+03  0.00000000000E+00 0. -1.
         -1   -1    0    0    0  501 -0.00000000000E+00 -0.00000000000E+00 -0.57043562070E+02  0.57043562070E+02  0.00000000000E+00 0.  1.
         25    2    1    2    0    0  0.11892923872E+02  0.27086331966E+02  0.50322250398E+02  0.13803659998E+03  0.12508662211E+03 0.  0.
          5    1    3    3  502    0  0.67708721040E+02  0.94449272766E+01  0.17080874199E+02  0.70589703353E+02  0.41800000000E+01 0.  1.
         -5    1    3    3    0  502 -0.55815797167E+02  0.17641404690E+02  0.33241376198E+02  0.67446896626E+02  0.41800000000E+01 0.  1.
        -11    1    1    2    0    0 -0.27730080002E+02 -0.22559389096E+02  0.16437481952E+02  0.39345573909E+02  0.00000000000E+00 0.  1.
         11    1    1    2    0    0  0.15837156130E+02 -0.45269428706E+01  0.37421133515E+02  0.40885816117E+02  0.00000000000E+00 0. -1.
</event>
<event>
 6    1  0.2688177E-009  0.1305479E+03  0.7561462E-02  0.1226645E+00
         -1   -1    0    0    0  501 -0.00000000000E+00  0.00000000000E+00  0.92896551310E+02  0.92896551310E+02  0.00000000000E+00 0.  1.
          1   -1    0    0  501    0  0.00000000000E+00 -0.00000000000E+00 -0.22188686715E+03  0.22188686715E+03  0.00000000000E+00 0. -1.
          5    1    1    2  502    0 -0.33474499453E+02  0.53557243278E+01 -0.12447070908E+01  0.34179637102E+02  0.41800000000E+01 0. -1.
         -5    1    1    2    0  502  0.11437360148E+03  0.19877181883E+02 -0.31685203010E+02  0.12040700795E+03  0.41800000000E+01 0. -1.
        -11    1    1    2    0    0 -0.34128649059E+02 -0.47889687868E+02 -0.90504042767E+02  0.10793131449E+03  0.00000000000E+00 0. -1.
         11    1    1    2    0    0 -0.46770452966E+02  0.22656781656E+02 -0.55563629694E+01  0.52265458911E+02  0.00000000000E+00 0.  1.
</event>
<event>
 7    1  0.2688177E-009  0.1024308E+03  0.7561462E-02  0.1275266E+00
         -4   -1    0    0    0  501 -0.00000000000E+00  0.00000000000E+00  0.68674034668E+03  0.68674034668E+03  0.00000000000E+00 0.  1.
          4   -1    0    0  501    0  0.00000000000E+00 -0.00000000000E+00 -0.28570090277E+02  0.28570090277E+02  0.00000000000E+00 0. -1.
         25    2    1    2    0    0 -0.63715852657E+02  0.14134035005E+02  0.51442055131E+03  0.53341979431E+03  0.12509473422E+03 0.  0.
          5    1    3    3  502    0  0.11698702063E+02  0.12872956148E+02  0.37003344348E+03  0.37046564527E+03  0.41800000000E+01 0. -1.
         -5    1    3    3    0  502 -0.75414554720E+02  0.12610788571E+01  0.14438710783E+03  0.16295414904E+03  0.41800000000E+01 0. -1.
        -11    1    1    2    0    0  0.19181959094E+02 -0.50445790815E+02  0.71115446604E+02  0.89275596393E+02  0.00000000000E+00 0.  1.
         11    1    1    2    0    0  0.44533893563E+02  0.36311755811E+02  0.72634258489E+02  0.92615046252E+02  0.00000000000E+00 0. -1.
</event>
<event>
 7    1  0.2688177E-009  0.1202097E+03  0.7561462E-02  0.1242752E+00
          1   -1    0    0  501    0  0.00000000000E+00  0.00000000000E+00  0.25909447418E+02  0.25909447418E+02  0.00000000000E+00 0. -1.
         -1   -1    0    0    0  501 -0.00000000000E+00 -0.00000000000E+00 -0.66607924923E+03  0.66607924923E+03  0.00000000000E+00 0.  1.
         25    2    1    2    0    0  0.44082739896E+02 -0.39037080063E+02 -0.47372155185E+03  0.49348490644E+03  0.12509221647E+03 0.  0.
          5    1    3    3  502    0  0.34489976261E+02 -0.82127190133E+02 -0.37163618714E+03  0.38218498377E+03  0.41800000000E+01 0.  1.
         -5    1    3    3    0  502  0.95927636353E+01  0.43090110070E+02 -0.10208536471E+03  0.11129992268E+03  0.41800000000E+01 0.  1.
        -11    1    1    2    0    0 -0.72685227713E+00 -0.27487901875E+02 -0.56985214932E+02  0.63272646417E+02  0.00000000000E+00 0.  1.
         11    1    1    2    0    0 -0.43355887619E+02  0.66524981938E+02 -0.10946303502E+03  0.13523114379E+03  0.00000000000E+00 0. -1.
</event>
<event>
 7    1  0.2688177E-009  0.1022866E+03  0.7561462E-02  0.1275560E+00
          2   -1    0    0  501    0  0.00000000000E+00  0.00000000000E+00  0.53358067937E+03  0.53358067937E+03  0.00000000000E+00 0. -1.
         -2   -1    0    0    0  501 -0.00000000000E+00 -0.00000000000E+00 -0.31420148901E+02  0.31420148901E+02  0.00000000000E+00 0.  1.
         25    2    1    2    0    0  0.40535314850E+02  0.14353683874E+01  0.40393045731E+03  0.42479696181E+03  0.12508985726E+03 0.  0.
          5    1    3    3  502    0 -0.20919094806E+02 -0.47977630685E+02  0.15703048959E+03  0.16557629249E+03  0.41800000000E+01 0. -1.
         -5    1    3    3    0  502  0.61454409656E+02  0.49412999073E+02  0.24689996772E+03  0.25922066932E+03  0.41800000000E+01 0. -1.
        -11    1    1    2    0    0  0.14949357438E+02 -0.84522072684E+01 -0.89086857909E+01  0.19346518499E+02  0.00000000000E+00 0.  1.
         11    1    1    2    0    0 -0.55484672288E+02  0.70168388810E+01  0.10713875896E+03  0.12085734797E+03  0.00000000000E+00 0. -1.
</event>
<event>
 7    1  0.2688177E-009  0.1063374E+03  0.7561462E-02  0.1267507E+00
         -1   -1    0    0    0  501 -0.00000000000E+00  0.00000000000E+00  0.12428925230E+02  0.12428925230E+02  0.00000000000E+00 0.  1.
          1   -1    0    0  501    0  0.00000000000E+00 -0.00000000000E+00 -0.10814846375E+04  0.10814846375E+04  0.00000000000E+00 0. -1.
         25    2    1    2    0    0  0.25494522506E+01  0.21779247395E+02 -0.77607318537E+03  0.78639594525E+03  0.12509259897E+03 0.  0.
          5    1    3    3  502    0  0.56354542059E+02  0.37320966896E+02 -0.50872818747E+03  0.51321587086E+03  0.41800000000E+01 0. -1.
         -5    1    3    3    0  502 -0.53805089809E+02 -0.15541719501E+02 -0.26734499791E+03  0.27318007438E+03  0.41800000000E+01 0. -1.
        -11    1    1    2    0    0  0.14960209024E+01  0.33416122296E+02 -0.67378978625E+02  0.75225009594E+02  0.00000000000E+00 0.  1.
         11    1    1    2    0    0 -0.40454731530E+01 -0.55195369690E+02 -0.22560354827E+03  0.23229260789E+03  0.00000000000E+00 0. -1.
</event>
<event>
 7    1  0.2688177E-009  0.6861763E+02  0.7561462E-02  0.1364858E+00
         -3   -1    0    0    0  501 -0.00000000000E+00  0.00000000000E+00  0.29157224492E+03  0.29157224492E+03  0.00000000000E+00 0.  1.
          3   -1    0    0  501    0  0.00000000000E+00 -0.00000000000E+00 -0.54850028233E+02  0.54850028233E+02  0.00000000000E+00 0. -1.
         25    2    1    2    0    0 -0.60200764129E+01  0.15626257175E+02  0.46753798392E+02  0.13457882166E+03  0.12508045547E+03 0.  0.
          5    1    3    3  502    0  0.11633525105E+02  0.22116006084E+02 -0.39099090925E+02  0.46590427585E+02  0.41800000000E+01 0. -1.
         -5    1    3    3    0  502 -0.17653601518E+02 -0.64897489083E+01  0.85852889317E+02  0.87988394072E+02  0.41800000000E+01 0. -1.
        -11    1    1    2    0    0 -0.11354665834E+02 -0.51518465586E+02  0.91694286099E+02  0.10578715818E+03  0.00000000000E+00 0.  1.
         11    1    1    2    0    0  0.17374742247E+02  0.35892208411E+02  0.98274132192E+02  0.10605629331E+03  0.00000000000E+00 0. -1.
</event>
<event>
 7    1  0.2688177E-009  0.1014012E+03  0.7561462E-02  0.1277377E+00
          3   -1    0    0  501    0  0.00000000000E+00  0.00000000000E+00  0.47872743211E+03  0.47872743211E+03  0.00000000000E+00 0. -1.
         -3   -1    0    0    0  501 -0.00000000000E+00 -0.00000000000E+00 -0.32208069914E+02  0.32208069914E+02  0.00000000000E+00 0.  1.
         25    2    1    2    0    0  0.13420596662E+02  0.35871972206E+02  0.15325760321E+03  0.20149819366E+03  0.12508684304E+03 0.  0.
          5    1    3    3  502    0  0.43488269405E+02 -0.31085540811E+02  0.41841674539E+02  0.68012782266E+02  0.41800000000E+01 0.  1.
         -5    1    3    3    0  502 -0.30067672743E+02  0.66957513017E+02  0.11141592867E+03  0.13348541139E+03  0.41800000000E+01 0.  1.
        -11    1    1    2    0    0  0.24990288945E+02 -0.31149477429E+01  0.21760355745E+02  0.33282585884E+02  0.00000000000E+00 0.  1.
         11    1    1    2    0    0 -0.38410885607E+02 -0.32757024463E+02  0.27150140325E+03  0.27615472249E+03  0.00000000000E+00 0. -1.
</event>
<event>
 7    1  0.2688177E-009  0.8595291E+02  0.7561462E-02  0.1312959E+00
         -1   -1    0    0    0  501 -0.00000000000E+00  0.00000000000E+00  0.60952770397E+02  0.60952770397E+02  0.00000000000E+00 0.  1.
          1   -1    0    0  501    0  0.00000000000E+00 -0.00000000000E+00 -0.27321735782E+03  0.27321735782E+03  0.00000000000E+00 0. -1.
         25    2    1    2    0    0  0.11032134630E+02 -0.27767301357E+02 -0.37910312807E+02  0.13408226594E+03  0.12509249059E+03 0.  0.
          5    1    3    3  502    0  0.44677252220E+02  0.95569530617E+01 -0.62861267151E+02  0.77822898465E+02  0.41800000000E+01 0. -1.
         -5    1    3    3    0  502 -0.33645117590E+02 -0.37324254419E+02  0.24950954344E+02  0.56259367471E+02  0.41800000000E+01 0. -1.
        -11    1    1    2    0    0 -0.14955687327E+01  0.50723155079E+02 -0.43333390990E+02  0.66729738210E+02  0.00000000000E+00 0.  1.
         11    1    1    2    0    0 -0.95365658973E+01 -0.22955853721E+02 -0.13102088363E+03  0.13335812407E+03  0.00000000000E+00 0. -1.
</event>
<event>
 7    1  0.2688177E-009  0.9924679E+02  0.7561462E-02  0.1281888E+00
         -1   -1    0    0    0  501 -0.00000000000E+00  0.00000000000E+00  0.27003416756E+02  0.27003416756E+02  0.00000000000E+00 0.  1.
          1   -1    0    0  501    0  0.00000000000E+00 -0.00000000000E+00 -0.65177737740E+03  0.65177737740E+03  0.00000000000E+00 0. -1.
         25    2    1    2    0    0  0.19408716667E+02 -0.68451217244E+02 -0.41499341645E+03  0.43923796043E+03  0.12509269669E+03 0.  0.
          5    1    3    3  502    0 -0.22702866565E+02 -0.68388240291E+02 -0.37190172147E+03  0.37884130503E+03  0.41800000000E+01 0.  1.
         -5    1    3    3    0  502  0.42111583231E+02 -0.62976952243E-01 -0.43091694971E+02  0.60396655403E+02  0.41800000000E+01 0.  1.
        -11    1    1    2    0    0 -0.11188216426E+02 -0.33862831546E+01  0.51515181784E+01  0.12774241267E+02  0.00000000000E+00 0.  1.
         11    1    1    2    0    0 -0.82205002407E+01  0.71837500398E+02 -0.21493206237E+03  0.22676859245E+03  0.00000000000E+00 0. -1.
</event>
<event>
 7    1  0.2688177E-009  0.2091400E+03  0.7561462E-02  0.1142249E+00
          2   -1    0    0  501    0  0.00000000000E+00  0.00000000000E+00  0.58386127428E+02  0.58386127428E+02  0.00000000000E+00 0. -1.
         -2   -1    0    0    0  501 -0.00000000000E+00 -0.00000000000E+00 -0.87839658594E+03  0.87839658594E+03  0.00000000000E+00 0.  1.
         25    2    1    2    0    0 -0.45769539297E+02 -0.17240056447E+03 -0.60323586196E+03  0.64137206264E+03  0.12509121559E+03 0.  0.
          5    1    3    3  502    0  0.42626690220E+02 -0.74132016976E+02 -0.23929242570E+03  0.25414745337E+03  0.41800000000E+01 0. -1.
         -5    1    3    3    0  502 -0.88396229517E+02 -0.98268547492E+02 -0.36394343626E+03  0.38722460926E+03  0.41800000000E+01 0. -1.
        -11    1    1    2    0    0  0.72786023710E+02  0.10455703637E+03 -0.14505242684E+03  0.19305487726E+03  0.00000000000E+00 0.  1.
         11    1    1    2    0    0 -0.27016484413E+02  0.67843528097E+02 -0.71722169707E+02  0.10235577347E+03  0.00000000000E+00 0. -1.
</event>
<event>
 7    1  0.2688177E-009  0.1154477E+03  0.7561462E-02  0.1250802E+00
         -1   -1    0    0    0  501 -0.00000000000E+00  0.00000000000E+00  0.41793630832E+02  0.41793630832E+02  0.00000000000E+00 0.  1.
          1   -1    0    0  501    0  0.00000000000E+00 -0.00000000000E+00 -0.49635195673E+03  0.49635195673E+03  0.00000000000E+00 0. -1.
         25    2    1    2    0    0  0.72556944247E+02  0.36858467448E+02 -0.15607663176E+03  0.21593904506E+03  0.12508676756E+03 0.  0.
          5    1    3    3  502    0  0.96770478886E+02  0.35577183890E+02 -0.65829710769E+02  0.12239805888E+03  0.41800000000E+01 0. -1.
         -5    1    3    3    0  502 -0.24213534639E+02  0.12812835574E+01 -0.90246920989E+02  0.93540986178E+02  0.41800000000E+01 0. -1.
        -11    1    1    2    0    0  0.74751893224E+01 -0.19949041449E+02 -0.12376821743E+02  0.24637946883E+02  0.00000000000E+00 0.  1.
         11    1    1    2    0    0 -0.80032133569E+02 -0.16909425999E+02 -0.28610487239E+03  0.29756859562E+03  0.00000000000E+00 0. -1.
</event>
<event>
 7    1  0.2688177E-009  0.1037247E+03  0.7561462E-02  0.1272653E+00
          1   -1    0    0  501    0  0.00000000000E+00  0.00000000000E+00  0.59013749289E+02  0.59013749289E+02  0.00000000000E+00 0. -1.
         -1   -1    0    0    0  501 -0.00000000000E+00 -0.00000000000E+00 -0.38574336784E+03  0.38574336784E+03  0.00000000000E+00 0.  1.
         25    2    1    2    0    0  0.77359144778E+02  0.13084220465E+02 -0.27848396162E+03  0.31520547488E+03  0.12508213464E+03 0.  0.
          5    1    3    3  502    0  0.23928206478E+02 -0.29320468994E+02 -0.22560531433E+03  0.22879571504E+03  0.41800000000E+01 0.  1.
         -5    1    3    3    0  502  0.53430938300E+02  0.42404689459E+02 -0.52878647294E+02  0.86409759839E+02  0.41800000000E+01 0.  1.
        -11    1    1    2    0    0 -0.58402026926E+02  0.20974405246E+02 -0.62475653114E+02  0.88056400429E+02  0.00000000000E+00 0.  1.
         11    1    1    2    0    0 -0.18957117852E+02 -0.34058625712E+02  0.14229996184E+02  0.41495241824E+02  0.00000000000E+00 0. -1.
</event>
<event>
 7    1  0.2688177E-009  0.9834255E+02  0.7561462E-02  0.1283820E+00
         -1   -1    0    0    0  501 -0.00000000000E+00  0.00000000000E+00  0.64239367148E+02  0.64239367148E+02  0.00000000000E+00 0.  1.
          1   -1    0    0  501    0  0.00000000000E+00 -0.00000000000E+00 -0.24320745559E+03  0.24320745559E+03  0.00000000000E+00 0. -1.
         25    2    1    2    0    0  0.47189815478E+02  0.38978167373E+02 -0.11153588942E+03  0.17841737391E+03  0.12508528478E+03 0.  0.
          5    1    3    3  502    0  0.86552215051E+02  0.12739406775E+02 -0.92121363397E+02  0.12711174772E+03  0.41800000000E+01 0.  1.
         -5    1    3    3    0  502 -0.39362399573E+02  0.26238760598E+02 -0.19414526025E+02  0.51305626189E+02  0.41800000000E+01 0.  1.
        -11    1    1    2    0    0 -0.20107769953E+02 -0.12171972494E+02 -0.84184546131E+02  0.87404331323E+02  0.00000000000E+00 0. -1.
         11    1    1    2    0    0 -0.27082045525E+02 -0.26806194879E+02  0.16752347106E+02  0.41625117505E+02  0.00000000000E+00 0.  1.
</event>
<event>
 7    1  0.2688177E-009  0.8451103E+02  0.7561462E-02  0.1316716E+00
         -1   -1    0    0    0  501 -0.00000000000E+00  0.00000000000E+00  0.23836248438E+02  0.23836248438E+02  0.00000000000E+00 0.  1.
          1   -1    0    0  501    0  0.00000000000E+00 -0.00000000000E+00 -0.63282258847E+03  0.63282258847E+03  0.00000000000E+00 0. -1.
         25    2    1    2    0    0 -0.18022785344E+02 -0.47621088009E+02 -0.26327427378E+03  0.29589390537E+03  0.12508905302E+03 0.  0.
          5    1    3    3  502    0 -0.40874809554E+02 -0.44016189993E+02 -0.26553478286E+03  0.27227627210E+03  0.41800000000E+01 0. -1.
         -5    1    3    3    0  502  0.22852024210E+02 -0.36048980158E+01  0.22605090798E+01  0.23617633274E+02  0.41800000000E+01 0. -1.
        -11    1    1    2    0    0 -0.13961801964E+02 -0.11495316012E+02 -0.15612809681E+02  0.23892133233E+02  0.00000000000E+00 0.  1.
         11    1    1    2    0    0  0.31984587308E+02  0.59116404021E+02 -0.33009925656E+03  0.33687279830E+03  0.00000000000E+00 0. -1.
</event>
<event>
 7    1  0.2688177E-009  0.9101284E+02  0.7561462E-02  0.1300417E+00
          1   -1    0    0  501    0  0.00000000000E+00  0.00000000000E+00  0.50816925924E+02  0.50816925924E+02  0.00000000000E+00 0. -1.
         -1   -1    0    0    0  501 -0.00000000000E+00 -0.00000000000E+00 -0.26889540353E+03  0.26889540353E+03  0.00000000000E+00 0.  1.
         25    2    1    2    0    0 -0.44307605153E+00 -0.22487070793E+02 -0.73604264966E+02  0.14687093275E+03  0.12509044086E+03 0.  0.
          5    1    3    3  502    0 -0.14198288250E+02  0.33844676957E+02 -0.80261209535E+02  0.88353764513E+02  0.41800000000E+01 0. -1.
         -5    1    3    3    0  502  0.13755212199E+02 -0.56331747750E+02  0.66569445691E+01  0.58517168234E+02  0.41800000000E+01 0. -1.
        -11    1    1    2    0    0  0.42197399289E+02  0.12627843367E+02 -0.38457230360E+02  0.58472570508E+02  0.00000000000E+00 0. -1.
         11    1    1    2    0    0 -0.41754323237E+02  0.98592274254E+01 -0.10601698228E+03  0.11436882620E+03  0.00000000000E+00 0.  1.
</event>
<event>
 7    1  0.2688177E-009  0.3702335E+03  0.7561462E-02  0.1054604E+00
         -2   -1    0    0    0  501 -0.00000000000E+00  0.00000000000E+00  0.22490722011E+03  0.22490722011E+03  0.00000000000E+00 0.  1.
          2   -1    0    0  501    0  0.00000000000E+00 -0.00000000000E+00 -0.62735144621E+03  0.62735144621E+03  0.00000000000E+00 0. -1.
         25    2    1    2    0    0 -0.35755697914E+03  0.27986070182E+02 -0.17899918406E+03  0.41990372265E+03  0.12509282529E+03 0.  0.
          5    1    3    3  502    0 -0.12797205608E+03  0.63038623492E+02 -0.10113143715E+03  0.17491642339E+03  0.41800000000E+01 0.  1.
         -5    1    3    3    0  502 -0.22958492306E+03 -0.35052553310E+02 -0.77867746904E+02  0.24498729926E+03  0.41800000000E+01 0.  1.
        -11    1    1    2    0    0  0.15289676754E+03  0.22831304183E+02 -0.61106305209E+02  0.16623077486E+03  0.00000000000E+00 0.  1.
         11    1    1    2    0    0  0.20466021160E+03 -0.50817374365E+02 -0.16233873684E+03  0.26612416882E+03  0.00000000000E+00 0. -1.
</event>
<event>
 7    1  0.2688177E-009  0.1422990E+03  0.7561462E-02  0.1210269E+00
          2   -1    0    0  501    0  0.00000000000E+00  0.00000000000E+00  0.40309751765E+03  0.40309751765E+03  0.00000000000E+00 0. -1.
         -2   -1    0    0    0  501 -0.00000000000E+00 -0.00000000000E+00 -0.67771541035E+02  0.67771541035E+02  0.00000000000E+00 0.  1.
         25    2    1    2    0    0  0.38395662631E+02  0.10507674274E+03  0.25486250466E+03  0.30515134635E+03  0.12508836525E+03 0.  0.
          5    1    3    3  502    0 -0.12092852640E+02 -0.85055738790E+01  0.12275569429E+03  0.12371343805E+03  0.41800000000E+01 0. -1.
         -5    1    3    3    0  502  0.50488515271E+02  0.11358231662E+03  0.13210681037E+03  0.18143790830E+03  0.41800000000E+01 0. -1.
        -11    1    1    2    0    0 -0.64656116002E+02 -0.43512085402E+02  0.42484538171E+02  0.88761764832E+02  0.00000000000E+00 0. -1.
         11    1    1    2    0    0  0.26260453371E+02 -0.61564657342E+02  0.37978933778E+02  0.76955947501E+02  0.00000000000E+00 0.  1.
</event>
<event>
 7    1  0.2688177E-009  0.1199072E+03  0.7561462E-02  0.1243250E+00
          3   -1    0    0  501    0  0.00000000000E+00  0.00000000000E+00  0.79677139477E+03  0.79677139477E+03  0.00000000000E+00 0. -1.
         -3   -1    0    0    0  501 -0.00000000000E+00 -0.00000000000E+00 -0.20897879497E+02  0.20897879497E+02  0.00000000000E+00 0.  1.
         25    2    1    2    0    0 -0.38928310103E+02 -0.53182704245E+02  0.39551958313E+03  0.42003302288E+03  0.12509271088E+03 0.  0.
          5    1    3    3  502    0  0.32229074140E+02 -0.59117025043E+02  0.23072706818E+03  0.24038716326E+03  0.41800000000E+01 0. -1.
         -5    1    3    3    0  502 -0.71157384243E+02  0.59343207979E+01  0.16479251495E+03  0.17964585962E+03  0.41800000000E+01 0. -1.
        -11    1    1    2    0    0 -0.14283320129E+02  0.44720650643E+02  0.82273089189E+02  0.94724922975E+02  0.00000000000E+00 0.  1.
         11    1    1    2    0    0  0.53211630232E+02  0.84620536020E+01  0.29808084295E+03  0.30291132841E+03  0.00000000000E+00 0. -1.
</event>
<event>
 7    1  0.2688177E-009  0.1319611E+03  0.7561462E-02  0.1224574E+00
          1   -1    0    0  501    0  0.00000000000E+00  0.00000000000E+00  0.49210795554E+02  0.49210795554E+02  0.00000000000E+00 0. -1.
         -1   -1    0    0    0  501 -0.00000000000E+00 -0.00000000000E+00 -0.61059333426E+03  0.61059333426E+03  0.00000000000E+00 0.  1.
         25    2    1    2    0    0  0.14617684536E+02  0.12393455609E+03 -0.20048369765E+03  0.26723543882E+03  0.12509043066E+03 0.  0.
          5    1    3    3  502    0  0.34375488562E+02  0.64952381444E+02 -0.19033384174E+03  0.20407089401E+03  0.41800000000E+01 0.  1.
         -5    1    3    3    0  502 -0.19757804026E+02  0.58982174649E+02 -0.10149855909E+02  0.63164544812E+02  0.41800000000E+01 0.  1.
        -11    1    1    2    0    0 -0.28429467836E+01 -0.10860408492E+03 -0.35657817831E+03  0.37276121962E+03  0.00000000000E+00 0.  1.
         11    1    1    2    0    0 -0.11774737752E+02 -0.15330471171E+02 -0.43206627437E+01  0.19807471369E+02  0.00000000000E+00 0. -1.
</event>
<event>
 7    1  0.2688177E-009  0.2024644E+03  0.7561462E-02  0.1147676E+00
          1   -1    0    0  501    0  0.00000000000E+00  0.00000000000E+00  0.14322068697E+04  0.14322068697E+04  0.00000000000E+00 0. -1.
         -1   -1    0    0    0  501 -0.00000000000E+00 -0.00000000000E+00 -0.30182028203E+02  0.30182028203E+02  0.00000000000E+00 0.  1.
         25    2    1    2    0    0  0.16373523827E+02 -0.17886270828E+03  0.79239795871E+03  0.82207267480E+03  0.12509595109E+03 0.  0.
          5    1    3    3  502    0  0.63801994043E+02 -0.92439914146E+02  0.52878556783E+03  0.54059918731E+03  0.41800000000E+01 0. -1.
         -5    1    3    3    0  502 -0.47428470216E+02 -0.86422794138E+02  0.26361239088E+03  0.28147348749E+03  0.41800000000E+01 0. -1.
        -11    1    1    2    0    0  0.83538350216E+01  0.16558146802E+03  0.54938832575E+03  0.57385933955E+03  0.00000000000E+00 0.  1.
         11    1    1    2    0    0 -0.24727358849E+02  0.13281240265E+02  0.60238556997E+02  0.66456883524E+02  0.00000000000E+00 0. -1.
</event>
<event>
 7    1  0.2688177E-009  0.1219305E+03  0.7561462E-02  0.1239946E+00
          1   -1    0    0  501    0  0.00000000000E+00  0.00000000000E+00  0.23302278625E+02  0.23302278625E+02  0.00000000000E+00 0. -1.
         -1   -1    0    0    0  501 -0.00000000000E+00 -0.00000000000E+00 -0.80259046144E+03  0.80259046144E+03  0.00000000000E+00 0.  1.
         25    2    1    2    0    0  0.40022153497E+02 -0.70444772853E+02 -0.49160392117E+03  0.51370279080E+03  0.12510756639E+03 0.  0.
          5    1    3    3  502    0  0.78526756916E+02 -0.29961646081E+02 -0.37514882124E+03  0.38447140630E+03  0.41800000000E+01 0. -1.
         -5    1    3    3    0  502 -0.38504603418E+02 -0.40483126772E+02 -0.11645509994E+03  0.12923138450E+03  0.41800000000E+01 0. -1.
        -11    1    1    2    0    0 -0.53824034033E+02  0.71888325485E+02 -0.28395888795E+03  0.29782143648E+03  0.00000000000E+00 0.  1.
         11    1    1    2    0    0  0.13801880536E+02 -0.14435526324E+01 -0.37253736882E+01  0.14368512785E+02  0.00000000000E+00 0. -1.
</event>
<event>
 7    1  0.2688177E-009  0.1178810E+03  0.7561462E-02  0.1246634E+00
         -1   -1    0    0    0  501 -0.00000000000E+00  0.00000000000E+00  0.37817397757E+02  0.37817397757E+02  0.00000000000E+00 0.  1.
          1   -1    0    0  501    0  0.00000000000E+00 -0.00000000000E+00 -0.59993297795E+03  0.59993297795E+03  0.00000000000E+00 0. -1.
         25    2    1    2    0    0  0.62315697914E+02 -0.78872912055E+02 -0.37876879193E+03  0.41136174909E+03  0.12509399832E+03 0.  0.
          5    1    3    3  502    0  0.64437221643E+02 -0.93889020627E+02 -0.18724316159E+03  0.21919118981E+03  0.41800000000E+01 0. -1.
         -5    1    3    3    0  502 -0.21215237282E+01  0.15016108571E+02 -0.19152563034E+03  0.19217055928E+03  0.41800000000E+01 0. -1.
        -11    1    1    2    0    0 -0.22938908642E+02  0.56062328860E+02 -0.16763937336E+03  0.17824740600E+03  0.00000000000E+00 0. -1.
         11    1    1    2    0    0 -0.39376789273E+02  0.22810583195E+02 -0.15707414909E+02  0.48141220614E+02  0.00000000000E+00 0.  1.
</event>
<event>
 7    1  0.2688177E-009  0.1542224E+03  0.7561462E-02  0.1195378E+00
          2   -1    0    0  501    0  0.00000000000E+00  0.00000000000E+00  0.42283331221E+03  0.42283331221E+03  0.00000000000E+00 0.  1.
         -2   -1    0    0    0  501 -0.00000000000E+00 -0.00000000000E+00 -0.74773142794E+02  0.74773142794E+02  0.00000000000E+00 0. -1.
         25    2    1    2    0    0 -0.12194282636E+03 -0.30396556877E+02  0.94857183056E+02  0.20109636379E+03  0.12509140172E+03 0.  0.
          5    1    3    3  502    0  0.17384295701E+02 -0.13603325043E+02  0.48149675206E+02  0.53133114079E+02  0.41800000000E+01 0.  1.
         -5    1    3    3    0  502 -0.13932712206E+03 -0.16793231834E+02  0.46707507850E+02  0.14796324971E+03  0.41800000000E+01 0.  1.
        -11    1    1    2    0    0  0.90760153424E+02 -0.13476358853E+02  0.20357343788E+03  0.22329613142E+03  0.00000000000E+00 0.  1.
         11    1    1    2    0    0  0.31182672931E+02  0.43872915730E+02  0.49629548476E+02  0.73213959787E+02  0.00000000000E+00 0. -1.
</event>
<event>
 7    1  0.2688177E-009  0.2980298E+03  0.7561462E-02  0.1086230E+00
         -2   -1    0    0    0  501 -0.00000000000E+00  0.00000000000E+00  0.29834208961E+03  0.29834208961E+03  0.00000000000E+00 0.  1.
          2   -1    0    0  501    0  0.00000000000E+00 -0.00000000000E+00 -0.33272442725E+03  0.33272442725E+03  0.00000000000E+00 0. -1.
         25    2    1    2    0    0 -0.28860931422E+03  0.46791654743E+02 -0.59510864657E+02  0.32353413327E+03  0.12509195486E+03 0.  0.
          5    1    3    3  502    0 -0.23800566576E+03  0.57167500625E+02 -0.25300302947E+00  0.24481085857E+03  0.41800000000E+01 0.  1.
         -5    1    3    3    0  502 -0.50603648457E+02 -0.10375845882E+02 -0.59257861628E+02  0.78723274701E+02  0.41800000000E+01 0.  1.
        -11    1    1    2    0    0  0.15101229594E+03 -0.57086206521E+02  0.46266987542E+02  0.16794100940E+03  0.00000000000E+00 0.  1.
         11    1    1    2    0    0  0.13759701828E+03  0.10294551778E+02 -0.21138460531E+02  0.13959137419E+03  0.00000000000E+00 0. -1.
</event>
<event>
 7    1  0.2688177E-009  0.9622881E+02  0.7561462E-02  0.1288432E+00
          2   -1    0    0  501    0  0.00000000000E+00  0.00000000000E+00  0.48747473868E+02  0.48747473868E+02  0.00000000000E+00 0. -1.
         -2   -1    0    0    0  501 -0.00000000000E+00 -0.00000000000E+00 -0.43896165079E+03  0.43896165079E+03  0.00000000000E+00 0.  1.
         25    2    1    2    0    0  0.54153424621E+02  0.48731694215E+02 -0.10426052524E+03  0.17840257361E+03  0.12509935943E+03 0.  0.
          5    1    3    3  502    0  0.26298574588E+02  0.33194261633E+02  0.22142070293E+02  0.47971009033E+02  0.41800000000E+01 0. -1.
         -5    1    3    3    0  502  0.27854850033E+02  0.15537432582E+02 -0.12640259553E+03  0.13043156458E+03  0.41800000000E+01 0. -1.
        -11    1    1    2    0    0  0.48614939947E+01 -0.57819846732E+02 -0.14919289012E+03  0.16007900319E+03  0.00000000000E+00 0. -1.
         11    1    1    2    0    0 -0.59014918616E+02  0.90881525174E+01 -0.13676076157E+03  0.14922754786E+03  0.00000000000E+00 0.  1.
</event>
<event>
 7    1  0.2688177E-009  0.2111002E+03  0.7561462E-02  0.1140698E+00
          1   -1    0    0  501    0  0.00000000000E+00  0.00000000000E+00  0.11704769374E+04  0.11704769374E+04  0.00000000000E+00 0. -1.
         -1   -1    0    0    0  501 -0.00000000000E+00 -0.00000000000E+00 -0.40505170675E+02  0.40505170675E+02  0.00000000000E+00 0.  1.
         25    2    1    2    0    0 -0.18346392908E+03  0.32880870172E+02  0.63985794382E+03  0.67808963986E+03  0.12508879455E+03 0.  0.
          5    1    3    3  502    0 -0.17316136594E+03 -0.15105667689E+02  0.52728598194E+03  0.55521258901E+03  0.41800000000E+01 0. -1.
         -5    1    3    3    0  502 -0.10302563135E+02  0.47986537861E+02  0.11257196188E+03  0.12287705085E+03  0.41800000000E+01 0. -1.
        -11    1    1    2    0    0  0.13059604553E+03  0.10032934446E+02  0.39325174121E+03  0.41449115653E+03  0.00000000000E+00 0.  1.
         11    1    1    2    0    0  0.52867883547E+02 -0.42913804617E+02  0.96862081718E+02  0.11840131170E+03  0.00000000000E+00 0. -1.
</event>
<event>
 7    1  0.2688177E-009  0.1085008E+03  0.7561462E-02  0.1263372E+00
         -3   -1    0    0    0  501 -0.00000000000E+00  0.00000000000E+00  0.12216853690E+03  0.12216853690E+03  0.00000000000E+00 0.  1.
          3   -1    0    0  501    0  0.00000000000E+00 -0.00000000000E+00 -0.15660052693E+03  0.15660052693E+03  0.00000000000E+00 0. -1.
         25    2    1    2    0    0 -0.59951598131E+02  0.45284311898E+02  0.23462787407E+02  0.14779344825E+03  0.12509011924E+03 0.  0.
          5    1    3    3  502    0 -0.45763495752E+02 -0.13681511382E+02 -0.38123651941E+02  0.61256563195E+02  0.41800000000E+01 0. -1.
         -5    1    3    3    0  502 -0.14188102379E+02  0.58965823279E+02  0.61586439347E+02  0.86536885058E+02  0.41800000000E+01 0. -1.
        -11    1    1    2    0    0 -0.18070690347E+02 -0.41383110034E-01 -0.32651748598E+02  0.37318738574E+02  0.00000000000E+00 0. -1.
         11    1    1    2    0    0  0.78022288479E+02 -0.45242928788E+02 -0.25243028839E+02  0.93656877002E+02  0.00000000000E+00 0.  1.
</event>
<event>
 7    1  0.3474294E-009  0.1165684E+03  0.7561462E-02  0.1248868E+00
         -2   -1    0    0    0  501 -0.00000000000E+00  0.00000000000E+00  0.47553388118E+02  0.47553388118E+02  0.00000000000E+00 0.  1.
          2   -1    0    0  501    0  0.00000000000E+00 -0.00000000000E+00 -0.49276403528E+03  0.49276403528E+03  0.00000000000E+00 0. -1.
         25    2    1    2    0    0  0.78596635594E+02  0.71484841210E+02 -0.26806553867E+03  0.31431750603E+03  0.12509535533E+03 0.  0.
          5    1    3    3  502    0 -0.25311893852E+01  0.32170495413E+02 -0.11525909879E+01  0.32559922617E+02  0.41800000000E+01 0.  1.
         -5    1    3    3    0  502  0.81127824979E+02  0.39314345797E+02 -0.26691294768E+03  0.28175758341E+03  0.41800000000E+01 0.  1.
        -11    1    1    2    0    0 -0.27157478766E+02 -0.44828215382E+02 -0.16067892925E+02  0.54820386083E+02  0.00000000000E+00 0.  1.
         11    1    1    2    0    0 -0.51439156829E+02 -0.26656625829E+02 -0.16107721556E+03  0.17117953128E+03  0.00000000000E+00 0. -1.
</event>
<event>
 7    1  0.2688177E-009  0.8231027E+02  0.7561462E-02  0.1322620E+00
          2   -1    0    0  501    0  0.00000000000E+00  0.00000000000E+00  0.28289005964E+03  0.28289005964E+03  0.00000000000E+00 0. -1.
         -2   -1    0    0    0  501 -0.00000000000E+00 -0.00000000000E+00 -0.51670169995E+02  0.51670169995E+02  0.00000000000E+00 0.  1.
         25    2    1    2    0    0  0.11120342164E+02  0.28214480958E+02  0.19227472900E+03  0.23137807069E+03  0.12508605534E+03 0.  0.
          5    1    3    3  502    0 -0.40990963630E+02  0.49645039867E+02  0.14108656521E+03  0.15513793980E+03  0.41800000000E+01 0. -1.
         -5    1    3    3    0  502  0.52111305794E+02 -0.21430558909E+02  0.51188163786E+02  0.76240130892E+02  0.41800000000E+01 0. -1.
        -11    1    1    2    0    0  0.10258194566E+02 -0.33042414151E+01  0.62089070400E+02  0.63017467660E+02  0.00000000000E+00 0. -1.
         11    1    1    2    0    0 -0.21378536730E+02 -0.24910239543E+02 -0.23143909755E+02  0.40164691279E+02  0.00000000000E+00 0.  1.
</event>
<event>
 7    1  0.2688177E-009  0.7463537E+02  0.7561462E-02  0.1345004E+00
         -2   -1    0    0    0  501 -0.00000000000E+00  0.00000000000E+00  0.10075152580E+03  0.10075152580E+03  0.00000000000E+00 0.  1.
          2   -1    0    0  501    0  0.00000000000E+00 -0.00000000000E+00 -0.22531531779E+03  0.22531531779E+03  0.00000000000E+00 0. -1.
         25    2    1    2    0    0  0.37987136082E+02  0.32188711094E+02 -0.16774921842E+03  0.21509644668E+03  0.12509014934E+03 0.  0.
          5    1    3    3  502    0  0.13006815559E+02  0.52837448667E+02 -0.11899108464E+02  0.55857268236E+02  0.41800000000E+01 0.  1.
         -5    1    3    3    0  502  0.24980320522E+02 -0.20648737573E+02 -0.15585010996E+03  0.15923917844E+03  0.41800000000E+01 0.  1.
        -11    1    1    2    0    0 -0.21111315942E+02 -0.38574708020E+02  0.67580376956E+02  0.80627558000E+02  0.00000000000E+00 0.  1.
         11    1    1    2    0    0 -0.16875820140E+02  0.63859969267E+01 -0.24394950520E+02  0.30342838908E+02  0.00000000000E+00 0. -1.
</event>
<event>
 7    1  0.2688177E-009  0.1642995E+03  0.7561462E-02  0.1183926E+00
         -2   -1    0    0    0  501 -0.00000000000E+00  0.00000000000E+00  0.73341965399E+03  0.73341965399E+03  0.00000000000E+00 0.  1.
          2   -1    0    0  501    0  0.00000000000E+00 -0.00000000000E+00 -0.53832686043E+02  0.53832686043E+02  0.00000000000E+00 0. -1.
         25    2    1    2    0    0  0.65864678844E+02  0.12086037006E+03  0.54432922383E+03  0.57522900113E+03  0.12509482345E+03 0.  0.
          5    1    3    3  502    0 -0.27999578074E+02  0.62089575371E+02  0.28789443489E+03  0.29587120472E+03  0.41800000000E+01 0. -1.
         -5    1    3    3    0  502  0.93864256918E+02  0.58770794690E+02  0.25643478893E+03  0.27935779640E+03  0.41800000000E+01 0. -1.
        -11    1    1    2    0    0 -0.63403885734E+02 -0.55895080951E+02  0.11729283800E+03  0.14457497240E+03  0.00000000000E+00 0.  1.
         11    1    1    2    0    0 -0.24607931102E+01 -0.64965289111E+02  0.17964906127E+02  0.67448366504E+02  0.00000000000E+00 0. -1.
</event>
<event>
 7    1  0.2688177E-009  0.1039599E+03  0.7561462E-02  0.1272183E+00
         -3   -1    0    0    0  501 -0.00000000000E+00  0.00000000000E+00  0.63636368848E+02  0.63636368848E+02  0.00000000000E+00 0.  1.
          3   -1    0    0  501    0  0.00000000000E+00 -0.00000000000E+00 -0.36047615552E+03  0.36047615552E+03  0.00000000000E+00 0. -1.
         25    2    1    2    0    0  0.63619453319E+01  0.98330297661E+02 -0.10777771559E+03  0.19228219883E+03  0.12508831369E+03 0.  0.
          5    1    3    3  502    0 -0.16162128792E+02  0.34056632824E+02 -0.11739836034E+03  0.12337307671E+03  0.41800000000E+01 0. -1.
         -5    1    3    3    0  502  0.22524074124E+02  0.64273664837E+02  0.96206447440E+01  0.68909122125E+02  0.41800000000E+01 0. -1.
        -11    1    1    2    0    0  0.74054659753E+01 -0.68549694714E+02 -0.41088372413E+02  0.80263042050E+02  0.00000000000E+00 0.  1.
         11    1    1    2    0    0 -0.13767411307E+02 -0.29780602947E+02 -0.14797369867E+03  0.15156728349E+03  0.00000000000E+00 0. -1.
</event>
<event>
 7    1  0.2688177E-009  0.1255457E+03  0.7561462E-02  0.1234219E+00
          2   -1    0    0  501    0  0.00000000000E+00  0.00000000000E+00  0.63027191972E+03  0.63027191972E+03  0.00000000000E+00 0. -1.
         -2   -1    0    0    0  501 -0.00000000000E+00 -0.00000000000E+00 -0.25910739489E+02  0.25910739489E+02  0.00000000000E+00 0.  1.
         25    2    1    2    0    0 -0.49221782265E+02 -0.46574908101E+02  0.31173524480E+03  0.34266284463E+03  0.12508779448E+03 0.  0.
          5    1    3    3  502    0  0.40273832513E+02 -0.15582172363E+01  0.68741730207E+02  0.79795410257E+02  0.41800000000E+01 0.  1.
         -5    1    3    3    0  502 -0.89495614778E+02 -0.45016690865E+02  0.24299351459E+03  0.26286743437E+03  0.41800000000E+01 0.  1.
        -11    1    1    2    0    0 -0.25252806434E+02  0.15324793949E+02  0.10870357675E+03  0.11264555535E+03  0.00000000000E+00 0.  1.
         11    1    1    2    0    0  0.74474588699E+02  0.31250114152E+02  0.18392235869E+03  0.20087425923E+03  0.00000000000E+00 0. -1.
</event>
<event>
 7    1  0.2688177E-009  0.3109752E+03  0.7561462E-02  0.1079879E+00
         -2   -1    0    0    0  501 -0.00000000000E+00  0.00000000000E+00  0.18983143437E+03  0.18983143437E+03  0.00000000000E+00 0.  1.
          2   -1    0    0  501    0  0.00000000000E+00 -0.00000000000E+00 -0.86179959476E+03  0.86179959476E+03  0.00000000000E+00 0. -1.
         25    2    1    2    0    0 -0.24495548117E+03  0.17709537809E+03 -0.65843544057E+03  0.73522197550E+03  0.12509261832E+03 0.  0.
          5    1    3    3  502    0 -0.22416941118E+03  0.11408807354E+03 -0.43937340607E+03  0.50629485065E+03  0.41800000000E+01 0.  1.
         -5    1    3    3    0  502 -0.20786069996E+02  0.63007304552E+02 -0.21906203450E+03  0.22892712485E+03  0.41800000000E+01 0.  1.
        -11    1    1    2    0    0  0.64445319516E+02 -0.30165358522E+02 -0.40872672607E+02  0.82059267778E+02  0.00000000000E+00 0. -1.
         11    1    1    2    0    0  0.18051016166E+03 -0.14693001957E+03  0.27339952789E+02  0.23434978585E+03  0.00000000000E+00 0.  1.
</event>
<event>
 7    1  0.2688177E-009  0.1025682E+03  0.7561462E-02  0.1274986E+00
         -2   -1    0    0    0  501 -0.00000000000E+00  0.00000000000E+00  0.43462803923E+02  0.43462803923E+02  0.00000000000E+00 0. -1.
          2   -1    0    0  501    0  0.00000000000E+00 -0.00000000000E+00 -0.32889664986E+03  0.32889664986E+03  0.00000000000E+00 0.  1.
         25    2    1    2    0    0  0.24058545253E+02 -0.25493260465E+02 -0.10517912215E+03  0.16714458033E+03  0.12508374422E+03 0.  0.
          5    1    3    3  502    0 -0.31822531405E+02 -0.42066843495E+02 -0.93675196970E+02  0.10758628051E+03  0.41800000000E+01 0. -1.
         -5    1    3    3    0  502  0.55881076658E+02  0.16573583030E+02 -0.11503925181E+02  0.59558299820E+02  0.41800000000E+01 0. -1.
        -11    1    1    2    0    0  0.47815979859E+01 -0.30462842452E+02 -0.90309543061E+02  0.95428832213E+02  0.00000000000E+00 0.  1.
         11    1    1    2    0    0 -0.28840143238E+02  0.55956102917E+02 -0.89945180726E+02  0.10978604124E+03  0.00000000000E+00 0. -1.
</event>
<event>
 6    1  0.2688177E-009  0.8793606E+02  0.7561462E-02  0.1307928E+00
         -2   -1    0    0    0  501 -0.00000000000E+00  0.00000000000E+00  0.17199222832E+03  0.17199222832E+03  0.00000000000E+00 0.  1.
          2   -1    0    0  501    0  0.00000000000E+00 -0.00000000000E+00 -0.78295571039E+02  0.78295571039E+02  0.00000000000E+00 0. -1.
          5    1    1    2  502    0  0.64024302888E+02 -0.26904611206E+01 -0.68562011403E+01  0.64581962152E+02  0.41800000000E+01 0. -1.
         -5    1    1    2    0  502 -0.29938609983E+02 -0.48827607134E+01  0.77510280239E+02  0.83339532412E+02  0.41800000000E+01 0. -1.
        -11    1    1    2    0    0 -0.20195992584E+02  0.40522890514E+02  0.42118928627E+02  0.61838393581E+02  0.00000000000E+00 0.  1.
         11    1    1    2    0    0 -0.13889700320E+02 -0.32949668680E+02 -0.19076350444E+02  0.40527911214E+02  0.00000000000E+00 0. -1.
</event>
<event>
 7    1  0.2688177E-009  0.9008328E+02  0.7561462E-02  0.1302650E+00
          3   -1    0    0  501    0  0.00000000000E+00  0.00000000000E+00  0.59246603654E+03  0.59246603654E+03  0.00000000000E+00 0. -1.
         -3   -1    0    0    0  501 -0.00000000000E+00 -0.00000000000E+00 -0.27504986177E+02  0.27504986177E+02  0.00000000000E+00 0.  1.
         25    2    1    2    0    0  0.44376677506E+02 -0.49296660419E+02  0.33661328723E+03  0.36517905147E+03  0.12509110384E+03 0.  0.
          5    1    3    3  502    0  0.22465028222E+01  0.46084585759E+01  0.26838554894E+03  0.26846705561E+03  0.41800000000E+01 0. -1.
         -5    1    3    3    0  502  0.42130174684E+02 -0.53905118995E+02  0.68227738288E+02  0.96711995867E+02  0.41800000000E+01 0. -1.
        -11    1    1    2    0    0 -0.36369810469E+02 -0.15632675757E+02  0.44036796317E+02  0.59214720254E+02  0.00000000000E+00 0.  1.
         11    1    1    2    0    0 -0.80068670375E+01  0.64929336176E+02  0.18431096681E+03  0.19557725099E+03  0.00000000000E+00 0. -1.
</event>
<event>
 7    1  0.2688177E-009  0.1140494E+03  0.7561462E-02  0.1253250E+00
          2   -1    0    0  501    0  0.00000000000E+00  0.00000000000E+00  0.56171132824E+03  0.56171132824E+03  0.00000000000E+00 0. -1.
         -2   -1    0    0    0  501 -0.00000000000E+00 -0.00000000000E+00 -0.24601013301E+02  0.24601013301E+02  0.00000000000E+00 0.  1.
         25    2    1    2    0    0  0.15356396303E+02  0.40134134758E+02  0.26702864175E+03  0.29799092638E+03  0.12509088298E+03 0.  0.
          5    1    3    3  502    0  0.63791338718E+02 -0.39476599660E+00  0.17488423627E+03  0.18620273690E+03  0.41800000000E+01 0.  1.
         -5    1    3    3    0  502 -0.48434942415E+02  0.40528900754E+02  0.92144405484E+02  0.11178818947E+03  0.41800000000E+01 0.  1.
        -11    1    1    2    0    0 -0.30209829233E+02  0.21756254251E+02  0.10385920146E+03  0.11032996923E+03  0.00000000000E+00 0. -1.
         11    1    1    2    0    0  0.14853432930E+02 -0.61890389008E+02  0.16622247173E+03  0.17799144594E+03  0.00000000000E+00 0.  1.
</event>
<event>
 7    1  0.2688177E-009  0.1233539E+03  0.7561462E-02  0.1237665E+00
          2   -1    0    0  501    0  0.00000000000E+00  0.00000000000E+00  0.59183191451E+03  0.59183191451E+03  0.00000000000E+00 0.  1.
         -2   -1    0    0    0  501 -0.00000000000E+00 -0.00000000000E+00 -0.36700110653E+02  0.36700110653E+02  0.00000000000E+00 0. -1.
         25    2    1    2    0    0  0.83238207731E+02  0.29500537064E+02  0.20609485158E+03  0.25675154326E+03  0.12508951276E+03 0.  0.
          5    1    3    3  502    0 -0.15335280194E+02  0.12731180328E+02  0.12853469623E+03  0.13013798180E+03  0.41800000000E+01 0. -1.
         -5    1    3    3    0  502  0.98573487925E+02  0.16769356735E+02  0.77560155350E+02  0.12661356146E+03  0.41800000000E+01 0. -1.
        -11    1    1    2    0    0  0.12602391637E+02 -0.27673422039E+02  0.60049006638E+02  0.67309150645E+02  0.00000000000E+00 0.  1.
         11    1    1    2    0    0 -0.95840599368E+02 -0.18271150244E+01  0.28898794563E+03  0.30447133126E+03  0.00000000000E+00 0. -1.
</event>
<event>
 7    1  0.2688177E-009  0.1329132E+03  0.7561462E-02  0.1223196E+00
         -1   -1    0    0    0  501 -0.00000000000E+00  0.00000000000E+00  0.11041036150E+03  0.11041036150E+03  0.00000000000E+00 0.  1.
          1   -1    0    0  501    0  0.00000000000E+00 -0.00000000000E+00 -0.19566032778E+03  0.19566032778E+03  0.00000000000E+00 0. -1.
         25    2    1    2    0    0  0.14409098378E+02  0.95842705231E+02 -0.63115916808E+02  0.17036410118E+03  0.12508741645E+03 0.  0.
          5    1    3    3  502    0 -0.10940272875E+02  0.12088898286E+03 -0.56183867740E+02  0.13382053334E+03  0.41800000000E+01 0. -1.
         -5    1    3    3    0  502  0.25349371253E+02 -0.25046277634E+02 -0.69320490680E+01  0.36543567841E+02  0.41800000000E+01 0. -1.
        -11    1    1    2    0    0 -0.32479280007E+02 -0.66964017847E+02  0.24142906839E+02  0.78242975829E+02  0.00000000000E+00 0.  1.
         11    1    1    2    0    0  0.18070181629E+02 -0.28878687384E+02 -0.46276956319E+02  0.57463612271E+02  0.00000000000E+00 0. -1.
</event>
<event>
 7    1  0.2688177E-009  0.1126914E+03  0.7561462E-02  0.1255665E+00
          1   -1    0    0  501    0  0.00000000000E+00  0.00000000000E+00  0.15788327356E+03  0.15788327356E+03  0.00000000000E+00 0. -1.
         -1   -1    0    0    0  501 -0.00000000000E+00 -0.00000000000E+00 -0.11862240675E+03  0.11862240675E+03  0.00000000000E+00 0.  1.
         25    2    1    2    0    0  0.37146146004E+01  0.76606635741E+02  0.50318558846E+01  0.14681497843E+03  0.12508774247E+03 0.  0.
          5    1    3    3  502    0  0.40738869858E+02  0.95063237356E+02  0.13486052291E+02  0.10438400558E+03  0.41800000000E+01 0.  1.
         -5    1    3    3    0  502 -0.37024255258E+02 -0.18456601615E+02 -0.84541964063E+01  0.42430972855E+02  0.41800000000E+01 0.  1.
        -11    1    1    2    0    0  0.10086474514E+02 -0.27807333068E+02  0.64267950376E+02  0.70748527801E+02  0.00000000000E+00 0. -1.
         11    1    1    2    0    0 -0.13801089114E+02 -0.48799302673E+02 -0.30038939452E+02  0.58942174082E+02  0.00000000000E+00 0.  1.
</event>
<event>
 7    1  0.2688177E-009  0.1118202E+03  0.7561462E-02  0.1257236E+00
          1   -1    0    0  501    0  0.00000000000E+00  0.00000000000E+00  0.64614076808E+03  0.64614076808E+03  0.00000000000E+00 0. -1.
         -1   -1    0    0    0  501 -0.00000000000E+00 -0.00000000000E+00 -0.20893630616E+02  0.20893630616E+02  0.00000000000E+00 0.  1.
         25    2    1    2    0    0  0.46735709475E+00 -0.37800772971E+02  0.40199675450E+03  0.42270262240E+03  0.12508796703E+03 0.  0.
          5    1    3    3  502    0 -0.46379729275E+02 -0.57636264415E+02  0.29485107418E+03  0.30401915500E+03  0.41800000000E+01 0.  1.
         -5    1    3    3    0  502  0.46847086370E+02  0.19835491444E+02  0.10714568032E+03  0.11868346740E+03  0.41800000000E+01 0.  1.
        -11    1    1    2    0    0  0.28505792419E+02 -0.19328966842E+02  0.93236599162E+02  0.99394429341E+02  0.00000000000E+00 0.  1.
         11    1    1    2    0    0 -0.28973149514E+02  0.57129739813E+02  0.13001378380E+03  0.14493734695E+03  0.00000000000E+00 0. -1.
</event>
<event>
 7    1  0.2688177E-009  0.1278423E+03  0.7561462E-02  0.1230693E+00
          2   -1    0    0  501    0  0.00000000000E+00  0.00000000000E+00  0.54766186591E+03  0.54766186591E+03  0.00000000000E+00 0. -1.
         -2   -1    0    0    0  501 -0.00000000000E+00 -0.00000000000E+00 -0.46313596532E+02  0.46313596532E+02  0.00000000000E+00 0.  1.
         25    2    1    2    0    0  0.92258968100E+02 -0.52916857728E+02  0.35785391484E+03  0.39372185474E+03  0.12508222699E+03 0.  0.
          5    1    3    3  502    0  0.15134413928E+02  0.15613164731E+02  0.93009263080E+00  0.22162104371E+02  0.41800000000E+01 0.  1.
         -5    1    3    3    0  502  0.77124554172E+02 -0.68530022458E+02  0.35692382221E+03  0.37155975037E+03  0.41800000000E+01 0.  1.
        -11    1    1    2    0    0  0.73778981772E+01 -0.10013994671E+02 -0.24425583107E+01  0.12675944221E+02  0.00000000000E+00 0.  1.
         11    1    1    2    0    0 -0.99636866277E+02  0.62930852399E+02  0.14593691285E+03  0.18757766348E+03  0.00000000000E+00 0. -1.
</event>
<event>
 7    1  0.2688177E-009  0.1311491E+03  0.7561462E-02  0.1225761E+00
          2   -1    0    0  501    0  0.00000000000E+00  0.00000000000E+00  0.42760069033E+03  0.42760069033E+03  0.00000000000E+00 0. -1.
         -2   -1    0    0    0  501 -0.00000000000E+00 -0.00000000000E+00 -0.56937602198E+02  0.56937602198E+02  0.00000000000E+00 0.  1.
         25    2    1    2    0    0  0.20319733138E+02  0.10955697027E+03  0.19746717236E+03  0.25895252184E+03  0.12508998008E+03 0.  0.
          5    1    3    3  502    0 -0.10388617510E+02  0.54370504405E+02  0.18666478900E+03  0.19474416801E+03  0.41800000000E+01 0. -1.
         -5    1    3    3    0  502  0.30708350648E+02  0.55186465865E+02  0.10802383361E+02  0.64208353821E+02  0.41800000000E+01 0. -1.
        -11    1    1    2    0    0 -0.55542807486E+02 -0.80658530731E+02  0.10511334860E+03  0.14366495083E+03  0.00000000000E+00 0.  1.
         11    1    1    2    0    0  0.35223074349E+02 -0.28898439538E+02  0.68082567166E+02  0.81920819858E+02  0.00000000000E+00 0. -1.
</event>
<event>
 7    1  0.2688177E-009  0.9943842E+02  0.7561462E-02  0.1281481E+00
         -1   -1    0    0    0  501 -0.00000000000E+00  0.00000000000E+00  0.83079813329E+02  0.83079813329E+02  0.00000000000E+00 0.  1.
          1   -1    0    0  501    0  0.00000000000E+00 -0.00000000000E+00 -0.22073488270E+03  0.22073488270E+03  0.00000000000E+00 0. -1.
         25    2    1    2    0    0 -0.78925962955E+02 -0.16177717406E+02 -0.66921835850E+02  0.16314960231E+03  0.12509290328E+03 0.  0.
          5    1    3    3  502    0 -0.80709397849E+02 -0.70270608016E+00 -0.98666699207E+02  0.12754250519E+03  0.41800000000E+01 0. -1.
         -5    1    3    3    0  502  0.17834348943E+01 -0.15475011325E+02  0.31744863358E+02  0.35607097118E+02  0.41800000000E+01 0. -1.
        -11    1    1    2    0    0  0.40694455984E+02  0.39853347679E+02 -0.76448482629E+02  0.95334666126E+02  0.00000000000E+00 0. -1.
         11    1    1    2    0    0  0.38231506971E+02 -0.23675630274E+02  0.57152491056E+01  0.45330427601E+02  0.00000000000E+00 0.  1.
</event>
<event>
 7    1  0.2879079E-009  0.1667460E+03  0.7561462E-02  0.1181284E+00
         -1   -1    0    0    0  501 -0.00000000000E+00  0.00000000000E+00  0.23998444251E+03  0.23998444251E+03  0.00000000000E+00 0.  1.
          1   -1    0    0  501    0  0.00000000000E+00 -0.00000000000E+00 -0.12402742176E+03  0.12402742176E+03  0.00000000000E+00 0. -1.
         25    2    1    2    0    0  0.42923724318E+01  0.12809960491E+03  0.20623655995E+02  0.18027885637E+03  0.12508875900E+03 0.  0.
          5    1    3    3  502    0  0.32228369695E+01 -0.23887782896E+02  0.13776204849E+02  0.28076129895E+02  0.41800000000E+01 0. -1.
         -5    1    3    3    0  502  0.10695354623E+01  0.15198738781E+03  0.68474511459E+01  0.15220272647E+03  0.41800000000E+01 0. -1.
        -11    1    1    2    0    0  0.42548489023E+02 -0.74522494148E+02  0.49093362919E+02  0.98864221713E+02  0.00000000000E+00 0. -1.
         11    1    1    2    0    0 -0.46840861455E+02 -0.53577110764E+02  0.46240001838E+02  0.84868786191E+02  0.00000000000E+00 0.  1.
</event>
<event>
 7    1  0.2688177E-009  0.1411357E+03  0.7561462E-02  0.1211809E+00
         -2   -1    0    0    0  501 -0.00000000000E+00  0.00000000000E+00  0.34081144408E+02  0.34081144408E+02  0.00000000000E+00 0.  1.
          2   -1    0    0  501    0  0.00000000000E+00 -0.00000000000E+00 -0.71539898275E+03  0.71539898275E+03  0.00000000000E+00 0. -1.
         25    2    1    2    0    0 -0.10819706134E+03  0.30837207810E+02 -0.37850486362E+03  0.41421142987E+03  0.12509052476E+03 0.  0.
          5    1    3    3  502    0 -0.62930620334E+02  0.72746270904E+02 -0.15638350118E+03  0.18364518710E+03  0.41800000000E+01 0.  1.
         -5    1    3    3    0  502 -0.45266441009E+02 -0.41909063094E+02 -0.22212136244E+03  0.23056624277E+03  0.41800000000E+01 0.  1.
        -11    1    1    2    0    0  0.84661983493E+02 -0.45816810381E+02 -0.28804113546E+03  0.30370137846E+03  0.00000000000E+00 0. -1.
         11    1    1    2    0    0  0.23535077850E+02  0.14979602571E+02 -0.14771839267E+02  0.31567318827E+02  0.00000000000E+00 0.  1.
</event>
<event>
 7    1  0.2688177E-009  0.1466872E+03  0.7561462E-02  0.1204604E+00
          2   -1    0    0  501    0  0.00000000000E+00  0.00000000000E+00  0.18301356312E+03  0.18301356312E+03  0.00000000000E+00 0. -1.
         -2   -1    0    0    0  501 -0.00000000000E+00 -0.00000000000E+00 -0.15061363688E+03  0.15061363688E+03  0.00000000000E+00 0.  1.
         25    2    1    2    0    0 -0.77773890403E+02 -0.88436704559E+02 -0.25608258082E+02  0.17370769600E+03  0.12509497202E+03 0.  0.
          5    1    3    3  502    0 -0.53319622223E+02 -0.11163391748E+03  0.10384906295E+02  0.12421929128E+03  0.41800000000E+01 0.  1.
         -5    1    3    3    0  502 -0.24454268180E+02  0.23197212925E+02 -0.35993164378E+02  0.49488404719E+02  0.41800000000E+01 0.  1.
        -11    1    1    2    0    0  0.47705579218E+02  0.62526266116E+01 -0.99350909553E+01  0.49128643990E+02  0.00000000000E+00 0.  1.
         11    1    1    2    0    0  0.30068311186E+02  0.82184077947E+02  0.67943275280E+02  0.11079086001E+03  0.00000000000E+00 0. -1.
</event>
<event>
 7    1  0.2688177E-009  0.1027962E+03  0.7561462E-02  0.1274523E+00
          1   -1    0    0  501    0  0.00000000000E+00  0.00000000000E+00  0.13116040240E+03  0.13116040240E+03  0.00000000000E+00 0. -1.
         -1   -1    0    0    0  501 -0.00000000000E+00 -0.00000000000E+00 -0.21313912273E+03  0.21313912273E+03  0.00000000000E+00 0.  1.
         25    2    1    2    0    0  0.88673019561E+02 -0.31574070133E+02  0.44095654820E+02  0.16264172526E+03  0.12509227681E+03 0.  0.
          5    1    3    3  502    0  0.26143120712E+02 -0.93817967649E+01  0.81607666073E+02  0.86306224764E+02  0.41800000000E+01 0. -1.
         -5    1    3    3    0  502  0.62529898849E+02 -0.22192273369E+02 -0.37512011254E+02  0.76335500494E+02  0.41800000000E+01 0. -1.
        -11    1    1    2    0    0 -0.49679153473E+02 -0.13441370699E+02 -0.11808356141E+02  0.52802708366E+02  0.00000000000E+00 0.  1.
         11    1    1    2    0    0 -0.38993866088E+02  0.45015440832E+02 -0.11426601901E+03  0.12885509150E+03  0.00000000000E+00 0. -1.
</event>
<event>
 7    1  0.2688177E-009  0.1603619E+03  0.7561462E-02  0.1188289E+00
         -1   -1    0    0    0  501 -0.00000000000E+00  0.00000000000E+00  0.25560554965E+02  0.25560554965E+02  0.00000000000E+00 0.  1.
          1   -1    0    0  501    0  0.00000000000E+00 -0.00000000000E+00 -0.11466782346E+04  0.11466782346E+04  0.00000000000E+00 0. -1.
         25    2    1    2    0    0  0.11423894692E+03 -0.59598126897E+02 -0.52979335586E+03  0.55940250184E+03  0.12509070880E+03 0.  0.
          5    1    3    3  502    0 -0.83508254590E+00  0.19672541928E+02 -0.20256965641E+03  0.20356729690E+03  0.41800000000E+01 0. -1.
         -5    1    3    3    0  502  0.11507402947E+03 -0.79270668825E+02 -0.32722369945E+03  0.35583520494E+03  0.41800000000E+01 0. -1.
        -11    1    1    2    0    0 -0.40742490549E+02  0.75324420647E+02 -0.32806652187E+03  0.33905952524E+03  0.00000000000E+00 0.  1.
         11    1    1    2    0    0 -0.73496456373E+02 -0.15726293750E+02 -0.26325780192E+03  0.27377676250E+03  0.00000000000E+00 0. -1.
</event>
<event>
 7    1  0.2688177E-009  0.7559852E+02  0.7561462E-02  0.1342028E+00
         -1   -1    0    0    0  501 -0.00000000000E+00  0.00000000000E+00  0.31881134124E+02  0.31881134124E+02  0.00000000000E+00 0.  1.
          1   -1    0    0  501    0  0.00000000000E+00 -0.00000000000E+00 -0.43311410335E+03  0.43311410335E+03  0.00000000000E+00 0. -1.
         25    2    1    2    0    0 -0.49274757652E+01 -0.32284098793E+01 -0.31795551777E+03  0.34172725180E+03  0.12508837153E+03 0.  0.
          5    1    3    3  502    0  0.28594395750E+02 -0.11381438976E+02 -0.30181777133E+03  0.30341162818E+03  0.41800000000E+01 0. -1.
         -5    1    3    3    0  502 -0.33521871515E+02  0.81530290971E+01 -0.16137746439E+02  0.38315623621E+02  0.41800000000E+01 0. -1.
        -11    1    1    2    0    0 -0.26459166054E+02 -0.29781255568E+02 -0.18111833073E+02  0.43761274532E+02  0.00000000000E+00 0.  1.
         11    1    1    2    0    0  0.31386641819E+02  0.33009665447E+02 -0.65165618382E+02  0.79506711143E+02  0.00000000000E+00 0. -1.
</event>
<event>
 7    1  0.2688177E-009  0.9001383E+02  0.7561462E-02  0.1302818E+00
         -1   -1    0    0    0  501 -0.00000000000E+00  0.00000000000E+00  0.12521695162E+03  0.12521695162E+03  0.00000000000E+00 0.  1.
          1   -1    0    0  501    0  0.00000000000E+00 -0.00000000000E+00 -0.12767117335E+03  0.12767117335E+03  0.00000000000E+00 0. -1.
         25    2    1    2    0    0 -0.22607133402E+02 -0.60091010150E+02  0.16110814387E+01  0.14061863802E+03  0.12509593835E+03 0.  0.
          5    1    3    3  502    0 -0.26204692570E+02  0.41505457551E+01  0.52172796904E+02  0.58680372183E+02  0.41800000000E+01 0.  1.
         -5    1    3    3    0  502  0.35975591679E+01 -0.64241555905E+02 -0.50561715465E+02  0.81938265834E+02  0.41800000000E+01 0.  1.
        -11    1    1    2    0    0  0.38214769870E+02  0.15134675913E+02  0.32382905300E+02  0.52326662485E+02  0.00000000000E+00 0.  1.
         11    1    1    2    0    0 -0.15607636468E+02  0.44956334237E+02 -0.36448208466E+02  0.59942824462E+02  0.00000000000E+00 0. -1.
</event>
<event>
 7    1  0.2696926E-009  0.1039011E+03  0.7561462E-02  0.1272300E+00
          2   -1    0    0  501    0  0.00000000000E+00  0.00000000000E+00  0.71721046707E+03  0.71721046707E+03  0.00000000000E+00 0. -1.
         -2   -1    0    0    0  501 -0.00000000000E+00 -0.00000000000E+00 -0.21307053451E+02  0.21307053451E+02  0.00000000000E+00 0.  1.
         25    2    1    2    0    0 -0.43409353797E+02 -0.25875145699E+02  0.47806119123E+03  0.49673308715E+03  0.12508941662E+03 0.  0.
          5    1    3    3  502    0  0.15642081564E+02  0.32182842406E+02  0.55880998599E+02  0.66487355681E+02  0.41800000000E+01 0.  1.
         -5    1    3    3    0  502 -0.59051435361E+02 -0.58057988105E+02  0.42218019263E+03  0.43024573147E+03  0.41800000000E+01 0.  1.
        -11    1    1    2    0    0  0.12048263798E+02  0.48637681038E+02  0.18278494536E+03  0.18952868102E+03  0.00000000000E+00 0. -1.
         11    1    1    2    0    0  0.31361089999E+02 -0.22762535338E+02  0.35057277026E+02  0.52255752348E+02  0.00000000000E+00 0.  1.
</event>
<event>
 7    1  0.2688177E-009  0.1252243E+03  0.7561462E-02  0.1234719E+00
          2   -1    0    0  501    0  0.00000000000E+00  0.00000000000E+00  0.14213219426E+03  0.14213219426E+03  0.00000000000E+00 0. -1.
         -2   -1    0    0    0  501 -0.00000000000E+00 -0.00000000000E+00 -0.12500254166E+03  0.12500254166E+03  0.00000000000E+00 0.  1.
         25    2    1    2    0    0 -0.69264262831E+02  0.27773367532E+02  0.28946346639E+02  0.14851148467E+03  0.12509545173E+03 0.  0.
          5    1    3    3  502    0  0.30492549056E+02  0.33676687447E+02  0.10273644668E+02  0.46764676841E+02  0.41800000000E+01 0.  1.
         -5    1    3    3    0  502 -0.99756811887E+02 -0.59033199146E+01  0.18672701971E+02  0.10174680783E+03  0.41800000000E+01 0.  1.
        -11    1    1    2    0    0  0.36536501545E+02 -0.52378324909E+02  0.19833691248E+02  0.66871370361E+02  0.00000000000E+00 0. -1.
         11    1    1    2    0    0  0.32727761286E+02  0.24604957377E+02 -0.31650385293E+02  0.51751880889E+02  0.00000000000E+00 0.  1.
</event>
<event>
 7    1  0.3393788E-009  0.1568380E+03  0.7561462E-02  0.1192314E+00
         -3   -1    0    0    0  501 -0.00000000000E+00  0.00000000000E+00  0.89874945031E+02  0.89874945031E+02  0.00000000000E+00 0.  1.
          3   -1    0    0  501    0  0.00000000000E+00 -0.00000000000E+00 -0.33546046437E+03  0.33546046437E+03  0.00000000000E+00 0. -1.
         25    2    1    2    0    0  0.65447741669E+01  0.13445085803E+03 -0.12157877864E+03  0.22033715232E+03  0.12508874442E+03 0.  0.
          5    1    3    3  502    0  0.29305288678E+02 -0.79918708239E+01 -0.51439949807E+02  0.59884979585E+02  0.41800000000E+01 0.  1.
         -5    1    3    3    0  502 -0.22760514511E+02  0.14244272885E+03 -0.70138828836E+02  0.16045217273E+03  0.41800000000E+01 0.  1.
        -11    1    1    2    0    0 -0.18607364358E+02 -0.49147164070E+02  0.17274360891E+01  0.52580051159E+02  0.00000000000E+00 0.  1.
         11    1    1    2    0    0  0.12062590191E+02 -0.85303693959E+02 -0.12573417678E+03  0.15241820592E+03  0.00000000000E+00 0. -1.
</event>
<event>
 7    1  0.2688177E-009  0.1216136E+03  0.7561462E-02  0.1240459E+00
          2   -1    0    0  501    0  0.00000000000E+00  0.00000000000E+00  0.57218083360E+03  0.57218083360E+03  0.00000000000E+00 0. -1.
         -2   -1    0    0    0  501 -0.00000000000E+00 -0.00000000000E+00 -0.32989457623E+02  0.32989457623E+02  0.00000000000E+00 0.  1.
         25    2    1    2    0    0 -0.70078531153E+02  0.25022105001E+01  0.19580829928E+03  0.24270424244E+03  0.12508875908E+03 0.  0.
          5    1    3    3  502    0 -0.54317296366E+01  0.56818977356E+02  0.97395893102E+02  0.11296606689E+03  0.41800000000E+01 0. -1.
         -5    1    3    3    0  502 -0.64646801516E+02 -0.54316766856E+02  0.98412406174E+02  0.12973817556E+03  0.41800000000E+01 0. -1.
        -11    1    1    2    0    0  0.11752464162E+02 -0.33431510916E+02  0.47245159986E+02  0.59058373480E+02  0.00000000000E+00 0.  1.
         11    1    1    2    0    0  0.58326066990E+02  0.30929300416E+02  0.29613791672E+03  0.30340767530E+03  0.00000000000E+00 0. -1.
</event>
<event>
 7    1  0.2688177E-009  0.1629300E+03  0.7561462E-02  0.1185428E+00
         -1   -1    0    0    0  501 -0.00000000000E+00  0.00000000000E+00  0.15799295300E+03  0.15799295300E+03  0.00000000000E+00 0.  1.
          1   -1    0    0  501    0  0.00000000000E+00 -0.00000000000E+00 -0.18696062755E+03  0.18696062755E+03  0.00000000000E+00 0. -1.
         25    2    1    2    0    0  0.13243799447E+03 -0.59187094138E+01 -0.86838718112E+01  0.18247672420E+03  0.12508993462E+03 0.  0.
          5    1    3    3  502    0  0.10490104781E+03  0.49807296897E+02 -0.23236786095E+02  0.11850070584E+03  0.41800000000E+01 0. -1.
         -5    1    3    3    0  502  0.27536946658E+02 -0.55726006311E+02  0.14552914284E+02  0.63976018357E+02  0.41800000000E+01 0. -1.
        -11    1    1    2    0    0 -0.12908813064E+03 -0.11522180598E+02  0.71476181296E+01  0.12979828413E+03  0.00000000000E+00 0.  1.
         11    1    1    2    0    0 -0.33498638262E+01  0.17440890012E+02 -0.27431420862E+02  0.32678572224E+02  0.00000000000E+00 0. -1.
</event>
<event>
 7    1  0.2688177E-009  0.1127917E+03  0.7561462E-02  0.1255486E+00
          1   -1    0    0  501    0  0.00000000000E+00  0.00000000000E+00  0.89406619303E+02  0.89406619303E+02  0.00000000000E+00 0. -1.
         -1   -1    0    0    0  501 -0.00000000000E+00 -0.00000000000E+00 -0.44697380725E+03  0.44697380725E+03  0.00000000000E+00 0.  1.
         25    2    1    2    0    0  0.95809959520E+02  0.20683615592E+02 -0.14125781237E+01  0.15892704807E+03  0.12509376856E+03 0.  0.
          5    1    3    3  502    0  0.49274062686E+02  0.51521239176E+02 -0.48041811257E+02  0.86068922199E+02  0.41800000000E+01 0. -1.
         -5    1    3    3    0  502  0.46535896835E+02 -0.30837623584E+02  0.46629233133E+02  0.72858125869E+02  0.41800000000E+01 0. -1.
        -11    1    1    2    0    0 -0.11783687581E+02 -0.45211534544E+01 -0.16029621426E+01  0.12722641596E+02  0.00000000000E+00 0.  1.
         11    1    1    2    0    0 -0.84026271940E+02 -0.16162462137E+02 -0.35455164768E+03  0.36473073689E+03  0.00000000000E+00 0. -1.
</event>
<event>
 7    1  0.2688177E-009  0.1169653E+03  0.7561462E-02  0.1248189E+00
         -2   -1    0    0    0  501 -0.00000000000E+00  0.00000000000E+00  0.10702017566E+03  0.10702017566E+03  0.00000000000E+00 0.  1.
          2   -1    0    0  501    0  0.00000000000E+00 -0.00000000000E+00 -0.25842066665E+03  0.25842066665E+03  0.00000000000E+00 0. -1.
         25    2    1    2    0    0 -0.92127700370E+02  0.47993166445E+02  0.16318845787E+01  0.16260801691E+03  0.12509135427E+03 0.  0.
          5    1    3    3  502    0 -0.21397067387E+02 -0.38083581990E+01 -0.54227394222E+02  0.58569793999E+02  0.41800000000E+01 0.  1.
         -5    1    3    3    0  502 -0.70730632983E+02  0.51801524644E+02  0.55859278801E+02  0.10403822291E+03  0.41800000000E+01 0.  1.
        -11    1    1    2    0    0  0.72021306723E+02 -0.65512576793E+02 -0.14559277017E+03  0.17514628476E+03  0.00000000000E+00 0. -1.
         11    1    1    2    0    0  0.20106393647E+02  0.17519410348E+02 -0.74396054041E+01  0.27686540647E+02  0.00000000000E+00 0.  1.
</event>
<event>
 7    1  0.2688177E-009  0.1109035E+03  0.7561462E-02  0.1258906E+00
         -2   -1    0    0    0  501 -0.00000000000E+00  0.00000000000E+00  0.39629400576E+03  0.39629400576E+03  0.00000000000E+00 0.  1.
          2   -1    0    0  501    0  0.00000000000E+00 -0.00000000000E+00 -0.47147955612E+02  0.47147955612E+02  0.00000000000E+00 0. -1.
         25    2    1    2    0    0  0.54837878754E+01 -0.37120453994E+02  0.71441262204E+02  0.14885377906E+03  0.12508234712E+03 0.  0.
          5    1    3    3  502    0 -0.51854177816E+02  0.80404082893E+01  0.10498192428E+02  0.53676702271E+02  0.41800000000E+01 0.  1.
         -5    1    3    3    0  502  0.57337965691E+02 -0.45160862283E+02  0.60943069776E+02  0.95177076785E+02  0.41800000000E+01 0.  1.
        -11    1    1    2    0    0 -0.33617169693E+02  0.53736924746E+02  0.15156899161E+03  0.16428916701E+03  0.00000000000E+00 0.  1.
         11    1    1    2    0    0  0.28133381818E+02 -0.16616470752E+02  0.12613579633E+03  0.13029901531E+03  0.00000000000E+00 0. -1.
</event>
<event>
 7    1  0.2688177E-009  0.1468818E+03  0.7561462E-02  0.1204358E+00
          2   -1    0    0  501    0  0.00000000000E+00  0.00000000000E+00  0.71853558114E+03  0.71853558114E+03  0.00000000000E+00 0. -1.
         -2   -1    0    0    0  501 -0.00000000000E+00 -0.00000000000E+00 -0.32758834283E+02  0.32758834283E+02  0.00000000000E+00 0.  1.
         25    2    1    2    0    0 -0.22118107464E+02 -0.10553160820E+03  0.35754395079E+03  0.39384161445E+03  0.12508960597E+03 0.  0.
          5    1    3    3  502    0 -0.34746805689E+02  0.17786021262E+02  0.62765962623E+02  0.74031895302E+02  0.41800000000E+01 0.  1.
         -5    1    3    3    0  502  0.12628698225E+02 -0.12331762947E+03  0.29477798816E+03  0.31980971915E+03  0.41800000000E+01 0.  1.
        -11    1    1    2    0    0 -0.54982315523E+01  0.10254875209E+03  0.18538485471E+03  0.21192928410E+03  0.00000000000E+00 0.  1.
         11    1    1    2    0    0  0.27616339017E+02  0.29828561178E+01  0.14284794136E+03  0.14552351687E+03  0.00000000000E+00 0. -1.
</event>
<event>
 7    1  0.2688177E-009  0.2517096E+03  0.7561462E-02  0.1112229E+00
         -1   -1    0    0    0  501 -0.00000000000E+00  0.00000000000E+00  0.38386622740E+03  0.38386622740E+03  0.00000000000E+00 0.  1.
          1   -1    0    0  501    0  0.00000000000E+00 -0.00000000000E+00 -0.17599162229E+03  0.17599162229E+03  0.00000000000E+00 0. -1.
         25    2    1    2    0    0 -0.47258850931E+01 -0.23181754003E+03  0.15157218629E+03  0.30394626499E+03  0.12508996158E+03 0.  0.
          5    1    3    3  502    0 -0.57130135370E+02 -0.10399872977E+03  0.36819261611E+02  0.12430896423E+03  0.41800000000E+01 0. -1.
         -5    1    3    3    0  502  0.52404250277E+02 -0.12781881026E+03  0.11475292468E+03  0.17963730077E+03  0.41800000000E+01 0. -1.
        -11    1    1    2    0    0  0.41820630336E+02  0.80889992311E+02  0.40596670836E+02  0.99700780643E+02  0.00000000000E+00 0.  1.
         11    1    1    2    0    0 -0.37094745243E+02  0.15092754772E+03  0.15705747983E+02  0.15621080406E+03  0.00000000000E+00 0. -1.
</event>
<event>
 7    1  0.2688177E-009  0.1355552E+03  0.7561462E-02  0.1219438E+00
          1   -1    0    0  501    0  0.00000000000E+00  0.00000000000E+00  0.55115773200E+03  0.55115773200E+03  0.00000000000E+00 0. -1.
         -1   -1    0    0    0  501 -0.00000000000E+00 -0.00000000000E+00 -0.38472340719E+02  0.38472340719E+02  0.00000000000E+00 0.  1.
         25    2    1    2    0    0  0.26800744315E+02 -0.92637614826E+02  0.27470898709E+03  0.31687914108E+03  0.12508938760E+03 0.  0.
          5    1    3    3  502    0  0.55236554129E+02 -0.95989961519E+02  0.26348146771E+03  0.28584104997E+03  0.41800000000E+01 0.  1.
         -5    1    3    3    0  502 -0.28435809814E+02  0.33523466933E+01  0.11227519379E+02  0.31038091106E+02  0.41800000000E+01 0.  1.
        -11    1    1    2    0    0 -0.46183752537E+02  0.10036456140E+03  0.18077192299E+03  0.21185955803E+03  0.00000000000E+00 0.  1.
         11    1    1    2    0    0  0.19383008221E+02 -0.77269465777E+01  0.57204481202E+02  0.60891373615E+02  0.00000000000E+00 0. -1.
</event>
<event>
 7    1  0.2688177E-009  0.1138655E+03  0.7561462E-02  0.1253575E+00
          2   -1    0    0  501    0  0.00000000000E+00  0.00000000000E+00  0.13667955866E+03  0.13667955866E+03  0.00000000000E+00 0. -1.
         -2   -1    0    0    0  501 -0.00000000000E+00 -0.00000000000E+00 -0.19131674866E+03  0.19131674866E+03  0.00000000000E+00 0.  1.
         25    2    1    2    0    0  0.15614561173E+02  0.53668105031E+02  0.76933661764E+02  0.15714159133E+03  0.12510240364E+03 0.  0.
          5    1    3    3  502    0 -0.80226919920E+01 -0.39619272643E+02  0.20793151473E+02  0.45649511495E+02  0.41800000000E+01 0. -1.
         -5    1    3    3    0  502  0.23637253165E+02  0.93287377674E+02  0.56140510291E+02  0.11149207984E+03  0.41800000000E+01 0. -1.
        -11    1    1    2    0    0 -0.43660554713E+02 -0.41350710178E+02 -0.12614662994E+03  0.13974654742E+03  0.00000000000E+00 0.  1.
         11    1    1    2    0    0  0.28045993540E+02 -0.12317394853E+02 -0.54242218257E+01  0.31108168574E+02  0.00000000000E+00 0. -1.
</event>
<event>
 7    1  0.2688177E-009  0.1429236E+03  0.7561462E-02  0.1209448E+00
          1   -1    0    0  501    0  0.00000000000E+00  0.00000000000E+00  0.23259240456E+03  0.23259240456E+03  0.00000000000E+00 0. -1.
         -1   -1    0    0    0  501 -0.00000000000E+00 -0.00000000000E+00 -0.25362886575E+03  0.25362886575E+03  0.00000000000E+00 0.  1.
         25    2    1    2    0    0 -0.77973875907E+02 -0.66793659609E+02  0.18058425921E+03  0.24248711942E+03  0.12509200663E+03 0.  0.
          5    1    3    3  502    0 -0.15378670452E+02  0.31095914880E+02  0.10544880261E+02  0.36498305807E+02  0.41800000000E+01 0. -1.
         -5    1    3    3    0  502 -0.62595205456E+02 -0.97889574489E+02  0.17003937895E+03  0.20598881361E+03  0.41800000000E+01 0. -1.
        -11    1    1    2    0    0  0.81649192629E+02  0.15369552042E+02 -0.10192717613E+03  0.13149890882E+03  0.00000000000E+00 0.  1.
         11    1    1    2    0    0 -0.36753167216E+01  0.51424107567E+02 -0.99693544278E+02  0.11223524207E+03  0.00000000000E+00 0. -1.
</event>
<event>
 7    1  0.2688177E-009  0.1018271E+03  0.7561462E-02  0.1276500E+00
         -2   -1    0    0    0  501 -0.00000000000E+00  0.00000000000E+00  0.21411844635E+03  0.21411844635E+03  0.00000000000E+00 0. -1.
          2   -1    0    0  501    0  0.00000000000E+00 -0.00000000000E+00 -0.78064259613E+02  0.78064259613E+02  0.00000000000E+00 0.  1.
         25    2    1    2    0    0  0.11010426591E+01  0.48190984332E+02  0.13404935631E+03  0.18958176566E+03  0.12509369560E+03 0.  0.
          5    1    3    3  502    0 -0.32671183728E+02  0.60057031721E+02  0.22098107294E+02  0.71972578468E+02  0.41800000000E+01 0. -1.
         -5    1    3    3    0  502  0.33772226387E+02 -0.11866047389E+02  0.11195124902E+03  0.11760918720E+03  0.41800000000E+01 0. -1.
        -11    1    1    2    0    0 -0.41204869572E+02 -0.41461143334E+02 -0.11845949477E+02  0.59642218285E+02  0.00000000000E+00 0.  1.
         11    1    1    2    0    0  0.40103826913E+02 -0.67298409986E+01  0.13850779894E+02  0.42958722009E+02  0.00000000000E+00 0. -1.
</event>
<event>
 7    1  0.2688177E-009  0.1083752E+03  0.7561462E-02  0.1263609E+00
         -3   -1    0    0    0  501 -0.00000000000E+00  0.00000000000E+00  0.52854604854E+03  0.52854604854E+03  0.00000000000E+00 0.  1.
          3   -1    0    0  501    0  0.00000000000E+00 -0.00000000000E+00 -0.29562173597E+02  0.29562173597E+02  0.00000000000E+00 0. -1.
         25    2    1    2    0    0 -0.16689831260E+02 -0.92798169673E+01  0.14952955275E+03  0.19588447058E+03  0.12508786191E+03 0.  0.
          5    1    3    3  502    0  0.13374700596E+02 -0.60408448039E+02  0.10363949726E+03  0.12077533276E+03  0.41800000000E+01 0. -1.
         -5    1    3    3    0  502 -0.30064531856E+02  0.51128631072E+02  0.45890055497E+02  0.75109137823E+02  0.41800000000E+01 0. -1.
        -11    1    1    2    0    0  0.31078967186E+02 -0.36121257675E+02  0.16881897870E+03  0.17541520751E+03  0.00000000000E+00 0.  1.
         11    1    1    2    0    0 -0.14389135926E+02  0.45401074642E+02  0.18063534349E+03  0.18680854405E+03  0.00000000000E+00 0. -1.
</event>
<event>
 7    1  0.2688177E-009  0.1309751E+03  0.7561462E-02  0.1226016E+00
          1   -1    0    0  501    0  0.00000000000E+00  0.00000000000E+00  0.14779893756E+03  0.14779893756E+03  0.00000000000E+00 0. -1.
         -1   -1    0    0    0  501 -0.00000000000E+00 -0.00000000000E+00 -0.14067983925E+03  0.14067983925E+03  0.00000000000E+00 0.  1.
         25    2    1    2    0    0 -0.54207618604E+02  0.77933376231E+02  0.79611587663E+01  0.15723214985E+03  0.12508593787E+03 0.  0.
          5    1    3    3  502    0 -0.51630748816E+02 -0.22185526528E+02  0.85210408851E+01  0.56991335731E+02  0.41800000000E+01 0. -1.
         -5    1    3    3    0  502 -0.25768697875E+01  0.10011890276E+03 -0.55988211885E+00  0.10024081412E+03  0.41800000000E+01 0. -1.
        -11    1    1    2    0    0  0.61692024532E+02 -0.60585578903E+02 -0.34139432408E+02  0.92962460741E+02  0.00000000000E+00 0.  1.
         11    1    1    2    0    0 -0.74844059286E+01 -0.17347797328E+02  0.33297371951E+02  0.38284166219E+02  0.00000000000E+00 0. -1.
</event>
<event>
 7    1  0.2688177E-009  0.7492270E+02  0.7561462E-02  0.1344111E+00
         -1   -1    0    0    0  501 -0.00000000000E+00  0.00000000000E+00  0.12968638846E+03  0.12968638846E+03  0.00000000000E+00 0.  1.
          1   -1    0    0  501    0  0.00000000000E+00 -0.00000000000E+00 -0.11633928329E+03  0.11633928329E+03  0.00000000000E+00 0. -1.
         25    2    1    2    0    0  0.54417307255E+02 -0.26229249943E+02  0.39667788619E+02  0.14449369893E+03  0.12512265460E+03 0.  0.
          5    1    3    3  502    0  0.22545876550E+02 -0.16732821468E+02  0.84143320097E+02  0.88802446930E+02  0.41800000000E+01 0. -1.
         -5    1    3    3    0  502  0.31871430705E+02 -0.94964284747E+01 -0.44475531478E+02  0.55691251999E+02  0.41800000000E+01 0. -1.
        -11    1    1    2    0    0 -0.39056316780E+02 -0.16602349980E+02  0.96578996410E+01  0.43523659437E+02  0.00000000000E+00 0.  1.
         11    1    1    2    0    0 -0.15360990475E+02  0.42831599923E+02 -0.35978583096E+02  0.58008313387E+02  0.00000000000E+00 0. -1.
</event>
<event>
 7    1  0.2688177E-009  0.6819304E+02  0.7561462E-02  0.1366348E+00
         -1   -1    0    0    0  501 -0.00000000000E+00  0.00000000000E+00  0.45106406410E+02  0.45106406410E+02  0.00000000000E+00 0.  1.
          1   -1    0    0  501    0  0.00000000000E+00 -0.00000000000E+00 -0.32053158599E+03  0.32053158599E+03  0.00000000000E+00 0. -1.
         25    2    1    2    0    0  0.30508389002E+02  0.38578504559E+02 -0.12643304814E+03  0.18453157817E+03  0.12509006702E+03 0.  0.
          5    1    3    3  502    0  0.36144761062E+02  0.15838720313E+02  0.14011942254E+02  0.42084625924E+02  0.41800000000E+01 0. -1.
         -5    1    3    3    0  502 -0.56363720602E+01  0.22739784246E+02 -0.14044499040E+03  0.14244695225E+03  0.41800000000E+01 0. -1.
        -11    1    1    2    0    0  0.51806146086E+01 -0.36809065805E+02 -0.11297339652E+02  0.38850688236E+02  0.00000000000E+00 0.  1.
         11    1    1    2    0    0 -0.35689003611E+02 -0.17694387533E+01 -0.13769479178E+03  0.14225572599E+03  0.00000000000E+00 0. -1.
</event>
<event>
 6    1  0.2688177E-009  0.2196835E+03  0.7561462E-02  0.1134119E+00
          2   -1    0    0  501    0  0.00000000000E+00  0.00000000000E+00  0.11151782140E+04  0.11151782140E+04  0.00000000000E+00 0. -1.
         -2   -1    0    0    0  501 -0.00000000000E+00 -0.00000000000E+00 -0.52983659894E+02  0.52983659894E+02  0.00000000000E+00 0.  1.
          5    1    1    2  502    0 -0.17220961571E+03 -0.11778069944E+03  0.28017662765E+03  0.34934919491E+03  0.41800000000E+01 0. -1.
         -5    1    1    2    0  502  0.14574160293E+02  0.10803647179E+02  0.18012326139E+02  0.25904463583E+02  0.41800000000E+01 0. -1.
        -11    1    1    2    0    0  0.11178137811E+03  0.19728347651E+02  0.39981533419E+03  0.41561591120E+03  0.00000000000E+00 0. -1.
         11    1    1    2    0    0  0.45854077307E+02  0.87248704614E+02  0.36419026616E+03  0.37729230423E+03  0.00000000000E+00 0.  1.
</event>
<event>
 7    1  0.2688177E-009  0.9572166E+02  0.7561462E-02  0.1289559E+00
          2   -1    0    0  501    0  0.00000000000E+00  0.00000000000E+00  0.47539313489E+03  0.47539313489E+03  0.00000000000E+00 0. -1.
         -2   -1    0    0    0  501 -0.00000000000E+00 -0.00000000000E+00 -0.36770766106E+02  0.36770766106E+02  0.00000000000E+00 0.  1.
         25    2    1    2    0    0  0.34155836529E+02  0.33691983359E+02  0.34948102051E+03  0.37428124355E+03  0.12509074570E+03 0.  0.
          5    1    3    3  502    0 -0.22124260230E+00 -0.46449346650E+02  0.11766188351E+03  0.12656769723E+03  0.41800000000E+01 0.  1.
         -5    1    3    3    0  502  0.34377079131E+02  0.80141330008E+02  0.23181913701E+03  0.24771354631E+03  0.41800000000E+01 0.  1.
        -11    1    1    2    0    0 -0.20628851871E+02  0.60126453369E+00  0.97850511685E+02  0.10000316838E+03  0.00000000000E+00 0. -1.
         11    1    1    2    0    0 -0.13526984658E+02 -0.34293247893E+02 -0.87091634143E+01  0.37879489072E+02  0.00000000000E+00 0.  1.
</event>
<event>
 7    1  0.2688177E-009  0.9782064E+02  0.7561462E-02  0.1284947E+00
         -2   -1    0    0    0  501 -0.00000000000E+00  0.00000000000E+00  0.19484681698E+02  0.19484681698E+02  0.00000000000E+00 0.  1.
          2   -1    0    0  501    0  0.00000000000E+00 -0.00000000000E+00 -0.69103249683E+03  0.69103249683E+03  0.00000000000E+00 0. -1.
         25    2    1    2    0    0 -0.32993406367E+02 -0.22439499625E+02 -0.37672018146E+03  0.39894611044E+03  0.12509119837E+03 0.  0.
          5    1    3    3  502    0 -0.74992994909E+01  0.41749573273E+02 -0.25829849485E+03  0.26179161790E+03  0.41800000000E+01 0.  1.
         -5    1    3    3    0  502 -0.25494106876E+02 -0.64189072898E+02 -0.11842168661E+03  0.13715449255E+03  0.41800000000E+01 0.  1.
        -11    1    1    2    0    0  0.42612185930E+02 -0.14995839040E+02 -0.24161929621E+03  0.24580593540E+03  0.00000000000E+00 0. -1.
         11    1    1    2    0    0 -0.96187795630E+01  0.37435338666E+02 -0.53208337457E+02  0.65765132679E+02  0.00000000000E+00 0.  1.
</event>
<event>
 7    1  0.2688177E-009  0.1432336E+03  0.7561462E-02  0.1209043E+00
          1   -1    0    0  501    0  0.00000000000E+00  0.00000000000E+00  0.21497372184E+02  0.21497372184E+02  0.00000000000E+00 0. -1.
         -1   -1    0    0    0  501 -0.00000000000E+00 -0.00000000000E+00 -0.12613019346E+04  0.12613019346E+04  0.00000000000E+00 0.  1.
         25    2    1    2    0    0  0.98511429771E+02 -0.72035511163E+02 -0.73035610485E+03  0.75097323939E+03  0.12508856750E+03 0.  0.
          5    1    3    3  502    0  0.62442565459E+01  0.11712191487E+02 -0.35855145379E+03  0.35882138117E+03  0.41800000000E+01 0.  1.
         -5    1    3    3    0  502  0.92267173225E+02 -0.83747702650E+02 -0.37180465107E+03  0.39215185822E+03  0.41800000000E+01 0.  1.
        -11    1    1    2    0    0 -0.52612481208E+01  0.52293633133E+02 -0.12226942975E+03  0.13308688234E+03  0.00000000000E+00 0. -1.
         11    1    1    2    0    0 -0.93250181650E+02  0.19741878030E+02 -0.38717902785E+03  0.39873918510E+03  0.00000000000E+00 0.  1.
</event>
<event>
 7    1  0.2688177E-009  0.9100610E+02  0.7561462E-02  0.1300433E+00
          2   -1    0    0  501    0  0.00000000000E+00  0.00000000000E+00  0.10965456619E+03  0.10965456619E+03  0.00000000000E+00 0. -1.
         -2   -1    0    0    0  501 -0.00000000000E+00 -0.00000000000E+00 -0.14057553085E+03  0.14057553085E+03  0.00000000000E+00 0.  1.
         25    2    1    2    0    0  0.13698475734E+02  0.42874989437E+02 -0.58947354788E+02  0.14544695427E+03  0.12511639746E+03 0.  0.
          5    1    3    3  502    0 -0.27301565569E+02  0.15854003044E+02 -0.84236938892E+02  0.90055866933E+02  0.41800000000E+01 0. -1.
         -5    1    3    3    0  502  0.41000041303E+02  0.27020986392E+02  0.25289584104E+02  0.55391087340E+02  0.41800000000E+01 0. -1.
        -11    1    1    2    0    0  0.31768980600E+02 -0.45326577184E+02  0.17458808073E+02  0.58039440960E+02  0.00000000000E+00 0.  1.
         11    1    1    2    0    0 -0.45467456334E+02  0.24515877473E+01  0.10567582055E+02  0.46743701806E+02  0.00000000000E+00 0. -1.
</event>
<event>
 7    1  0.2688177E-009  0.1235552E+03  0.7561462E-02  0.1237345E+00
          3   -1    0    0  501    0  0.00000000000E+00  0.00000000000E+00  0.46545320893E+03  0.46545320893E+03  0.00000000000E+00 0. -1.
         -3   -1    0    0    0  501 -0.00000000000E+00 -0.00000000000E+00 -0.39012615911E+02  0.39012615911E+02  0.00000000000E+00 0.  1.
         25    2    1    2    0    0 -0.28479787243E+02 -0.58339512726E+02  0.14863800764E+03  0.20482928268E+03  0.12508869135E+03 0.  0.
          5    1    3    3  502    0 -0.41106990506E+01  0.39541118602E+02  0.42793153037E+02  0.58558724831E+02  0.41800000000E+01 0. -1.
         -5    1    3    3    0  502 -0.24369088192E+02 -0.97880631328E+02  0.10584485460E+03  0.14627055785E+03  0.41800000000E+01 0. -1.
        -11    1    1    2    0    0  0.29407873989E+02 -0.14878847369E+02  0.46318754964E+02  0.56847429256E+02  0.00000000000E+00 0.  1.
         11    1    1    2    0    0 -0.92808674605E+00  0.73218360096E+02  0.23148383042E+03  0.24278911290E+03  0.00000000000E+00 0. -1.
</event>
<event>
 7    1  0.2688177E-009  0.1340601E+03  0.7561462E-02  0.1221553E+00
         -1   -1    0    0    0  501 -0.00000000000E+00  0.00000000000E+00  0.52011101909E+02  0.52011101909E+02  0.00000000000E+00 0.  1.
          1   -1    0    0  501    0  0.00000000000E+00 -0.00000000000E+00 -0.42130134397E+03  0.42130134397E+03  0.00000000000E+00 0. -1.
         25    2    1    2    0    0 -0.41496922025E+02 -0.86667150430E+02 -0.24701977323E+03  0.29308579476E+03  0.12508926900E+03 0.  0.
          5    1    3    3  502    0 -0.56424202500E+02 -0.10586906950E+03 -0.23845299177E+03  0.26696301652E+03  0.41800000000E+01 0. -1.
         -5    1    3    3    0  502  0.14927280475E+02  0.19201919069E+02 -0.85667814643E+01  0.26122778240E+02  0.41800000000E+01 0. -1.
        -11    1    1    2    0    0  0.29089801424E+02 -0.61728175737E+01 -0.50218783591E+01  0.30158572345E+02  0.00000000000E+00 0.  1.
         11    1    1    2    0    0  0.12407120602E+02  0.92839968004E+02 -0.11724859046E+03  0.15006807877E+03  0.00000000000E+00 0. -1.
</event>
<event>
 7    1  0.2688177E-009  0.1146609E+03  0.7561462E-02  0.1252174E+00
          2   -1    0    0  501    0  0.00000000000E+00  0.00000000000E+00  0.48094832097E+03  0.48094832097E+03  0.00000000000E+00 0. -1.
         -2   -1    0    0    0  501 -0.00000000000E+00 -0.00000000000E+00 -0.40741746375E+02  0.40741746375E+02  0.00000000000E+00 0.  1.
         25    2    1    2    0    0  0.20868802269E+02 -0.67667800204E+02  0.33968518037E+03  0.36884685372E+03  0.12509013408E+03 0.  0.
          5    1    3    3  502    0  0.52288912266E+02 -0.84157657028E+02  0.18302676531E+03  0.20816558505E+03  0.41800000000E+01 0. -1.
         -5    1    3    3    0  502 -0.31420109997E+02  0.16489856824E+02  0.15665841506E+03  0.16068126866E+03  0.41800000000E+01 0. -1.
        -11    1    1    2    0    0  0.19199159757E+02  0.46604955923E+01 -0.78329545201E+01  0.21252838188E+02  0.00000000000E+00 0.  1.
         11    1    1    2    0    0 -0.40067962026E+02  0.63007304612E+02  0.10835434874E+03  0.13159037543E+03  0.00000000000E+00 0. -1.
</event>
<event>
 7    1  0.2688177E-009  0.1087991E+03  0.7561462E-02  0.1262810E+00
          2   -1    0    0  501    0  0.00000000000E+00  0.00000000000E+00  0.89154060330E+03  0.89154060330E+03  0.00000000000E+00 0. -1.
         -2   -1    0    0    0  501 -0.00000000000E+00 -0.00000000000E+00 -0.86490638459E+02  0.86490638459E+02  0.00000000000E+00 0.  1.
         25    2    1    2    0    0 -0.78828091081E+02  0.57400605339E+02  0.82823896746E+03  0.84328886682E+03  0.12509048023E+03 0.  0.
          5    1    3    3  502    0 -0.56278289707E+01 -0.10401349132E+02  0.50086542953E+03  0.50102246598E+03  0.41800000000E+01 0. -1.
         -5    1    3    3    0  502 -0.73200262110E+02  0.67801954472E+02  0.32737353794E+03  0.34226640084E+03  0.41800000000E+01 0. -1.
        -11    1    1    2    0    0  0.76183038024E+02 -0.37132334936E+02  0.19896001912E+02  0.87054675190E+02  0.00000000000E+00 0.  1.
         11    1    1    2    0    0  0.26450530566E+01 -0.20268270404E+02 -0.43085004538E+02  0.47687699744E+02  0.00000000000E+00 0. -1.
</event>
<event>
 7    1  0.2688177E-009  0.3361211E+03  0.7561462E-02  0.1068460E+00
          2   -1    0    0  501    0  0.00000000000E+00  0.00000000000E+00  0.25019427461E+04  0.25019427461E+04  0.00000000000E+00 0. -1.
         -2   -1    0    0    0  501 -0.00000000000E+00 -0.00000000000E+00 -0.97201376913E+02  0.97201376913E+02  0.00000000000E+00 0.  1.
         25    2    1    2    0    0  0.14497259032E+03  0.29134393010E+03  0.21444725886E+04  0.21726274687E+04  0.12509635155E+03 0.  0.
          5    1    3    3  502    0  0.74805406303E+02  0.62994718287E+02  0.39661848690E+03  0.40851913039E+03  0.41800000000E+01 0.  1.
         -5    1    3    3    0  502  0.70167184013E+02  0.22834921181E+03  0.17478541016E+04  0.17641083383E+04  0.41800000000E+01 0.  1.
        -11    1    1    2    0    0 -0.38309646493E+02 -0.18624023994E+02  0.51749928539E+02  0.67026400679E+02  0.00000000000E+00 0.  1.
         11    1    1    2    0    0 -0.10666294382E+03 -0.27271990611E+03  0.20851885208E+03  0.35949025362E+03  0.00000000000E+00 0. -1.
</event>
<event>
 7    1  0.2688177E-009  0.1460346E+03  0.7561462E-02  0.1205432E+00
          2   -1    0    0  501    0  0.00000000000E+00  0.00000000000E+00  0.14082122702E+03  0.14082122702E+03  0.00000000000E+00 0. -1.
         -2   -1    0    0    0  501 -0.00000000000E+00 -0.00000000000E+00 -0.22819892964E+03  0.22819892964E+03  0.00000000000E+00 0.  1.
         25    2    1    2    0    0 -0.11095924364E+03  0.93257065003E+02 -0.80011633541E+02  0.20750336816E+03  0.12508777867E+03 0.  0.
          5    1    3    3  502    0 -0.35977044109E+02  0.21115516850E+02  0.33349877122E+02  0.53571442567E+02  0.41800000000E+01 0. -1.
         -5    1    3    3    0  502 -0.74982199529E+02  0.72141548152E+02 -0.11336151066E+03  0.15393192559E+03  0.41800000000E+01 0. -1.
        -11    1    1    2    0    0  0.16508374465E+02 -0.22915190870E+02 -0.30426331765E+02  0.41513781624E+02  0.00000000000E+00 0.  1.
         11    1    1    2    0    0  0.94450869173E+02 -0.70341874133E+02  0.23060262684E+02  0.12000300688E+03  0.00000000000E+00 0. -1.
</event>
<event>
 7    1  0.2688177E-009  0.1483317E+03  0.7561462E-02  0.1202538E+00
          2   -1    0    0  501    0  0.00000000000E+00  0.00000000000E+00  0.16070686644E+04  0.16070686644E+04  0.00000000000E+00 0. -1.
         -2   -1    0    0    0  501 -0.00000000000E+00 -0.00000000000E+00 -0.18698620201E+02  0.18698620201E+02  0.00000000000E+00 0.  1.
         25    2    1    2    0    0 -0.11250279605E+03 -0.69655063123E+02  0.96994023186E+03  0.98688406449E+03  0.12508955359E+03 0.  0.
          5    1    3    3  502    0 -0.54547428652E+02 -0.61298933596E+02  0.22323074071E+03  0.23787058926E+03  0.41800000000E+01 0. -1.
         -5    1    3    3    0  502 -0.57955367394E+02 -0.83561295277E+01  0.74670949115E+03  0.74901347523E+03  0.41800000000E+01 0. -1.
        -11    1    1    2    0    0  0.79632034660E+02  0.87569980772E+02  0.52614895924E+03  0.53929814555E+03  0.00000000000E+00 0. -1.
         11    1    1    2    0    0  0.32870761386E+02 -0.17914917648E+02  0.92280853053E+02  0.99585074527E+02  0.00000000000E+00 0.  1.
</event>
<event>
 7    1  0.2688177E-009  0.3484799E+03  0.7561462E-02  0.1063241E+00
          2   -1    0    0  501    0  0.00000000000E+00  0.00000000000E+00  0.71484273246E+03  0.71484273246E+03  0.00000000000E+00 0.  1.
         -2   -1    0    0    0  501 -0.00000000000E+00 -0.00000000000E+00 -0.30196976103E+03  0.30196976103E+03  0.00000000000E+00 0. -1.
         25    2    1    2    0    0 -0.65063742894E+02 -0.33142862978E+03  0.53589243930E+03  0.64568307633E+03  0.12509077219E+03 0.  0.
          5    1    3    3  502    0  0.53279934886E+01 -0.19007133305E+03  0.37347204005E+03  0.41911136499E+03  0.41800000000E+01 0.  1.
         -5    1    3    3    0  502 -0.70391736382E+02 -0.14135729673E+03  0.16242039925E+03  0.22657171135E+03  0.41800000000E+01 0.  1.
        -11    1    1    2    0    0  0.59925115299E+01  0.23919465226E+03 -0.99329003398E+02  0.25906802732E+03  0.00000000000E+00 0. -1.
         11    1    1    2    0    0  0.59071231364E+02  0.92233977524E+02 -0.23690464473E+02  0.11206138983E+03  0.00000000000E+00 0.  1.
</event>
<event>
 7    1  0.2688177E-009  0.9811475E+02  0.7561462E-02  0.1284311E+00
         -1   -1    0    0    0  501 -0.00000000000E+00  0.00000000000E+00  0.41827948916E+02  0.41827948916E+02  0.00000000000E+00 0.  1.
          1   -1    0    0  501    0  0.00000000000E+00 -0.00000000000E+00 -0.32203168690E+03  0.32203168690E+03  0.00000000000E+00 0. -1.
         25    2    1    2    0    0 -0.22597297585E+02  0.24947756433E+02 -0.19217657237E+03  0.23175945667E+03  0.12509029689E+03 0.  0.
          5    1    3    3  502    0 -0.36926652674E+02  0.61817319118E+02 -0.17334123096E+03  0.18774880391E+03  0.41800000000E+01 0.  1.
         -5    1    3    3    0  502  0.14329355089E+02 -0.36869562685E+02 -0.18835341418E+02  0.44010652758E+02  0.41800000000E+01 0.  1.
        -11    1    1    2    0    0  0.45337770965E+02 -0.37062589768E+02 -0.24372605589E+02  0.63428486814E+02  0.00000000000E+00 0.  1.
         11    1    1    2    0    0 -0.22740473380E+02  0.12114833335E+02 -0.63654560019E+02  0.68671692330E+02  0.00000000000E+00 0. -1.
</event>
<event>
 7    1  0.2688177E-009  0.8447442E+02  0.7561462E-02  0.1316813E+00
          1   -1    0    0  501    0  0.00000000000E+00  0.00000000000E+00  0.78784576920E+03  0.78784576920E+03  0.00000000000E+00 0. -1.
         -1   -1    0    0    0  501 -0.00000000000E+00 -0.00000000000E+00 -0.29684122433E+02  0.29684122433E+02  0.00000000000E+00 0.  1.
         25    2    1    2    0    0 -0.82069930384E+01 -0.58674669945E+02  0.64696226796E+03  0.66160289701E+03  0.12509254791E+03 0.  0.
          5    1    3    3  502    0 -0.28674103358E+02  0.14808682150E+02  0.49260472478E+02  0.59038697641E+02  0.41800000000E+01 0. -1.
         -5    1    3    3    0  502  0.20467110319E+02 -0.73483352096E+02  0.59770179548E+03  0.60256419937E+03  0.41800000000E+01 0. -1.
        -11    1    1    2    0    0  0.16566253225E+00  0.35161378067E+02  0.12335107481E+03  0.12826471693E+03  0.00000000000E+00 0. -1.
         11    1    1    2    0    0  0.80413305062E+01  0.23513291878E+02 -0.12151696006E+02  0.27662277691E+02  0.00000000000E+00 0.  1.
</event>
<event>
 7    1  0.2688177E-009  0.1005532E+03  0.7561462E-02  0.1279137E+00
          1   -1    0    0  501    0  0.00000000000E+00  0.00000000000E+00  0.48488769076E+02  0.48488769076E+02  0.00000000000E+00 0. -1.
         -1   -1    0    0    0  501 -0.00000000000E+00 -0.00000000000E+00 -0.37860483118E+03  0.37860483118E+03  0.00000000000E+00 0.  1.
         25    2    1    2    0    0 -0.66045125902E+02  0.75211536244E+01 -0.11863032592E+03  0.18473131369E+03  0.12503590533E+03 0.  0.
          5    1    3    3  502    0 -0.97035386899E+00  0.19521050074E+02 -0.11670019367E+03  0.11839941125E+03  0.41800000000E+01 0. -1.
         -5    1    3    3    0  502 -0.65074772033E+02 -0.11999896449E+02 -0.19301322486E+01  0.66331902433E+02  0.41800000000E+01 0. -1.
        -11    1    1    2    0    0  0.29271701447E+02  0.43189723297E+02 -0.67286446389E+02  0.85144879891E+02  0.00000000000E+00 0. -1.
         11    1    1    2    0    0  0.36773424455E+02 -0.50710876921E+02 -0.14419928979E+03  0.15721740667E+03  0.00000000000E+00 0.  1.
</event>
<event>
 7    1  0.2688177E-009  0.1047907E+03  0.7561462E-02  0.1270533E+00
         -2   -1    0    0    0  501 -0.00000000000E+00  0.00000000000E+00  0.83131774599E+02  0.83131774599E+02  0.00000000000E+00 0.  1.
          2   -1    0    0  501    0  0.00000000000E+00 -0.00000000000E+00 -0.15600425031E+03  0.15600425031E+03  0.00000000000E+00 0. -1.
         25    2    1    2    0    0  0.12806378976E+02  0.32332188364E+02 -0.31738928279E+02  0.13365909761E+03  0.12509205035E+03 0.  0.
          5    1    3    3  502    0  0.40147533469E+02 -0.27221158692E+02  0.17339963944E+02  0.51681357120E+02  0.41800000000E+01 0.  1.
         -5    1    3    3    0  502 -0.27341154493E+02  0.59553347056E+02 -0.49078892223E+02  0.81977740493E+02  0.41800000000E+01 0.  1.
        -11    1    1    2    0    0 -0.50399057382E+02 -0.96109307776E+01 -0.32430484729E+02  0.60697374862E+02  0.00000000000E+00 0. -1.
         11    1    1    2    0    0  0.37592678406E+02 -0.22721257586E+02 -0.87030627059E+01  0.44779552437E+02  0.00000000000E+00 0.  1.
</event>
<event>
 7    1  0.2688177E-009  0.1150158E+03  0.7561462E-02  0.1251554E+00
         -2   -1    0    0    0  501 -0.00000000000E+00  0.00000000000E+00  0.18371393686E+03  0.18371393686E+03  0.00000000000E+00 0.  1.
          2   -1    0    0  501    0  0.00000000000E+00 -0.00000000000E+00 -0.97359202670E+02  0.97359202670E+02  0.00000000000E+00 0. -1.
         25    2    1    2    0    0 -0.36670249761E+02 -0.55510679514E+02  0.50660042969E+01  0.14176537748E+03  0.12508243320E+03 0.  0.
          5    1    3    3  502    0 -0.27273980926E+02 -0.87416428445E+02  0.33712571035E+02  0.97670424610E+02  0.41800000000E+01 0. -1.
         -5    1    3    3    0  502 -0.93962688350E+01  0.31905748931E+02 -0.28646566738E+02  0.44094952872E+02  0.41800000000E+01 0. -1.
        -11    1    1    2    0    0 -0.19674205080E+02 -0.68164268935E+01  0.41311015916E+02  0.46261626184E+02  0.00000000000E+00 0.  1.
         11    1    1    2    0    0  0.56344454841E+02  0.62327106407E+02  0.39977713976E+02  0.93046135863E+02  0.00000000000E+00 0. -1.
</event>
<event>
 7    1  0.2688177E-009  0.1182959E+03  0.7561462E-02  0.1245935E+00
          1   -1    0    0  501    0  0.00000000000E+00  0.00000000000E+00  0.47146123442E+03  0.47146123442E+03  0.00000000000E+00 0. -1.
         -1   -1    0    0    0  501 -0.00000000000E+00 -0.00000000000E+00 -0.32090192216E+02  0.32090192216E+02  0.00000000000E+00 0.  1.
         25    2    1    2    0    0  0.55543585944E+02  0.20804204485E+01  0.19908594720E+03  0.24161515895E+03  0.12511295927E+03 0.  0.
          5    1    3    3  502    0  0.94504411399E+02 -0.89481902616E+00  0.16190127200E+03  0.18751367617E+03  0.41800000000E+01 0.  1.
         -5    1    3    3    0  502 -0.38960825455E+02  0.29752394747E+01  0.37184675197E+02  0.54101482785E+02  0.41800000000E+01 0.  1.
        -11    1    1    2    0    0 -0.73122253252E+01 -0.40422662970E+02  0.11913230139E+03  0.12601573535E+03  0.00000000000E+00 0.  1.
         11    1    1    2    0    0 -0.48231360619E+02  0.38342242521E+02  0.12115279362E+03  0.13592053233E+03  0.00000000000E+00 0. -1.
</event>
<event>
 7    1  0.2688177E-009  0.2142492E+03  0.7561462E-02  0.1138245E+00
         -2   -1    0    0    0  501 -0.00000000000E+00  0.00000000000E+00  0.97808603306E+02  0.97808603306E+02  0.00000000000E+00 0.  1.
          2   -1    0    0  501    0  0.00000000000E+00 -0.00000000000E+00 -0.55218210510E+03  0.55218210510E+03  0.00000000000E+00 0. -1.
         25    2    1    2    0    0 -0.12042754084E+03  0.16570752501E+03 -0.22693015963E+03  0.33030871412E+03  0.12507906634E+03 0.  0.
          5    1    3    3  502    0 -0.79424909461E+02  0.99920755791E+02 -0.50095531698E+02  0.13718421329E+03  0.41800000000E+01 0. -1.
         -5    1    3    3    0  502 -0.41002631375E+02  0.65786769218E+02 -0.17683462793E+03  0.19312450083E+03  0.41800000000E+01 0. -1.
        -11    1    1    2    0    0  0.12939002798E+03 -0.11964020734E+03 -0.16371155570E+03  0.24053488733E+03  0.00000000000E+00 0. -1.
         11    1    1    2    0    0 -0.89624871490E+01 -0.46067317669E+02 -0.63731786463E+02  0.79147106952E+02  0.00000000000E+00 0.  1.
</event>
<event>
 7    1  0.2688177E-009  0.1555506E+03  0.7561462E-02  0.1193814E+00
         -1   -1    0    0    0  501 -0.00000000000E+00  0.00000000000E+00  0.17740790379E+03  0.17740790379E+03  0.00000000000E+00 0.  1.
          1   -1    0    0  501    0  0.00000000000E+00 -0.00000000000E+00 -0.14710481883E+03  0.14710481883E+03  0.00000000000E+00 0. -1.
         25    2    1    2    0    0  0.12008260594E+03 -0.17240901969E+02  0.12717800607E+02  0.17472013351E+03  0.12509317188E+03 0.  0.
          5    1    3    3  502    0  0.14115946693E+03  0.23775976606E+01 -0.37418710780E+01  0.14129091292E+03  0.41800000000E+01 0. -1.
         -5    1    3    3    0  502 -0.21076860992E+02 -0.19618499630E+02  0.16459671685E+02  0.33429220586E+02  0.41800000000E+01 0. -1.
        -11    1    1    2    0    0 -0.94903781455E+01  0.28081080113E+02  0.24499173417E+02  0.38455478619E+02  0.00000000000E+00 0.  1.
         11    1    1    2    0    0 -0.11059222780E+03 -0.10840178144E+02 -0.69138890625E+01  0.11133711049E+03  0.00000000000E+00 0. -1.
</event>
<event>
 7    1  0.2688177E-009  0.1641515E+03  0.7561462E-02  0.1184088E+00
          2   -1    0    0  501    0  0.00000000000E+00  0.00000000000E+00  0.83056167042E+03  0.83056167042E+03  0.00000000000E+00 0. -1.
         -2   -1    0    0    0  501 -0.00000000000E+00 -0.00000000000E+00 -0.40807258073E+02  0.40807258073E+02  0.00000000000E+00 0.  1.
         25    2    1    2    0    0  0.93728959243E+02 -0.10390557693E+03  0.52451643645E+03  0.55708762430E+03  0.12509053650E+03 0.  0.
          5    1    3    3  502    0  0.38133243412E+02  0.83005865643E+01  0.27596122408E+03  0.27873843220E+03  0.41800000000E+01 0. -1.
         -5    1    3    3    0  502  0.55595715832E+02 -0.11220616349E+03  0.24855521237E+03  0.27834919210E+03  0.41800000000E+01 0. -1.
        -11    1    1    2    0    0 -0.24910627409E+02 -0.13002742412E+02  0.79179029568E+02  0.84017435045E+02  0.00000000000E+00 0. -1.
         11    1    1    2    0    0 -0.68818331834E+02  0.11690831934E+03  0.18605894633E+03  0.23026386915E+03  0.00000000000E+00 0.  1.
</event>
<event>
 7    1  0.2688177E-009  0.1970950E+03  0.7561462E-02  0.1152213E+00
          1   -1    0    0  501    0  0.00000000000E+00  0.00000000000E+00  0.14126919059E+04  0.14126919059E+04  0.00000000000E+00 0. -1.
         -1   -1    0    0    0  501 -0.00000000000E+00 -0.00000000000E+00 -0.32648238634E+02  0.32648238634E+02  0.00000000000E+00 0.  1.
         25    2    1    2    0    0 -0.16807163168E+03 -0.72808719178E+02  0.75420914366E+03  0.78614763973E+03  0.12508995203E+03 0.  0.
          5    1    3    3  502    0 -0.17064555864E+03 -0.43522863664E+02  0.49829204846E+03  0.52851356114E+03  0.41800000000E+01 0. -1.
         -5    1    3    3    0  502  0.25739269678E+01 -0.29285855513E+02  0.25591709520E+03  0.25763407859E+03  0.41800000000E+01 0. -1.
        -11    1    1    2    0    0  0.37326775380E+01  0.12884393035E+02  0.52142681912E+01  0.14391978955E+02  0.00000000000E+00 0.  1.
         11    1    1    2    0    0  0.16433895414E+03  0.59924326143E+02  0.62062025537E+03  0.64480052581E+03  0.00000000000E+00 0. -1.
</event>
<event>
 7    1  0.2688177E-009  0.8536467E+02  0.7561462E-02  0.1314482E+00
         -2   -1    0    0    0  501 -0.00000000000E+00  0.00000000000E+00  0.79139935408E+02  0.79139935408E+02  0.00000000000E+00 0.  1.
          2   -1    0    0  501    0  0.00000000000E+00 -0.00000000000E+00 -0.22046966895E+03  0.22046966895E+03  0.00000000000E+00 0. -1.
         25    2    1    2    0    0  0.98502643075E+01 -0.18276967712E+02  0.59456809093E+00  0.12680850010E+03  0.12509583099E+03 0.  0.
          5    1    3    3  502    0  0.20921464755E+02 -0.49841748687E+02 -0.44755041951E+02  0.70302160562E+02  0.41800000000E+01 0.  1.
         -5    1    3    3    0  502 -0.11071200447E+02  0.31564780975E+02  0.45349610042E+02  0.56506339541E+02  0.41800000000E+01 0.  1.
        -11    1    1    2    0    0  0.26067336380E+02  0.34624616402E+02 -0.26459212597E+02  0.50778538953E+02  0.00000000000E+00 0.  1.
         11    1    1    2    0    0 -0.35917600688E+02 -0.16347648690E+02 -0.11546508903E+03  0.12202256530E+03  0.00000000000E+00 0. -1.
</event>
<event>
 7    1  0.2688177E-009  0.1394903E+03  0.7561462E-02  0.1214016E+00
         -2   -1    0    0    0  501 -0.00000000000E+00  0.00000000000E+00  0.18297424819E+03  0.18297424819E+03  0.00000000000E+00 0.  1.
          2   -1    0    0  501    0  0.00000000000E+00 -0.00000000000E+00 -0.11131998341E+03  0.11131998341E+03  0.00000000000E+00 0. -1.
         25    2    1    2    0    0  0.84662138784E+02  0.17596596807E+02  0.85532463591E+01  0.15230932821E+03  0.12509058907E+03 0.  0.
          5    1    3    3  502    0 -0.10518823613E+02  0.49920708743E+02  0.72131332124E+01  0.51693563452E+02  0.41800000000E+01 0.  1.
         -5    1    3    3    0  502  0.95180962397E+02 -0.32324111936E+02  0.13401131467E+01  0.10061576476E+03  0.41800000000E+01 0.  1.
        -11    1    1    2    0    0  0.14402366475E+02  0.16975594974E+02  0.11603843391E+02  0.25104743900E+02  0.00000000000E+00 0.  1.
         11    1    1    2    0    0 -0.99064505259E+02 -0.34572191781E+02  0.51497175021E+02  0.11688015949E+03  0.00000000000E+00 0. -1.
</event>
<event>
 7    1  0.2688177E-009  0.1169827E+03  0.7561462E-02  0.1248159E+00
          2   -1    0    0  501    0  0.00000000000E+00  0.00000000000E+00  0.18414498217E+02  0.18414498217E+02  0.00000000000E+00 0. -1.
         -2   -1    0    0    0  501 -0.00000000000E+00 -0.00000000000E+00 -0.85742045794E+03  0.85742045794E+03  0.00000000000E+00 0.  1.
         25    2    1    2    0    0  0.58657139089E+02  0.99351227046E+01 -0.38571948082E+03  0.40983660200E+03  0.12508859190E+03 0.  0.
          5    1    3    3  502    0  0.18077329427E+02 -0.56229439819E+02 -0.19789583113E+03  0.20656420823E+03  0.41800000000E+01 0. -1.
         -5    1    3    3    0  502  0.40579809663E+02  0.66164562524E+02 -0.18782364969E+03  0.20327239377E+03  0.41800000000E+01 0. -1.
        -11    1    1    2    0    0 -0.60205118943E+02 -0.36505697981E+02 -0.40298372402E+03  0.40908825961E+03  0.00000000000E+00 0.  1.
         11    1    1    2    0    0  0.15479798532E+01  0.26570575276E+02 -0.50302754882E+02  0.56910094543E+02  0.00000000000E+00 0. -1.
</event>
<event>
 7    1  0.2688177E-009  0.1599235E+03  0.7561462E-02  0.1188783E+00
         -1   -1    0    0    0  501 -0.00000000000E+00  0.00000000000E+00  0.56031350860E+03  0.56031350860E+03  0.00000000000E+00 0. -1.
          1   -1    0    0  501    0  0.00000000000E+00 -0.00000000000E+00 -0.56090039542E+02  0.56090039542E+02  0.00000000000E+00 0.  1.
         25    2    1    2    0    0 -0.58647914141E+02 -0.12701520737E+03  0.25666599884E+03  0.31795402367E+03  0.12507951658E+03 0.  0.
          5    1    3    3  502    0 -0.69891441702E+02 -0.12950477402E+03  0.26499230227E+03  0.30314137424E+03  0.41800000000E+01 0.  1.
         -5    1    3    3    0  502  0.11243527561E+02  0.24895666486E+01 -0.83263034265E+01  0.14812649421E+02  0.41800000000E+01 0.  1.
        -11    1    1    2    0    0  0.76448894281E+02  0.82715364512E+02  0.20762517335E+03  0.23620854678E+03  0.00000000000E+00 0. -1.
         11    1    1    2    0    0 -0.17800980140E+02  0.44299842861E+02  0.39932296863E+02  0.62240977694E+02  0.00000000000E+00 0.  1.
</event>
<event>
 7    1  0.2688177E-009  0.1775425E+03  0.7561462E-02  0.1170203E+00
          2   -1    0    0  501    0  0.00000000000E+00  0.00000000000E+00  0.14037850143E+04  0.14037850143E+04  0.00000000000E+00 0. -1.
         -2   -1    0    0    0  501 -0.00000000000E+00 -0.00000000000E+00 -0.25320410326E+02  0.25320410326E+02  0.00000000000E+00 0.  1.
         25    2    1    2    0    0  0.15101244140E+03 -0.22605263478E+02  0.86702957688E+03  0.88921501893E+03  0.12508919741E+03 0.  0.
          5    1    3    3  502    0  0.13630975855E+03 -0.63765206763E+02  0.59990713282E+03  0.61850819904E+03  0.41800000000E+01 0.  1.
         -5    1    3    3    0  502  0.14702682848E+02  0.41159943285E+02  0.26712244407E+03  0.27070681990E+03  0.41800000000E+01 0.  1.
        -11    1    1    2    0    0 -0.10071219261E+03 -0.91836143841E+01  0.21572565607E+03  0.23825373701E+03  0.00000000000E+00 0.  1.
         11    1    1    2    0    0 -0.50300248791E+02  0.31788877862E+02  0.29570937105E+03  0.30163666871E+03  0.00000000000E+00 0. -1.
</event>
<event>
 7    1  0.2688177E-009  0.1150223E+03  0.7561462E-02  0.1251542E+00
         -2   -1    0    0    0  501 -0.00000000000E+00  0.00000000000E+00  0.23875802984E+02  0.23875802984E+02  0.00000000000E+00 0. -1.
          2   -1    0    0  501    0  0.00000000000E+00 -0.00000000000E+00 -0.90771858564E+03  0.90771858564E+03  0.00000000000E+00 0.  1.
         25    2    1    2    0    0  0.36837080494E+02 -0.84916818447E+02 -0.59115183944E+03  0.61129054671E+03  0.12509116144E+03 0.  0.
          5    1    3    3  502    0 -0.67577122562E+01 -0.21079451540E+02 -0.44783559116E+03  0.44840182767E+03  0.41800000000E+01 0. -1.
         -5    1    3    3    0  502  0.43594792750E+02 -0.63837366907E+02 -0.14331624828E+03  0.16288871904E+03  0.41800000000E+01 0. -1.
        -11    1    1    2    0    0 -0.64280427831E+02  0.79314816907E+02 -0.22925674255E+03  0.25096108780E+03  0.00000000000E+00 0. -1.
         11    1    1    2    0    0  0.27443347337E+02  0.56020015391E+01 -0.63434200664E+02  0.69342754115E+02  0.00000000000E+00 0.  1.
</event>
<event>
 7    1  0.2783631E-009  0.2245706E+03  0.7561462E-02  0.1130521E+00
         -2   -1    0    0    0  501 -0.00000000000E+00  0.00000000000E+00  0.59584275203E+02  0.59584275203E+02  0.00000000000E+00 0.  1.
          2   -1    0    0  501    0  0.00000000000E+00 -0.00000000000E+00 -0.93081992117E+03  0.93081992117E+03  0.00000000000E+00 0. -1.
         25    2    1    2    0    0 -0.11645305292E+03 -0.15982940750E+03 -0.31139067848E+03  0.38951073723E+03  0.12509079396E+03 0.  0.
          5    1    3    3  502    0 -0.73541340341E+02 -0.65702694592E+01 -0.83853348776E+02  0.11180498057E+03  0.41800000000E+01 0.  1.
         -5    1    3    3    0  502 -0.42911712584E+02 -0.15325913805E+03 -0.22753732970E+03  0.27770575665E+03  0.41800000000E+01 0.  1.
        -11    1    1    2    0    0  0.99027966948E+02  0.62495493352E+02 -0.25968704530E+03  0.28486766475E+03  0.00000000000E+00 0.  1.
         11    1    1    2    0    0  0.17425085976E+02  0.97333914153E+02 -0.30015792219E+03  0.31602579439E+03  0.00000000000E+00 0. -1.
</event>
<event>
 7    1  0.2688177E-009  0.7152320E+02  0.7561462E-02  0.1354989E+00
          2   -1    0    0  501    0  0.00000000000E+00  0.00000000000E+00  0.13718456286E+03  0.13718456286E+03  0.00000000000E+00 0.  1.
         -2   -1    0    0    0  501 -0.00000000000E+00 -0.00000000000E+00 -0.85171292497E+02  0.85171292497E+02  0.00000000000E+00 0. -1.
         25    2    1    2    0    0  0.40397974204E+00  0.25117393732E+02  0.41510347558E+02  0.13417011234E+03  0.12508982142E+03 0.  0.
          5    1    3    3  502    0  0.27126625683E+02  0.13194263580E+02  0.80022877569E+02  0.85621701378E+02  0.41800000000E+01 0.  1.
         -5    1    3    3    0  502 -0.26722645941E+02  0.11923130151E+02 -0.38512530011E+02  0.48548410958E+02  0.41800000000E+01 0.  1.
        -11    1    1    2    0    0  0.33196550539E+02  0.97627323247E+01  0.18279328051E+02  0.39133818420E+02  0.00000000000E+00 0.  1.
         11    1    1    2    0    0 -0.33600530281E+02 -0.34880126056E+02 -0.77764052428E+01  0.49051924604E+02  0.00000000000E+00 0. -1.
</event>
<event>
 7    1  0.2688177E-009  0.1100323E+03  0.7561462E-02  0.1260510E+00
          1   -1    0    0  501    0  0.00000000000E+00  0.00000000000E+00  0.22846615055E+02  0.22846615055E+02  0.00000000000E+00 0. -1.
         -1   -1    0    0    0  501 -0.00000000000E+00 -0.00000000000E+00 -0.80864560737E+03  0.80864560737E+03  0.00000000000E+00 0.  1.
         25    2    1    2    0    0  0.60850411098E+02  0.40007986526E+02 -0.53350216307E+03  0.55278880308E+03  0.12508993283E+03 0.  0.
          5    1    3    3  502    0  0.12553057069E+02  0.60861228646E+02 -0.11334077693E+03  0.12932622514E+03  0.41800000000E+01 0.  1.
         -5    1    3    3    0  502  0.48297354029E+02 -0.20853242120E+02 -0.42016138614E+03  0.42346257794E+03  0.41800000000E+01 0.  1.
        -11    1    1    2    0    0 -0.72563204055E+02 -0.10573048027E+02 -0.10520793607E+03  0.12824163809E+03  0.00000000000E+00 0. -1.
         11    1    1    2    0    0  0.11712792956E+02 -0.29434938499E+02 -0.14708889317E+03  0.15046178125E+03  0.00000000000E+00 0.  1.
</event>
<event>
 7    1  0.2688177E-009  0.1239002E+03  0.7561462E-02  0.1236798E+00
          3   -1    0    0  501    0  0.00000000000E+00  0.00000000000E+00  0.14331905946E+03  0.14331905946E+03  0.00000000000E+00 0. -1.
         -3   -1    0    0    0  501 -0.00000000000E+00 -0.00000000000E+00 -0.16877591844E+03  0.16877591844E+03  0.00000000000E+00 0.  1.
         25    2    1    2    0    0 -0.80618511758E+02 -0.25042025384E+02  0.58840507810E+02  0.16197491456E+03  0.12508884888E+03 0.  0.
          5    1    3    3  502    0  0.16465032668E+01  0.32983249059E+02 -0.15541042298E+02  0.36736930836E+02  0.41800000000E+01 0.  1.
         -5    1    3    3    0  502 -0.82265015025E+02 -0.58025274443E+02  0.74381550108E+02  0.12523798373E+03  0.41800000000E+01 0.  1.
        -11    1    1    2    0    0 -0.50964959443E+01 -0.17384041255E+02  0.54986241548E+01  0.18931825820E+02  0.00000000000E+00 0.  1.
         11    1    1    2    0    0  0.85715007703E+02  0.42426066639E+02 -0.89795990944E+02  0.13118823753E+03  0.00000000000E+00 0. -1.
</event>
<event>
 7    1  0.2688177E-009  0.1108573E+03  0.7561462E-02  0.1258990E+00
          1   -1    0    0  501    0  0.00000000000E+00  0.00000000000E+00  0.67176518039E+03  0.67176518039E+03  0.00000000000E+00 0. -1.
         -1   -1    0    0    0  501 -0.00000000000E+00 -0.00000000000E+00 -0.22646489908E+02  0.22646489908E+02  0.00000000000E+00 0.  1.
         25    2    1    2    0    0  0.10629111728E+02  0.52597805750E+02  0.45144432876E+03  0.47151808852E+03  0.12509124125E+03 0.  0.
          5    1    3    3  502    0  0.49887494593E+02  0.61415387249E+02  0.17464559064E+03  0.19177895254E+03  0.41800000000E+01 0. -1.
         -5    1    3    3    0  502 -0.39258382865E+02 -0.88175814986E+01  0.27679873813E+03  0.27973913598E+03  0.41800000000E+01 0. -1.
        -11    1    1    2    0    0  0.35582753789E+02 -0.54303706124E+01  0.55757024632E+02  0.66366159208E+02  0.00000000000E+00 0. -1.
         11    1    1    2    0    0 -0.46211865517E+02 -0.47167435138E+02  0.14191733708E+03  0.15652742257E+03  0.00000000000E+00 0.  1.
</event>
<event>
 7    1  0.2688177E-009  0.1092631E+03  0.7561462E-02  0.1261941E+00
         -4   -1    0    0    0  501 -0.00000000000E+00  0.00000000000E+00  0.47782694538E+02  0.47782694538E+02  0.00000000000E+00 0.  1.
          4   -1    0    0  501    0  0.00000000000E+00 -0.00000000000E+00 -0.50679283369E+03  0.50679283369E+03  0.00000000000E+00 0. -1.
         25    2    1    2    0    0  0.39147628095E+01 -0.10680964635E+03 -0.19117277876E+03  0.25222496510E+03  0.12508707272E+03 0.  0.
          5    1    3    3  502    0 -0.74508953107E+01 -0.92079315964E+02 -0.41530270880E+02  0.10137234371E+03  0.41800000000E+01 0.  1.
         -5    1    3    3    0  502  0.11365658120E+02 -0.14730330385E+02 -0.14964250788E+03  0.15085262139E+03  0.41800000000E+01 0.  1.
        -11    1    1    2    0    0 -0.44065770248E+01  0.56993146079E+02 -0.41612924739E+02  0.70705531088E+02  0.00000000000E+00 0.  1.
         11    1    1    2    0    0  0.49181421532E+00  0.49816500270E+02 -0.22622443566E+03  0.23164503204E+03  0.00000000000E+00 0. -1.
</event>
<event>
 7    1  0.2688177E-009  0.1724756E+03  0.7561462E-02  0.1175291E+00
         -1   -1    0    0    0  501 -0.00000000000E+00  0.00000000000E+00  0.13201550925E+03  0.13201550925E+03  0.00000000000E+00 0.  1.
          1   -1    0    0  501    0  0.00000000000E+00 -0.00000000000E+00 -0.25729510460E+03  0.25729510460E+03  0.00000000000E+00 0. -1.
         25    2    1    2    0    0 -0.94465341851E+02 -0.10290944625E+03 -0.12168409047E+02  0.18790820005E+03  0.12508943412E+03 0.  0.
          5    1    3    3  502    0 -0.10250304467E+02  0.28624335854E+02 -0.75267244099E+01  0.31599767801E+02  0.41800000000E+01 0.  1.
         -5    1    3    3    0  502 -0.84215037384E+02 -0.13153378210E+03 -0.46416846367E+01  0.15630843225E+03  0.41800000000E+01 0.  1.
        -11    1    1    2    0    0 -0.12591332907E+02  0.14279289825E+02 -0.40142903532E+02  0.44428509836E+02  0.00000000000E+00 0. -1.
         11    1    1    2    0    0  0.10705667476E+03  0.88630156420E+02 -0.72968282769E+02  0.15697390397E+03  0.00000000000E+00 0.  1.
</event>
<event>
 7    1  0.2688177E-009  0.1235476E+03  0.7561462E-02  0.1237357E+00
         -2   -1    0    0    0  501 -0.00000000000E+00  0.00000000000E+00  0.26457311538E+02  0.26457311538E+02  0.00000000000E+00 0.  1.
          2   -1    0    0  501    0  0.00000000000E+00 -0.00000000000E+00 -0.10624855672E+04  0.10624855672E+04  0.00000000000E+00 0. -1.
         25    2    1    2    0    0  0.90087626710E+02  0.56725672145E+01 -0.84008094420E+03  0.85412772595E+03  0.12510084302E+03 0.  0.
          5    1    3    3  502    0  0.76511484815E+02 -0.29401772063E+02 -0.77104394814E+03  0.77539971233E+03  0.41800000000E+01 0. -1.
         -5    1    3    3    0  502  0.13576141894E+02  0.35074339277E+02 -0.69036996061E+02  0.78728013626E+02  0.41800000000E+01 0. -1.
        -11    1    1    2    0    0 -0.87527246479E+02  0.29157984479E+02 -0.12125694057E+03  0.15236289762E+03  0.00000000000E+00 0. -1.
         11    1    1    2    0    0 -0.25603802302E+01 -0.34830551693E+02 -0.74690370889E+02  0.82452255165E+02  0.00000000000E+00 0.  1.
</event>
<event>
 7    1  0.2688177E-009  0.1411536E+03  0.7561462E-02  0.1211785E+00
          1   -1    0    0  501    0  0.00000000000E+00  0.00000000000E+00  0.34997719095E+03  0.34997719095E+03  0.00000000000E+00 0. -1.
         -1   -1    0    0    0  501 -0.00000000000E+00 -0.00000000000E+00 -0.22315305387E+03  0.22315305387E+03  0.00000000000E+00 0.  1.
         25    2    1    2    0    0  0.91565243987E+02 -0.10472313281E+03  0.28628483170E+03  0.34198827352E+03  0.12508335584E+03 0.  0.
          5    1    3    3  502    0  0.31619095717E+02 -0.25025387959E+02  0.18877467119E+01  0.40584150158E+02  0.41800000000E+01 0.  1.
         -5    1    3    3    0  502  0.59946148270E+02 -0.79697744856E+02  0.28439708499E+03  0.30140412336E+03  0.41800000000E+01 0.  1.
        -11    1    1    2    0    0 -0.27556730818E+02  0.52701025522E+02 -0.13103415789E+03  0.14389830450E+03  0.00000000000E+00 0.  1.
         11    1    1    2    0    0 -0.64008513169E+02  0.52022107292E+02 -0.28426536743E+02  0.87243666798E+02  0.00000000000E+00 0. -1.
</event>
<event>
 7    1  0.2688177E-009  0.1039128E+03  0.7561462E-02  0.1272277E+00
         -3   -1    0    0    0  501 -0.00000000000E+00  0.00000000000E+00  0.27676041957E+03  0.27676041957E+03  0.00000000000E+00 0.  1.
          3   -1    0    0  501    0  0.00000000000E+00 -0.00000000000E+00 -0.51754772360E+02  0.51754772360E+02  0.00000000000E+00 0. -1.
         25    2    1    2    0    0  0.41214671853E+02  0.55417900062E+01  0.92357990040E+02  0.16095796965E+03  0.12509240208E+03 0.  0.
          5    1    3    3  502    0  0.71949322326E+02  0.18325711284E+02  0.10183466811E+03  0.12609642622E+03  0.41800000000E+01 0. -1.
         -5    1    3    3    0  502 -0.30734650472E+02 -0.12783921278E+02 -0.94766780714E+01  0.34861543428E+02  0.41800000000E+01 0. -1.
        -11    1    1    2    0    0  0.24289849432E+02  0.18079096184E+02  0.58290437230E+02  0.65685809554E+02  0.00000000000E+00 0.  1.
         11    1    1    2    0    0 -0.65504521285E+02 -0.23620886190E+02  0.74357219938E+02  0.10187141272E+03  0.00000000000E+00 0. -1.
</event>
<event>
 7    1  0.2688177E-009  0.7713300E+02  0.7561462E-02  0.1337390E+00
         -1   -1    0    0    0  501 -0.00000000000E+00  0.00000000000E+00  0.13521359473E+03  0.13521359473E+03  0.00000000000E+00 0.  1.
          1   -1    0    0  501    0  0.00000000000E+00 -0.00000000000E+00 -0.88759198076E+02  0.88759198076E+02  0.00000000000E+00 0. -1.
         25    2    1    2    0    0 -0.12477125096E+02 -0.12086133093E+02  0.24590009591E+02  0.12866058013E+03  0.12508846088E+03 0.  0.
          5    1    3    3  502    0 -0.34012767211E+02 -0.23890959263E+02  0.67302898637E+02  0.79213627822E+02  0.41800000000E+01 0. -1.
         -5    1    3    3    0  502  0.21535642115E+02  0.11804826170E+02 -0.42712889046E+02  0.49446952311E+02  0.41800000000E+01 0. -1.
        -11    1    1    2    0    0 -0.33046106247E+02 -0.13106324692E+02 -0.63691398893E+01  0.36116295878E+02  0.00000000000E+00 0. -1.
         11    1    1    2    0    0  0.45523231343E+02  0.25192457784E+02  0.28233526955E+02  0.59195916797E+02  0.00000000000E+00 0.  1.
</event>
<event>
 7    1  0.2688177E-009  0.1694789E+03  0.7561462E-02  0.1178392E+00
         -1   -1    0    0    0  501 -0.00000000000E+00  0.00000000000E+00  0.87223779660E+02  0.87223779660E+02  0.00000000000E+00 0.  1.
          1   -1    0    0  501    0  0.00000000000E+00 -0.00000000000E+00 -0.48025451664E+03  0.48025451664E+03  0.00000000000E+00 0. -1.
         25    2    1    2    0    0 -0.12988235721E+03  0.51121951205E+02 -0.64328934150E+02  0.19816264066E+03  0.12508932718E+03 0.  0.
          5    1    3    3  502    0 -0.80812559657E+02 -0.35029641798E+02 -0.28850083105E+02  0.92776857556E+02  0.41800000000E+01 0. -1.
         -5    1    3    3    0  502 -0.49069797556E+02  0.86151593002E+02 -0.35478851045E+02  0.10538578310E+03  0.41800000000E+01 0. -1.
        -11    1    1    2    0    0  0.38532507557E+02 -0.46065985518E+02 -0.57685344172E+02  0.83273213536E+02  0.00000000000E+00 0.  1.
         11    1    1    2    0    0  0.91349849656E+02 -0.50559656867E+01 -0.27101645866E+03  0.28604244210E+03  0.00000000000E+00 0. -1.
</event>
<event>
 7    1  0.2688177E-009  0.8581235E+02  0.7561462E-02  0.1313322E+00
         -1   -1    0    0    0  501 -0.00000000000E+00  0.00000000000E+00  0.68324234465E+02  0.68324234465E+02  0.00000000000E+00 0.  1.
          1   -1    0    0  501    0  0.00000000000E+00 -0.00000000000E+00 -0.21737311086E+03  0.21737311086E+03  0.00000000000E+00 0. -1.
         25    2    1    2    0    0 -0.33173193829E+02  0.45103732693E+02 -0.80817924742E+02  0.15910543991E+03  0.12509275182E+03 0.  0.
          5    1    3    3  502    0 -0.34413274183E+01  0.41136333489E+02 -0.10968263423E+03  0.11726804049E+03  0.41800000000E+01 0. -1.
         -5    1    3    3    0  502 -0.29731866411E+02  0.39673992043E+01  0.28864709490E+02  0.41837399425E+02  0.41800000000E+01 0. -1.
        -11    1    1    2    0    0  0.37351310696E+02  0.14522990348E+02 -0.50045338621E+02  0.64113754976E+02  0.00000000000E+00 0. -1.
         11    1    1    2    0    0 -0.41781168670E+01 -0.59626723041E+02 -0.18185613035E+02  0.62478150441E+02  0.00000000000E+00 0.  1.
</event>
<event>
 7    1  0.2688177E-009  0.9422050E+02  0.7561462E-02  0.1292941E+00
          2   -1    0    0  501    0  0.00000000000E+00  0.00000000000E+00  0.42093555867E+03  0.42093555867E+03  0.00000000000E+00 0. -1.
         -2   -1    0    0    0  501 -0.00000000000E+00 -0.00000000000E+00 -0.38901949255E+02  0.38901949255E+02  0.00000000000E+00 0.  1.
         25    2    1    2    0    0 -0.38753539489E+01  0.69318696921E+02  0.21401601376E+03  0.25743016425E+03  0.12508930893E+03 0.  0.
          5    1    3    3  502    0 -0.74495950203E+01  0.78808816645E+02  0.51469653520E+02  0.94514145398E+02  0.41800000000E+01 0. -1.
         -5    1    3    3    0  502  0.35742410713E+01 -0.94901197239E+01  0.16254636024E+03  0.16291601885E+03  0.41800000000E+01 0. -1.
        -11    1    1    2    0    0  0.29289399582E+02 -0.58959950818E+01  0.12207359428E+02  0.32274623314E+02  0.00000000000E+00 0.  1.
         11    1    1    2    0    0 -0.25414045633E+02 -0.63422701839E+02  0.15581023622E+03  0.17013272036E+03  0.00000000000E+00 0. -1.
</event>
<event>
 7    1  0.2688177E-009  0.1560545E+03  0.7561462E-02  0.1193225E+00
          1   -1    0    0  501    0  0.00000000000E+00  0.00000000000E+00  0.30024359370E+03  0.30024359370E+03  0.00000000000E+00 0. -1.
         -1   -1    0    0    0  501 -0.00000000000E+00 -0.00000000000E+00 -0.10293896314E+03  0.10293896314E+03  0.00000000000E+00 0.  1.
         25    2    1    2    0    0  0.69253108294E+02  0.11325500250E+03  0.14942768006E+03  0.23579338690E+03  0.12508877303E+03 0.  0.
          5    1    3    3  502    0 -0.14309500779E+02  0.31137006593E+02  0.10482362078E+03  0.11036185422E+03  0.41800000000E+01 0.  1.
         -5    1    3    3    0  502  0.83562609073E+02  0.82117995912E+02  0.44604059281E+02  0.12543153269E+03  0.41800000000E+01 0.  1.
        -11    1    1    2    0    0  0.10446116130E+02 -0.67808133994E+02  0.22377152067E+02  0.72165097607E+02  0.00000000000E+00 0. -1.
         11    1    1    2    0    0 -0.79699224424E+02 -0.45446868511E+02  0.25499798432E+02  0.95224072331E+02  0.00000000000E+00 0.  1.
</event>
<event>
 7    1  0.2688177E-009  0.1084226E+03  0.7561462E-02  0.1263519E+00
          1   -1    0    0  501    0  0.00000000000E+00  0.00000000000E+00  0.75969137719E+02  0.75969137719E+02  0.00000000000E+00 0. -1.
         -1   -1    0    0    0  501 -0.00000000000E+00 -0.00000000000E+00 -0.25704776046E+03  0.25704776046E+03  0.00000000000E+00 0.  1.
         25    2    1    2    0    0 -0.10684337261E+01 -0.41460995779E+02 -0.19026906504E+03  0.23144725387E+03  0.12508140746E+03 0.  0.
          5    1    3    3  502    0 -0.46616267555E+02  0.23396324037E+02 -0.79803645776E+02  0.95428290660E+02  0.41800000000E+01 0.  1.
         -5    1    3    3    0  502  0.45547833829E+02 -0.64857319817E+02 -0.11046541926E+03  0.13601896321E+03  0.41800000000E+01 0.  1.
        -11    1    1    2    0    0  0.24049443680E+02 -0.12064626603E+02 -0.22662957290E+02  0.35178695108E+02  0.00000000000E+00 0.  1.
         11    1    1    2    0    0 -0.22981009954E+02  0.53525622383E+02  0.31853399589E+02  0.66390949197E+02  0.00000000000E+00 0. -1.
</event>
<event>
 7    1  0.2688177E-009  0.1494620E+03  0.7561462E-02  0.1201136E+00
          2   -1    0    0  501    0  0.00000000000E+00  0.00000000000E+00  0.13694043201E+03  0.13694043201E+03  0.00000000000E+00 0. -1.
         -2   -1    0    0    0  501 -0.00000000000E+00 -0.00000000000E+00 -0.16905277549E+03  0.16905277549E+03  0.00000000000E+00 0.  1.
         25    2    1    2    0    0 -0.56024596101E+02 -0.90345647703E+02 -0.32162078129E+02  0.16728044256E+03  0.12508899139E+03 0.  0.
          5    1    3    3  502    0 -0.95264296086E+02 -0.54243717661E+02 -0.13024131200E+02  0.11047518911E+03  0.41800000000E+01 0. -1.
         -5    1    3    3    0  502  0.39239699985E+02 -0.36101930042E+02 -0.19137946930E+02  0.56805253458E+02  0.41800000000E+01 0. -1.
        -11    1    1    2    0    0  0.77347478581E+02  0.56708781245E+02 -0.13038990398E+02  0.96791185465E+02  0.00000000000E+00 0.  1.
         11    1    1    2    0    0 -0.21322882479E+02  0.33636866458E+02  0.13088725043E+02  0.41921579474E+02  0.00000000000E+00 0. -1.
</event>
<event>
 7    1  0.2688177E-009  0.1279989E+03  0.7561462E-02  0.1230456E+00
         -1   -1    0    0    0  501 -0.00000000000E+00  0.00000000000E+00  0.23380243979E+03  0.23380243979E+03  0.00000000000E+00 0.  1.
          1   -1    0    0  501    0  0.00000000000E+00 -0.00000000000E+00 -0.13600903674E+03  0.13600903674E+03  0.00000000000E+00 0. -1.
         25    2    1    2    0    0 -0.36816019760E+02  0.63272415862E+02  0.17715553003E+03  0.22888882717E+03  0.12508875034E+03 0.  0.
          5    1    3    3  502    0  0.43368933351E+02  0.81168834894E+01  0.34585034956E+02  0.56216947805E+02  0.41800000000E+01 0.  1.
         -5    1    3    3    0  502 -0.80184953111E+02  0.55155532372E+02  0.14257049508E+03  0.17267187936E+03  0.41800000000E+01 0.  1.
        -11    1    1    2    0    0 -0.66742744929E+01 -0.69948203984E+02 -0.61700100436E+02  0.93510424950E+02  0.00000000000E+00 0. -1.
         11    1    1    2    0    0  0.43490294253E+02  0.66757881224E+01 -0.17662026546E+02  0.47412224405E+02  0.00000000000E+00 0.  1.
</event>
<event>
 7    1  0.2688177E-009  0.1114688E+03  0.7561462E-02  0.1257874E+00
         -2   -1    0    0    0  501 -0.00000000000E+00  0.00000000000E+00  0.34862331810E+02  0.34862331810E+02  0.00000000000E+00 0.  1.
          2   -1    0    0  501    0  0.00000000000E+00 -0.00000000000E+00 -0.68386482341E+03  0.68386482341E+03  0.00000000000E+00 0. -1.
         25    2    1    2    0    0  0.14602967461E+02 -0.58616809066E+02 -0.13552077447E+03  0.19406812516E+03  0.12508948767E+03 0.  0.
          5    1    3    3  502    0  0.14910321239E+02  0.26454717290E+02 -0.94852196336E+02  0.99682402139E+02  0.41800000000E+01 0.  1.
         -5    1    3    3    0  502 -0.30735377799E+00 -0.85071526356E+02 -0.40668578133E+02  0.94385723022E+02  0.41800000000E+01 0.  1.
        -11    1    1    2    0    0  0.37472470045E+02  0.22064540238E+02 -0.18161132676E+03  0.18674502391E+03  0.00000000000E+00 0. -1.
         11    1    1    2    0    0 -0.52075437506E+02  0.36552268828E+02 -0.33187039037E+03  0.33791400615E+03  0.00000000000E+00 0.  1.
</event>
<event>
 7    1  0.2688177E-009  0.1493509E+03  0.7561462E-02  0.1201273E+00
          1   -1    0    0  501    0  0.00000000000E+00  0.00000000000E+00  0.27787735679E+03  0.27787735679E+03  0.00000000000E+00 0. -1.
         -1   -1    0    0    0  501 -0.00000000000E+00 -0.00000000000E+00 -0.81817980406E+02  0.81817980406E+02  0.00000000000E+00 0.  1.
         25    2    1    2    0    0 -0.92475429309E+02 -0.47841244217E+02  0.88188272632E+02  0.18510699826E+03  0.12508772801E+03 0.  0.
          5    1    3    3  502    0 -0.12319412262E+03 -0.33752595046E+02  0.77273771446E+02  0.14934770729E+03  0.41800000000E+01 0.  1.
         -5    1    3    3    0  502  0.30718693309E+02 -0.14088649171E+02  0.10914501186E+02  0.35759290964E+02  0.41800000000E+01 0.  1.
        -11    1    1    2    0    0  0.53023812675E+02 -0.21379932944E+02  0.51936859181E+02  0.77240297674E+02  0.00000000000E+00 0. -1.
         11    1    1    2    0    0  0.39451616634E+02  0.69221177161E+02  0.55934244574E+02  0.97348041267E+02  0.00000000000E+00 0.  1.
</event>
<event>
 7    1  0.2688177E-009  0.9616084E+02  0.7561462E-02  0.1288583E+00
         -1   -1    0    0    0  501 -0.00000000000E+00  0.00000000000E+00  0.35991115878E+02  0.35991115878E+02  0.00000000000E+00 0.  1.
          1   -1    0    0  501    0  0.00000000000E+00 -0.00000000000E+00 -0.33492044597E+03  0.33492044597E+03  0.00000000000E+00 0. -1.
         25    2    1    2    0    0 -0.35795853070E+01  0.17373708409E+02 -0.17592723970E+03  0.21659347535E+03  0.12509068999E+03 0.  0.
          5    1    3    3  502    0  0.22085133049E+02  0.52985548531E+02 -0.31557022933E+02  0.65639466415E+02  0.41800000000E+01 0. -1.
         -5    1    3    3    0  502 -0.25664718356E+02 -0.35611840122E+02 -0.14437021677E+03  0.15095400894E+03  0.41800000000E+01 0. -1.
        -11    1    1    2    0    0  0.24734146090E+02  0.29944705775E+02 -0.70806692287E+02  0.80759216560E+02  0.00000000000E+00 0. -1.
         11    1    1    2    0    0 -0.21154560783E+02 -0.47318414184E+02 -0.52195398109E+02  0.73558869938E+02  0.00000000000E+00 0.  1.
</event>
<event>
 6    1  0.2688177E-009  0.2565236E+03  0.7561462E-02  0.1109250E+00
          2   -1    0    0  501    0  0.00000000000E+00  0.00000000000E+00  0.16386106972E+04  0.16386106972E+04  0.00000000000E+00 0. -1.
         -2   -1    0    0    0  501 -0.00000000000E+00 -0.00000000000E+00 -0.41131207249E+02  0.41131207249E+02  0.00000000000E+00 0.  1.
          5    1    1    2  502    0  0.32297555277E+02  0.32868572607E+02  0.16084334031E+03  0.16736644725E+03  0.41800000000E+01 0.  1.
         -5    1    1    2    0  502  0.19011657530E+03 -0.11086403073E+03  0.65770088213E+03  0.69355826595E+03  0.41800000000E+01 0.  1.
        -11    1    1    2    0    0 -0.78851884404E+02  0.65580312995E+02  0.41272043416E+03  0.42527232910E+03  0.00000000000E+00 0. -1.
         11    1    1    2    0    0 -0.14356224617E+03  0.12415145130E+02  0.36621483331E+03  0.39354486211E+03  0.00000000000E+00 0.  1.
</event>
<event>
 7    1  0.2688177E-009  0.1170167E+03  0.7561462E-02  0.1248101E+00
         -2   -1    0    0    0  501 -0.00000000000E+00  0.00000000000E+00  0.17512033228E+03  0.17512033228E+03  0.00000000000E+00 0.  1.
          2   -1    0    0  501    0  0.00000000000E+00 -0.00000000000E+00 -0.12613869102E+03  0.12613869102E+03  0.00000000000E+00 0. -1.
         25    2    1    2    0    0 -0.56358111947E+02 -0.81153755025E+02  0.19310180355E+01  0.15941662093E+03  0.12509101271E+03 0.  0.
          5    1    3    3  502    0 -0.17635558402E+02 -0.38529188173E+02  0.62571505990E+02  0.75684721201E+02  0.41800000000E+01 0. -1.
         -5    1    3    3    0  502 -0.38722553545E+02 -0.42624566852E+02 -0.60640487955E+02  0.83731899726E+02  0.41800000000E+01 0. -1.
        -11    1    1    2    0    0 -0.10934971624E+01  0.76027743027E+02  0.24089318768E+02  0.79760320489E+02  0.00000000000E+00 0. -1.
         11    1    1    2    0    0  0.57451609109E+02  0.51260119980E+01  0.22961304456E+02  0.62082081880E+02  0.00000000000E+00 0.  1.
</event>
<event>
 7    1  0.2688177E-009  0.8989183E+02  0.7561462E-02  0.1303114E+00
          2   -1    0    0  501    0  0.00000000000E+00  0.00000000000E+00  0.75562837362E+02  0.75562837362E+02  0.00000000000E+00 0. -1.
         -2   -1    0    0    0  501 -0.00000000000E+00 -0.00000000000E+00 -0.18290608844E+03  0.18290608844E+03  0.00000000000E+00 0.  1.
         25    2    1    2    0    0  0.38631822123E+02 -0.25315029825E+02 -0.48961046865E+02  0.14205991069E+03  0.12510222100E+03 0.  0.
          5    1    3    3  502    0  0.10489695982E+02  0.27043074901E+02 -0.72338685510E+02  0.78049467924E+02  0.41800000000E+01 0.  1.
         -5    1    3    3    0  502  0.28142126141E+02 -0.52358104727E+02  0.23377638645E+02  0.64010442765E+02  0.41800000000E+01 0.  1.
        -11    1    1    2    0    0 -0.35523832795E+02 -0.23100232315E+02 -0.25607720587E+01  0.42451395536E+02  0.00000000000E+00 0. -1.
         11    1    1    2    0    0 -0.31079893286E+01  0.48415262140E+02 -0.55821432155E+02  0.73957619578E+02  0.00000000000E+00 0.  1.
</event>
<event>
 7    1  0.2688177E-009  0.9860185E+02  0.7561462E-02  0.1283264E+00
         -2   -1    0    0    0  501 -0.00000000000E+00  0.00000000000E+00  0.19994689417E+02  0.19994689417E+02  0.00000000000E+00 0. -1.
          2   -1    0    0  501    0  0.00000000000E+00 -0.00000000000E+00 -0.66889288521E+03  0.66889288521E+03  0.00000000000E+00 0.  1.
         25    2    1    2    0    0 -0.45108913904E+01  0.38431939138E+02 -0.42597726833E+03  0.44564710113E+03  0.12508934216E+03 0.  0.
          5    1    3    3  502    0  0.36335521738E+02  0.70001553716E+02 -0.26805575997E+03  0.27944919130E+03  0.41800000000E+01 0.  1.
         -5    1    3    3    0  502 -0.40846413128E+02 -0.31569614578E+02 -0.15792150836E+03  0.16619790983E+03  0.41800000000E+01 0.  1.
        -11    1    1    2    0    0 -0.22569421052E+02 -0.44954868884E+01 -0.86017896963E+01  0.24567843922E+02  0.00000000000E+00 0. -1.
         11    1    1    2    0    0  0.27080312442E+02 -0.33936452249E+02 -0.21431913777E+03  0.21867262958E+03  0.00000000000E+00 0.  1.
</event>
<event>
 7    1  0.2688177E-009  0.2416873E+03  0.7561462E-02  0.1118674E+00
          1   -1    0    0  501    0  0.00000000000E+00  0.00000000000E+00  0.11104513958E+04  0.11104513958E+04  0.00000000000E+00 0. -1.
         -1   -1    0    0    0  501 -0.00000000000E+00 -0.00000000000E+00 -0.58839902426E+02  0.58839902426E+02  0.00000000000E+00 0.  1.
         25    2    1    2    0    0 -0.16710540612E+03 -0.16550372192E+03  0.52736362732E+03  0.59082632810E+03  0.12509059051E+03 0.  0.
          5    1    3    3  502    0 -0.15396408243E+03 -0.16502060238E+03  0.53062902267E+03  0.57664665957E+03  0.41800000000E+01 0.  1.
         -5    1    3    3    0  502 -0.13141323694E+02 -0.48311954016E+00 -0.32653953545E+01  0.14179668534E+02  0.41800000000E+01 0.  1.
        -11    1    1    2    0    0  0.17094874758E+02 -0.39365915653E+01  0.27828966666E+02  0.32896548175E+02  0.00000000000E+00 0.  1.
         11    1    1    2    0    0  0.15001053136E+03  0.16944031349E+03  0.49641889938E+03  0.54556842194E+03  0.00000000000E+00 0. -1.
</event>
<event>
 7    1  0.2688177E-009  0.2245574E+03  0.7561462E-02  0.1130530E+00
          1   -1    0    0  501    0  0.00000000000E+00  0.00000000000E+00  0.94623052931E+03  0.94623052931E+03  0.00000000000E+00 0. -1.
         -1   -1    0    0    0  501 -0.00000000000E+00 -0.00000000000E+00 -0.55909914418E+02  0.55909914418E+02  0.00000000000E+00 0.  1.
         25    2    1    2    0    0 -0.16179500357E+03 -0.12112548308E+03  0.43310080788E+03  0.49403726117E+03  0.12508996685E+03 0.  0.
          5    1    3    3  502    0 -0.10067374408E+03  0.11096849448E+01  0.19369507569E+03  0.21833847323E+03  0.41800000000E+01 0. -1.
         -5    1    3    3    0  502 -0.61121259485E+02 -0.12223516803E+03  0.23940573219E+03  0.27569878793E+03  0.41800000000E+01 0. -1.
        -11    1    1    2    0    0  0.14207989643E+03  0.12749909073E+03  0.34786900156E+03  0.39680670024E+03  0.00000000000E+00 0.  1.
         11    1    1    2    0    0  0.19715107137E+02 -0.63736076452E+01  0.10935080545E+03  0.11129648232E+03  0.00000000000E+00 0. -1.
</event>
<event>
 7    1  0.2688177E-009  0.9255904E+02  0.7561462E-02  0.1296770E+00
         -1   -1    0    0    0  501 -0.00000000000E+00  0.00000000000E+00  0.32983706981E+02  0.32983706981E+02  0.00000000000E+00 0.  1.
          1   -1    0    0  501    0  0.00000000000E+00 -0.00000000000E+00 -0.35547402302E+03  0.35547402302E+03  0.00000000000E+00 0. -1.
         25    2    1    2    0    0  0.95290655074E-01  0.32697490817E+01 -0.20527627988E+03  0.24041117061E+03  0.12509388287E+03 0.  0.
          5    1    3    3  502    0 -0.40368029774E+02  0.29497074553E+02 -0.17782636859E+03  0.18476835497E+03  0.41800000000E+01 0.  1.
         -5    1    3    3    0  502  0.40463320429E+02 -0.26227325471E+02 -0.27449911294E+02  0.55642815633E+02  0.41800000000E+01 0.  1.
        -11    1    1    2    0    0 -0.32091546854E+02 -0.30692884702E+02 -0.38543947330E+02  0.58800990013E+02  0.00000000000E+00 0.  1.
         11    1    1    2    0    0  0.31996256198E+02  0.27423135620E+02 -0.78670088825E+02  0.89245569379E+02  0.00000000000E+00 0. -1.
</event>
<event>
 7    1  0.2688177E-009  0.8211663E+02  0.7561462E-02  0.1323150E+00
         -2   -1    0    0    0  501 -0.00000000000E+00  0.00000000000E+00  0.59710831676E+02  0.59710831676E+02  0.00000000000E+00 0.  1.
          2   -1    0    0  501    0  0.00000000000E+00 -0.00000000000E+00 -0.25429973442E+03  0.25429973442E+03  0.00000000000E+00 0. -1.
         25    2    1    2    0    0  0.18398572764E+02  0.88345683696E+01 -0.17555362380E+03  0.21652236896E+03  0.12508518837E+03 0.  0.
          5    1    3    3  502    0  0.89708532606E+01  0.37178556412E+02 -0.77949720528E-01  0.38473364050E+02  0.41800000000E+01 0. -1.
         -5    1    3    3    0  502  0.94277195034E+01 -0.28343988043E+02 -0.17547567408E+03  0.17804900491E+03  0.41800000000E+01 0. -1.
        -11    1    1    2    0    0  0.37235946949E+02  0.67035302269E+01 -0.67296804798E+01  0.38428396559E+02  0.00000000000E+00 0. -1.
         11    1    1    2    0    0 -0.55634519713E+02 -0.15538098596E+02 -0.12305598464E+02  0.59059800586E+02  0.00000000000E+00 0.  1.
</event>
<event>
 7    1  0.2688177E-009  0.1275642E+03  0.7561462E-02  0.1231115E+00
         -1   -1    0    0    0  501 -0.00000000000E+00  0.00000000000E+00  0.20857236893E+02  0.20857236893E+02  0.00000000000E+00 0.  1.
          1   -1    0    0  501    0  0.00000000000E+00 -0.00000000000E+00 -0.10176351844E+04  0.10176351844E+04  0.00000000000E+00 0. -1.
         25    2    1    2    0    0  0.75033497174E+02 -0.39364373232E+02 -0.70113947287E+03  0.71723356399E+03  0.12509134790E+03 0.  0.
          5    1    3    3  502    0  0.55582779425E+02 -0.82919130148E+02 -0.53855839687E+03  0.54774779484E+03  0.41800000000E+01 0.  1.
         -5    1    3    3    0  502  0.19450717749E+02  0.43554756916E+02 -0.16258107600E+03  0.16948576915E+03  0.41800000000E+01 0.  1.
        -11    1    1    2    0    0  0.11676551749E+02  0.11156864723E+02 -0.53914751828E+01  0.17026024076E+02  0.00000000000E+00 0.  1.
         11    1    1    2    0    0 -0.86710048923E+02  0.28207508508E+02 -0.29024699944E+03  0.30423283321E+03  0.00000000000E+00 0. -1.
</event>
<event>
 7    1  0.2688177E-009  0.1890953E+03  0.7561462E-02  0.1159280E+00
          2   -1    0    0  501    0  0.00000000000E+00  0.00000000000E+00  0.10846078795E+04  0.10846078795E+04  0.00000000000E+00 0.  1.
         -2   -1    0    0    0  501 -0.00000000000E+00 -0.00000000000E+00 -0.37884121883E+02  0.37884121883E+02  0.00000000000E+00 0. -1.
         25    2    1    2    0    0  0.12761904298E+03 -0.10399864394E+03  0.43358035591E+03  0.48035602294E+03  0.12509054991E+03 0.  0.
          5    1    3    3  502    0  0.15235633665E+03 -0.97050736196E+02  0.37583513679E+03  0.41701417381E+03  0.41800000000E+01 0.  1.
         -5    1    3    3    0  502 -0.24737293673E+02 -0.69479077415E+01  0.57745219121E+02  0.63341849133E+02  0.41800000000E+01 0.  1.
        -11    1    1    2    0    0 -0.71315383159E+02  0.27388319603E+02  0.13953288996E+03  0.15907680946E+03  0.00000000000E+00 0. -1.
         11    1    1    2    0    0 -0.56303659817E+02  0.76610324334E+02  0.47361051177E+03  0.48305916901E+03  0.00000000000E+00 0.  1.
</event>
<event>
 7    1  0.2688177E-009  0.7787113E+02  0.7561462E-02  0.1335204E+00
          1   -1    0    0  501    0  0.00000000000E+00  0.00000000000E+00  0.14202173794E+03  0.14202173794E+03  0.00000000000E+00 0. -1.
         -1   -1    0    0    0  501 -0.00000000000E+00 -0.00000000000E+00 -0.10825671748E+03  0.10825671748E+03  0.00000000000E+00 0.  1.
         25    2    1    2    0    0 -0.26481202236E+02  0.35730920711E+02  0.76929374228E+02  0.15344297840E+03  0.12509462912E+03 0.  0.
          5    1    3    3  502    0 -0.31226882435E+02  0.50658020434E+02  0.10515197309E+03  0.12089567017E+03  0.41800000000E+01 0.  1.
         -5    1    3    3    0  502  0.47456801996E+01 -0.14927099723E+02 -0.28222598861E+02  0.32547308232E+02  0.41800000000E+01 0.  1.
        -11    1    1    2    0    0 -0.74837417647E+01  0.16187341201E+02  0.47392749962E+01  0.18452564413E+02  0.00000000000E+00 0. -1.
         11    1    1    2    0    0  0.33964944001E+02 -0.51918261912E+02 -0.47903628761E+02  0.78382912611E+02  0.00000000000E+00 0.  1.
</event>
<event>
 7    1  0.2688177E-009  0.1579424E+03  0.7561462E-02  0.1191040E+00
         -1   -1    0    0    0  501 -0.00000000000E+00  0.00000000000E+00  0.60276369934E+02  0.60276369934E+02  0.00000000000E+00 0.  1.
          1   -1    0    0  501    0  0.00000000000E+00 -0.00000000000E+00 -0.51719794453E+03  0.51719794453E+03  0.00000000000E+00 0. -1.
         25    2    1    2    0    0 -0.12916930077E+03 -0.15124271805E+02 -0.31986714064E+03  0.36725506093E+03  0.12509132766E+03 0.  0.
          5    1    3    3  502    0 -0.14167750789E+03 -0.20600610732E+02 -0.19701641431E+03  0.24357717732E+03  0.41800000000E+01 0. -1.
         -5    1    3    3    0  502  0.12508207119E+02  0.54763389267E+01 -0.12285072633E+03  0.12367788361E+03  0.41800000000E+01 0. -1.
        -11    1    1    2    0    0  0.50705039477E+02 -0.38219972768E+02 -0.43464105905E+02  0.76947357647E+02  0.00000000000E+00 0.  1.
         11    1    1    2    0    0  0.78464261293E+02  0.53344244573E+02 -0.93590328050E+02  0.13327189589E+03  0.00000000000E+00 0. -1.
</event>
<event>
 7    1  0.2688177E-009  0.1497050E+03  0.7561462E-02  0.1200836E+00
          2   -1    0    0  501    0  0.00000000000E+00  0.00000000000E+00  0.53981547039E+03  0.53981547039E+03  0.00000000000E+00 0. -1.
         -2   -1    0    0    0  501 -0.00000000000E+00 -0.00000000000E+00 -0.53249908538E+02  0.53249908538E+02  0.00000000000E+00 0.  1.
         25    2    1    2    0    0  0.10479500334E+03 -0.57632789938E+02  0.34565594534E+03  0.38656089141E+03  0.12509100294E+03 0.  0.
          5    1    3    3  502    0  0.10930093254E+03 -0.86465908753E+02  0.31249831109E+03  0.34219251024E+03  0.41800000000E+01 0.  1.
         -5    1    3    3    0  502 -0.45059291990E+01  0.28833118815E+02  0.33157634248E+02  0.44368381168E+02  0.41800000000E+01 0.  1.
        -11    1    1    2    0    0 -0.76959099829E+02  0.66052811107E+02  0.54084114056E+02  0.11493810637E+03  0.00000000000E+00 0.  1.
         11    1    1    2    0    0 -0.27835903510E+02 -0.84200211693E+01  0.86825502450E+02  0.91566381148E+02  0.00000000000E+00 0. -1.
</event>
<event>
 7    1  0.2688177E-009  0.6602560E+02  0.7561462E-02  0.1374155E+00
         -2   -1    0    0    0  501 -0.00000000000E+00  0.00000000000E+00  0.26640698845E+02  0.26640698845E+02  0.00000000000E+00 0.  1.
          2   -1    0    0  501    0  0.00000000000E+00 -0.00000000000E+00 -0.52664018587E+03  0.52664018587E+03  0.00000000000E+00 0. -1.
         25    2    1    2    0    0  0.18428086670E+02 -0.19754470837E+02 -0.18250849317E+03  0.22290673771E+03  0.12509288606E+03 0.  0.
          5    1    3    3  502    0  0.28341982833E+01  0.88655074153E+01 -0.18911473160E+03  0.18938976744E+03  0.41800000000E+01 0.  1.
         -5    1    3    3    0  502  0.15593888386E+02 -0.28619978252E+02  0.66062384345E+01  0.33516970275E+02  0.41800000000E+01 0.  1.
        -11    1    1    2    0    0 -0.38706359428E+02 -0.20584544418E+02 -0.11914578406E+03  0.12695520308E+03  0.00000000000E+00 0. -1.
         11    1    1    2    0    0  0.20278272759E+02  0.40339015255E+02 -0.19834520980E+03  0.20341894393E+03  0.00000000000E+00 0.  1.
</event>
<event>
 7    1  0.2688177E-009  0.1098545E+03  0.7561462E-02  0.1260840E+00
         -1   -1    0    0    0  501 -0.00000000000E+00  0.00000000000E+00  0.99608580276E+01  0.99608580276E+01  0.00000000000E+00 0.  1.
          1   -1    0    0  501    0  0.00000000000E+00 -0.00000000000E+00 -0.13484078848E+04  0.13484078848E+04  0.00000000000E+00 0. -1.
         25    2    1    2    0    0 -0.25066622944E+02  0.65445046969E+01 -0.95752090494E+03  0.96600473974E+03  0.12509079768E+03 0.  0.
          5    1    3    3  502    0  0.41254941323E+02  0.34662192706E+02 -0.33761548036E+03  0.34191391133E+03  0.41800000000E+01 0. -1.
         -5    1    3    3    0  502 -0.66321564267E+02 -0.28117688009E+02 -0.61990542459E+03  0.62409082840E+03  0.41800000000E+01 0. -1.
        -11    1    1    2    0    0 -0.29457417108E+02  0.17117322070E+02 -0.11916636192E+03  0.12394096962E+03  0.00000000000E+00 0.  1.
         11    1    1    2    0    0  0.54524040051E+02 -0.23661826767E+02 -0.26175975995E+03  0.26842303351E+03  0.00000000000E+00 0. -1.
</event>
<event>
 7    1  0.2688177E-009  0.1181930E+03  0.7561462E-02  0.1246108E+00
         -1   -1    0    0    0  501 -0.00000000000E+00  0.00000000000E+00  0.37663307531E+03  0.37663307531E+03  0.00000000000E+00 0.  1.
          1   -1    0    0  501    0  0.00000000000E+00 -0.00000000000E+00 -0.52055881043E+02  0.52055881043E+02  0.00000000000E+00 0. -1.
         25    2    1    2    0    0 -0.32145239456E+02  0.56104199108E+02  0.85170058976E+02  0.16456772503E+03  0.12509036573E+03 0.  0.
          5    1    3    3  502    0 -0.46901526314E+02 -0.19568521435E+02  0.68806319185E+02  0.85641474541E+02  0.41800000000E+01 0. -1.
         -5    1    3    3    0  502  0.14756286859E+02  0.75672720542E+02  0.16363739791E+02  0.78926250488E+02  0.41800000000E+01 0. -1.
        -11    1    1    2    0    0 -0.56608862846E+01 -0.68241882970E+02  0.11851353126E+03  0.13687387375E+03  0.00000000000E+00 0. -1.
         11    1    1    2    0    0  0.37806125740E+02  0.12137683862E+02  0.12089360403E+03  0.12724735757E+03  0.00000000000E+00 0.  1.
</event>
<event>
 7    1  0.2688177E-009  0.8617669E+02  0.7561462E-02  0.1312384E+00
          2   -1    0    0  501    0  0.00000000000E+00  0.00000000000E+00  0.24122111464E+03  0.24122111464E+03  0.00000000000E+00 0. -1.
         -2   -1    0    0    0  501 -0.00000000000E+00 -0.00000000000E+00 -0.57854261220E+02  0.57854261220E+02  0.00000000000E+00 0.  1.
         25    2    1    2    0    0  0.17762582037E+02  0.66599116477E+01  0.57329598329E+02  0.13891007593E+03  0.12509781216E+03 0.  0.
          5    1    3    3  502    0 -0.52962311337E+02  0.14408077731E+02  0.28973030195E+02  0.62205369581E+02  0.41800000000E+01 0. -1.
         -5    1    3    3    0  502  0.70724893374E+02 -0.77481660830E+01  0.28356568134E+02  0.76704706353E+02  0.41800000000E+01 0. -1.
        -11    1    1    2    0    0 -0.29340652213E+02  0.48177320217E+01  0.13721424398E+03  0.14039883606E+03  0.00000000000E+00 0. -1.
         11    1    1    2    0    0  0.11578070177E+02 -0.11477643669E+02 -0.11176988891E+02  0.19766463869E+02  0.00000000000E+00 0.  1.
</event>
<event>
 7    1  0.2688177E-009  0.1061238E+03  0.7561462E-02  0.1267921E+00
         -1   -1    0    0    0  501 -0.00000000000E+00  0.00000000000E+00  0.55945097558E+03  0.55945097558E+03  0.00000000000E+00 0.  1.
          1   -1    0    0  501    0  0.00000000000E+00 -0.00000000000E+00 -0.23348985210E+02  0.23348985210E+02  0.00000000000E+00 0. -1.
         25    2    1    2    0    0  0.34658428352E+02  0.33286496921E+01  0.32078992364E+03  0.34607162850E+03  0.12508841026E+03 0.  0.
          5    1    3    3  502    0 -0.36251865443E+02  0.20145633164E+02  0.47479066050E+02  0.63180522288E+02  0.41800000000E+01 0. -1.
         -5    1    3    3    0  502  0.70910293794E+02 -0.16816983472E+02  0.27331085759E+03  0.28289110621E+03  0.41800000000E+01 0. -1.
        -11    1    1    2    0    0 -0.24084033461E+02  0.43412070401E+02  0.12481902617E+03  0.13432958653E+03  0.00000000000E+00 0.  1.
         11    1    1    2    0    0 -0.10574394891E+02 -0.46740720093E+02  0.90493040563E+02  0.10239874576E+03  0.00000000000E+00 0. -1.
</event>
<event>
 7    1  0.3429725E-009  0.7757553E+02  0.7561462E-02  0.1336076E+00
         -1   -1    0    0    0  501 -0.00000000000E+00  0.00000000000E+00  0.39008895050E+02  0.39008895050E+02  0.00000000000E+00 0.  1.
          1   -1    0    0  501    0  0.00000000000E+00 -0.00000000000E+00 -0.38896982960E+03  0.38896982960E+03  0.00000000000E+00 0. -1.
         25    2    1    2    0    0  0.37183405626E+02  0.45301014418E+02 -0.20613176605E+03  0.24813780695E+03  0.12508908305E+03 0.  0.
          5    1    3    3  502    0  0.36331779035E+02  0.65663763472E+02 -0.21328244447E+03  0.22613845653E+03  0.41800000000E+01 0. -1.
         -5    1    3    3    0  502  0.85162659135E+00 -0.20362749055E+02  0.71506784199E+01  0.21999350417E+02  0.41800000000E+01 0. -1.
        -11    1    1    2    0    0 -0.13099554336E+02 -0.22412093555E+02  0.57728620619E+01  0.26593724781E+02  0.00000000000E+00 0.  1.
         11    1    1    2    0    0 -0.24083851289E+02 -0.22888920862E+02 -0.14960203056E+03  0.15324719292E+03  0.00000000000E+00 0. -1.
</event>
<event>
 7    1  0.2688177E-009  0.7615191E+02  0.7561462E-02  0.1340341E+00
          1   -1    0    0  501    0  0.00000000000E+00  0.00000000000E+00  0.46887166843E+03  0.46887166843E+03  0.00000000000E+00 0. -1.
         -1   -1    0    0    0  501 -0.00000000000E+00 -0.00000000000E+00 -0.26169720204E+02  0.26169720204E+02  0.00000000000E+00 0.  1.
         25    2    1    2    0    0  0.21889427919E+02 -0.15994072547E+01  0.23176017778E+03  0.26427765048E+03  0.12509273112E+03 0.  0.
          5    1    3    3  502    0 -0.24660326652E+02  0.21061350283E+02  0.20156010711E+03  0.20419515510E+03  0.41800000000E+01 0.  1.
         -5    1    3    3    0  502  0.46549754571E+02 -0.22660757538E+02  0.30200070670E+02  0.60082495382E+02  0.41800000000E+01 0.  1.
        -11    1    1    2    0    0 -0.21898969757E+02 -0.29403048436E+02  0.18963283180E+03  0.19314428553E+03  0.00000000000E+00 0. -1.
         11    1    1    2    0    0  0.95418376162E-02  0.31002455690E+02  0.21308938637E+02  0.37619452624E+02  0.00000000000E+00 0.  1.
</event>
<event>
 7    1  0.2688177E-009  0.9715820E+02  0.7561462E-02  0.1286388E+00
          2   -1    0    0  501    0  0.00000000000E+00  0.00000000000E+00  0.99167007399E+02  0.99167007399E+02  0.00000000000E+00 0. -1.
         -2   -1    0    0    0  501 -0.00000000000E+00 -0.00000000000E+00 -0.12316368880E+03  0.12316368880E+03  0.00000000000E+00 0.  1.
         25    2    1    2    0    0  0.13527842983E+02 -0.15430652983E+02  0.32518003628E+01  0.12679825747E+03  0.12508443670E+03 0.  0.
          5    1    3    3  502    0 -0.47008251528E+02 -0.67510771270E+01 -0.30721476966E+02  0.56715379757E+02  0.41800000000E+01 0.  1.
         -5    1    3    3    0  502  0.60536094511E+02 -0.86795758555E+01  0.33973277329E+02  0.70082877710E+02  0.41800000000E+01 0.  1.
        -11    1    1    2    0    0  0.13549127829E+02  0.43966382868E+02  0.27090821802E+01  0.46086449350E+02  0.00000000000E+00 0. -1.
         11    1    1    2    0    0 -0.27076970813E+02 -0.28535729885E+02 -0.29957563942E+02  0.49445989381E+02  0.00000000000E+00 0.  1.
</event>
<event>
 7    1  0.2688177E-009  0.5701561E+02  0.7561462E-02  0.1410800E+00
         -3   -1    0    0    0  501 -0.00000000000E+00  0.00000000000E+00  0.71459209948E+02  0.71459209948E+02  0.00000000000E+00 0.  1.
          3   -1    0    0  501    0  0.00000000000E+00 -0.00000000000E+00 -0.19158228571E+03  0.19158228571E+03  0.00000000000E+00 0. -1.
         25    2    1    2    0    0  0.37346257960E+02 -0.67075919175E+01 -0.99034774559E+02  0.16403016153E+03  0.12513301941E+03 0.  0.
          5    1    3    3  502    0  0.46487780873E+01  0.10672967706E+01  0.29980284046E+02  0.30643761055E+02  0.41800000000E+01 0.  1.
         -5    1    3    3    0  502  0.32697479873E+02 -0.77748886881E+01 -0.12901505861E+03  0.13338640047E+03  0.41800000000E+01 0.  1.
        -11    1    1    2    0    0 -0.48581187835E+02 -0.13742928341E+02 -0.43511443370E+02  0.66650173255E+02  0.00000000000E+00 0. -1.
         11    1    1    2    0    0  0.11234929874E+02  0.20450520259E+02  0.22423142171E+02  0.32361160872E+02  0.00000000000E+00 0.  1.
</event>
<event>
 7    1  0.2688177E-009  0.1267165E+03  0.7561462E-02  0.1232411E+00
          2   -1    0    0  501    0  0.00000000000E+00  0.00000000000E+00  0.21053987398E+03  0.21053987398E+03  0.00000000000E+00 0. -1.
         -2   -1    0    0    0  501 -0.00000000000E+00 -0.00000000000E+00 -0.19760044651E+03  0.19760044651E+03  0.00000000000E+00 0.  1.
         25    2    1    2    0    0 -0.31047410580E+02 -0.77230146446E+02  0.15707873647E+03  0.21736850489E+03  0.12508757030E+03 0.  0.
          5    1    3    3  502    0  0.49770411654E+01  0.28434105843E+02  0.69646408408E+02  0.75507376580E+02  0.41800000000E+01 0.  1.
         -5    1    3    3    0  502 -0.36024451745E+02 -0.10566425229E+03  0.87432328062E+02  0.14186112831E+03  0.41800000000E+01 0.  1.
        -11    1    1    2    0    0  0.35111789331E+02 -0.10202509115E+00 -0.89092028745E+02  0.95761358308E+02  0.00000000000E+00 0.  1.
         11    1    1    2    0    0 -0.40643787506E+01  0.77332171538E+02 -0.55047280255E+02  0.95010457281E+02  0.00000000000E+00 0. -1.
</event>
<event>
 7    1  0.2688177E-009  0.1249458E+03  0.7561462E-02  0.1235154E+00
         -3   -1    0    0    0  501 -0.00000000000E+00  0.00000000000E+00  0.28384501560E+03  0.28384501560E+03  0.00000000000E+00 0.  1.
          3   -1    0    0  501    0  0.00000000000E+00 -0.00000000000E+00 -0.14296865797E+03  0.14296865797E+03  0.00000000000E+00 0. -1.
         25    2    1    2    0    0  0.57497055140E+02  0.72574357165E+02 -0.73207703017E+02  0.17198899318E+03  0.12509155578E+03 0.  0.
          5    1    3    3  502    0 -0.97280398871E+01 -0.85342841896E+01  0.24644430467E+02  0.28147630801E+02  0.41800000000E+01 0.  1.
         -5    1    3    3    0  502  0.67225095027E+02  0.81108641355E+02 -0.97852133484E+02  0.14384136238E+03  0.41800000000E+01 0.  1.
        -11    1    1    2    0    0 -0.82603145156E+02 -0.63416307064E+02  0.12983863793E+03  0.16644212054E+03  0.00000000000E+00 0. -1.
         11    1    1    2    0    0  0.25106090016E+02 -0.91580501010E+01  0.84245422721E+02  0.88382559857E+02  0.00000000000E+00 0.  1.
</event>
<event>
 7    1  0.2688177E-009  0.1291176E+03  0.7561462E-02  0.1228771E+00
         -2   -1    0    0    0  501 -0.00000000000E+00  0.00000000000E+00  0.64461680682E+02  0.64461680682E+02  0.00000000000E+00 0.  1.
          2   -1    0    0  501    0  0.00000000000E+00 -0.00000000000E+00 -0.39597351259E+03  0.39597351259E+03  0.00000000000E+00 0. -1.
         25    2    1    2    0    0 -0.55214165743E+02  0.89176780232E+02 -0.25438180003E+03  0.30225616493E+03  0.12509031465E+03 0.  0.
          5    1    3    3  502    0 -0.33516150780E+02 -0.19183056882E+02 -0.21372755304E+02  0.44334964799E+02  0.41800000000E+01 0. -1.
         -5    1    3    3    0  502 -0.21698014963E+02  0.10835983711E+03 -0.23300904472E+03  0.25792120013E+03  0.41800000000E+01 0. -1.
        -11    1    1    2    0    0  0.52779749758E+02 -0.61602820525E+02 -0.95236178689E+02  0.12510211514E+03  0.00000000000E+00 0. -1.
         11    1    1    2    0    0  0.24344159848E+01 -0.27573959706E+02  0.18106146807E+02  0.33076913206E+02  0.00000000000E+00 0.  1.
</event>
<event>
 7    1  0.2688177E-009  0.8704616E+02  0.7561462E-02  0.1310167E+00
          1   -1    0    0  501    0  0.00000000000E+00  0.00000000000E+00  0.60717594595E+02  0.60717594595E+02  0.00000000000E+00 0. -1.
         -1   -1    0    0    0  501 -0.00000000000E+00 -0.00000000000E+00 -0.20138655774E+03  0.20138655774E+03  0.00000000000E+00 0.  1.
         25    2    1    2    0    0  0.20972959776E+02  0.10237878409E+02 -0.91288205803E+02  0.15659511380E+03  0.12507523317E+03 0.  0.
          5    1    3    3  502    0 -0.46504170472E+01  0.65664728153E+02 -0.49875099971E+02  0.82695108073E+02  0.41800000000E+01 0. -1.
         -5    1    3    3    0  502  0.25623376823E+02 -0.55426849743E+02 -0.41413105833E+02  0.73900005730E+02  0.41800000000E+01 0. -1.
        -11    1    1    2    0    0 -0.32305094114E+02 -0.10272363158E+01  0.17704519382E+02  0.36852738388E+02  0.00000000000E+00 0. -1.
         11    1    1    2    0    0  0.11332134338E+02 -0.92106420935E+01 -0.67085276720E+02  0.68656300140E+02  0.00000000000E+00 0.  1.
</event>
<event>
 7    1  0.2688177E-009  0.1047205E+03  0.7561462E-02  0.1270671E+00
          1   -1    0    0  501    0  0.00000000000E+00  0.00000000000E+00  0.40293850535E+03  0.40293850535E+03  0.00000000000E+00 0.  1.
         -1   -1    0    0    0  501 -0.00000000000E+00 -0.00000000000E+00 -0.63604228080E+02  0.63604228080E+02  0.00000000000E+00 0. -1.
         25    2    1    2    0    0 -0.67242745603E+02 -0.14928702182E+02  0.31987027417E+03  0.35029777869E+03  0.12508832269E+03 0.  0.
          5    1    3    3  502    0  0.34930905392E+02 -0.35210743304E+01  0.12534663841E+03  0.13023754557E+03  0.41800000000E+01 0. -1.
         -5    1    3    3    0  502 -0.10217365100E+03 -0.11407627851E+02  0.19452363576E+03  0.22006023312E+03  0.41800000000E+01 0. -1.
        -11    1    1    2    0    0  0.53203812308E+02  0.39143899444E+01  0.54911998722E+02  0.76559099370E+02  0.00000000000E+00 0.  1.
         11    1    1    2    0    0  0.14038933295E+02  0.11014312237E+02 -0.35447995626E+02  0.39685855365E+02  0.00000000000E+00 0. -1.
</event>
<event>
 6    1  0.2688177E-009  0.1037631E+03  0.7561462E-02  0.1272576E+00
         -2   -1    0    0    0  501 -0.00000000000E+00  0.00000000000E+00  0.99251061364E+01  0.99251061364E+01  0.00000000000E+00 0. -1.
          2   -1    0    0  501    0  0.00000000000E+00 -0.00000000000E+00 -0.14583579260E+04  0.14583579260E+04  0.00000000000E+00 0.  1.
          5    1    1    2  502    0 -0.81266341621E+01  0.60858169668E+02 -0.42843835931E+03  0.43283560289E+03  0.41800000000E+01 0.  1.
         -5    1    1    2    0  502 -0.38659116836E+01 -0.60772742517E+02 -0.70806295299E+03  0.71068902433E+03  0.41800000000E+01 0.  1.
        -11    1    1    2    0    0 -0.31606269487E+01 -0.41100611366E+02 -0.96521622430E+02  0.10495557829E+03  0.00000000000E+00 0. -1.
         11    1    1    2    0    0  0.15153172794E+02  0.41015184216E+02 -0.21540988517E+03  0.21980282667E+03  0.00000000000E+00 0.  1.
</event>
<event>
 7    1  0.2688177E-009  0.7777896E+02  0.7561462E-02  0.1335475E+00
          2   -1    0    0  501    0  0.00000000000E+00  0.00000000000E+00  0.34811570529E+03  0.34811570529E+03  0.00000000000E+00 0.  1.
         -2   -1    0    0    0  501 -0.00000000000E+00 -0.00000000000E+00 -0.45967901143E+02  0.45967901143E+02  0.00000000000E+00 0. -1.
         25    2    1    2    0    0 -0.47641546704E+02  0.49197348644E+01  0.22937581422E+03  0.26562063167E+03  0.12508850891E+03 0.  0.
          5    1    3    3  502    0 -0.42435741862E+02 -0.21978409753E+01  0.72840552615E+01  0.43314576684E+02  0.41800000000E+01 0. -1.
         -5    1    3    3    0  502 -0.52058048427E+01  0.71175758397E+01  0.22209175895E+03  0.22230605499E+03  0.41800000000E+01 0. -1.
        -11    1    1    2    0    0  0.22010499322E+02 -0.48094503633E+02  0.51854307873E+02  0.74070322027E+02  0.00000000000E+00 0. -1.
         11    1    1    2    0    0  0.25631047383E+02  0.43174768769E+02  0.20917682055E+02  0.54392652727E+02  0.00000000000E+00 0.  1.
</event>
<event>
 7    1  0.2688177E-009  0.1016535E+03  0.7561462E-02  0.1276857E+00
         -4   -1    0    0    0  501 -0.00000000000E+00  0.00000000000E+00  0.78823836745E+02  0.78823836745E+02  0.00000000000E+00 0.  1.
          4   -1    0    0  501    0  0.00000000000E+00 -0.00000000000E+00 -0.22741830484E+03  0.22741830484E+03  0.00000000000E+00 0. -1.
         25    2    1    2    0    0  0.41109485279E+02 -0.51639931714E+02 -0.31918239357E+02  0.14499407034E+03  0.12509130307E+03 0.  0.
          5    1    3    3  502    0  0.27830462094E+02  0.12611732803E+02  0.38054873775E+02  0.48981999170E+02  0.41800000000E+01 0. -1.
         -5    1    3    3    0  502  0.13279023185E+02 -0.64251664516E+02 -0.69973113132E+02  0.96012071175E+02  0.41800000000E+01 0. -1.
        -11    1    1    2    0    0  0.25559651471E+02  0.70335557807E+01 -0.11307809252E+02  0.28820708532E+02  0.00000000000E+00 0.  1.
         11    1    1    2    0    0 -0.66669136750E+02  0.44606375933E+02 -0.10536841948E+03  0.13242736271E+03  0.00000000000E+00 0. -1.
</event>
<event>
 7    1  0.2688177E-009  0.7403118E+02  0.7561462E-02  0.1346898E+00
         -1   -1    0    0    0  501 -0.00000000000E+00  0.00000000000E+00  0.14091405698E+03  0.14091405698E+03  0.00000000000E+00 0.  1.
          1   -1    0    0  501    0  0.00000000000E+00 -0.00000000000E+00 -0.11314055266E+03  0.11314055266E+03  0.00000000000E+00 0. -1.
         25    2    1    2    0    0  0.23143657162E+02 -0.59882331276E+02  0.44956795811E+01  0.14067383013E+03  0.12508953946E+03 0.  0.
          5    1    3    3  502    0  0.34224424493E+02 -0.50193044178E+02  0.58561645857E+02  0.84484268838E+02  0.41800000000E+01 0. -1.
         -5    1    3    3    0  502 -0.11080767331E+02 -0.96892870979E+01 -0.54065966275E+02  0.56189561294E+02  0.41800000000E+01 0. -1.
        -11    1    1    2    0    0 -0.31384760714E+02  0.45166714712E+02 -0.26334570979E+02  0.60979873332E+02  0.00000000000E+00 0. -1.
         11    1    1    2    0    0  0.82411035518E+01  0.14715616564E+02  0.49612395718E+02  0.52400906170E+02  0.00000000000E+00 0.  1.
</event>
<event>
 7    1  0.2688177E-009  0.9194082E+02  0.7561462E-02  0.1298219E+00
          1   -1    0    0  501    0  0.00000000000E+00  0.00000000000E+00  0.22372879587E+03  0.22372879587E+03  0.00000000000E+00 0. -1.
         -1   -1    0    0    0  501 -0.00000000000E+00 -0.00000000000E+00 -0.83939229689E+02  0.83939229689E+02  0.00000000000E+00 0.  1.
         25    2    1    2    0    0 -0.41027502417E+02  0.14140305143E+02  0.14125560044E+03  0.19360285449E+03  0.12508283826E+03 0.  0.
          5    1    3    3  502    0 -0.36373900849E+02 -0.33108700541E+02  0.54337541550E+01  0.49661300816E+02  0.41800000000E+01 0.  1.
         -5    1    3    3    0  502 -0.46536015689E+01  0.47249005684E+02  0.13582184628E+03  0.14394155367E+03  0.41800000000E+01 0.  1.
        -11    1    1    2    0    0  0.50173189459E+02 -0.36931197042E+02  0.33964067104E+02  0.70956466300E+02  0.00000000000E+00 0. -1.
         11    1    1    2    0    0 -0.91456870418E+01  0.22790891900E+02 -0.35430101359E+02  0.43108704775E+02  0.00000000000E+00 0.  1.
</event>
<event>
 7    1  0.2688177E-009  0.1630034E+03  0.7561462E-02  0.1185347E+00
         -2   -1    0    0    0  501 -0.00000000000E+00  0.00000000000E+00  0.82705921339E+02  0.82705921339E+02  0.00000000000E+00 0.  1.
          2   -1    0    0  501    0  0.00000000000E+00 -0.00000000000E+00 -0.54286557501E+03  0.54286557501E+03  0.00000000000E+00 0. -1.
         25    2    1    2    0    0 -0.14139537410E+03  0.63526300457E+02 -0.37760742493E+03  0.42692291241E+03  0.12509021988E+03 0.  0.
          5    1    3    3  502    0 -0.12372409683E+03  0.35135429325E+02 -0.37086138060E+03  0.39255290924E+03  0.41800000000E+01 0. -1.
         -5    1    3    3    0  502 -0.17671277277E+02  0.28390871132E+02 -0.67460443343E+01  0.34370003177E+02  0.41800000000E+01 0. -1.
        -11    1    1    2    0    0  0.12977938028E+03 -0.37450202875E+02 -0.97345051527E+02  0.16649703991E+03  0.00000000000E+00 0. -1.
         11    1    1    2    0    0  0.11615993820E+02 -0.26076097582E+02  0.14792822787E+02  0.32151544030E+02  0.00000000000E+00 0.  1.
</event>
<event>
 7    1  0.2688177E-009  0.1041038E+03  0.7561462E-02  0.1271896E+00
         -1   -1    0    0    0  501 -0.00000000000E+00  0.00000000000E+00  0.36774102759E+02  0.36774102759E+02  0.00000000000E+00 0.  1.
          1   -1    0    0  501    0  0.00000000000E+00 -0.00000000000E+00 -0.18010940666E+04  0.18010940666E+04  0.00000000000E+00 0. -1.
         25    2    1    2    0    0 -0.34062969326E+02  0.55285619403E+02 -0.17074118029E+04  0.17132189336E+04  0.12508902620E+03 0.  0.
          5    1    3    3  502    0 -0.69263249861E+02 -0.49080209661E+01 -0.72641644734E+03  0.72973955204E+03  0.41800000000E+01 0. -1.
         -5    1    3    3    0  502  0.35200280535E+02  0.60193640370E+02 -0.98099535552E+03  0.98347938160E+03  0.41800000000E+01 0. -1.
        -11    1    1    2    0    0  0.10619150724E+02 -0.38547505452E+02  0.18404297655E+02  0.44015846134E+02  0.00000000000E+00 0.  1.
         11    1    1    2    0    0  0.23443818602E+02 -0.16738113951E+02 -0.75312458683E+02  0.80633389623E+02  0.00000000000E+00 0. -1.
</event>
<event>
 7    1  0.2688177E-009  0.1078637E+03  0.7561462E-02  0.1264578E+00
          1   -1    0    0  501    0  0.00000000000E+00  0.00000000000E+00  0.23060999354E+02  0.23060999354E+02  0.00000000000E+00 0. -1.
         -1   -1    0    0    0  501 -0.00000000000E+00 -0.00000000000E+00 -0.89730501630E+03  0.89730501630E+03  0.00000000000E+00 0.  1.
         25    2    1    2    0    0  0.44583999622E+02  0.56179812026E+02 -0.66174699722E+03  0.67727532595E+03  0.12509546157E+03 0.  0.
          5    1    3    3  502    0 -0.17110514979E+02 -0.24186127935E+02 -0.30297153961E+03  0.30444533946E+03  0.41800000000E+01 0. -1.
         -5    1    3    3    0  502  0.61694514602E+02  0.80365939961E+02 -0.35877545762E+03  0.37282998649E+03  0.41800000000E+01 0. -1.
        -11    1    1    2    0    0 -0.53748582433E+02 -0.49443245644E+02 -0.21839219362E+03  0.23027960154E+03  0.00000000000E+00 0.  1.
         11    1    1    2    0    0  0.91645828111E+01 -0.67365663823E+01  0.58951738931E+01  0.12811088164E+02  0.00000000000E+00 0. -1.
</event>
<event>
 7    1  0.2688177E-009  0.1230591E+03  0.7561462E-02  0.1238134E+00
          2   -1    0    0  501    0  0.00000000000E+00  0.00000000000E+00  0.19525356456E+03  0.19525356456E+03  0.00000000000E+00 0. -1.
         -2   -1    0    0    0  501 -0.00000000000E+00 -0.00000000000E+00 -0.13890045508E+03  0.13890045508E+03  0.00000000000E+00 0.  1.
         25    2    1    2    0    0  0.68998595603E+02  0.22017099336E+02 -0.71746203327E+02  0.16136824287E+03  0.12508650310E+03 0.  0.
          5    1    3    3  502    0  0.52250298126E+02 -0.40408400706E+02 -0.20395331874E+01  0.66216044865E+02  0.41800000000E+01 0.  1.
         -5    1    3    3    0  502  0.16748297477E+02  0.62425500042E+02 -0.69706670140E+02  0.95152198008E+02  0.41800000000E+01 0.  1.
        -11    1    1    2    0    0 -0.26966333138E+02 -0.55317594080E+02  0.58352139331E+02  0.84806789246E+02  0.00000000000E+00 0.  1.
         11    1    1    2    0    0 -0.42032262465E+02  0.33300494744E+02  0.69747173477E+02  0.87978987527E+02  0.00000000000E+00 0. -1.
</event>
<event>
 7    1  0.2688177E-009  0.1638988E+03  0.7561462E-02  0.1184364E+00
         -1   -1    0    0    0  501 -0.00000000000E+00  0.00000000000E+00  0.32215562086E+02  0.32215562086E+02  0.00000000000E+00 0.  1.
          1   -1    0    0  501    0  0.00000000000E+00 -0.00000000000E+00 -0.11078585714E+04  0.11078585714E+04  0.00000000000E+00 0. -1.
         25    2    1    2    0    0  0.55171314815E+02 -0.12870090549E+03 -0.76735115642E+03  0.78999108452E+03  0.12510123627E+03 0.  0.
          5    1    3    3  502    0  0.63782578278E+02 -0.15028868729E+03 -0.64291916924E+03  0.66333810187E+03  0.41800000000E+01 0.  1.
         -5    1    3    3    0  502 -0.86112634628E+01  0.21587781795E+02 -0.12443198718E+03  0.12665298265E+03  0.41800000000E+01 0.  1.
        -11    1    1    2    0    0 -0.44578405836E+02  0.11633370263E+03 -0.30962093433E+03  0.33374524357E+03  0.00000000000E+00 0. -1.
         11    1    1    2    0    0 -0.10592908979E+02  0.12367202860E+02  0.13290814387E+01  0.16337805382E+02  0.00000000000E+00 0.  1.
</event>
<event>
 7    1  0.2688177E-009  0.9945078E+02  0.7561462E-02  0.1281455E+00
         -2   -1    0    0    0  501 -0.00000000000E+00  0.00000000000E+00  0.36645745988E+03  0.36645745988E+03  0.00000000000E+00 0.  1.
          2   -1    0    0  501    0  0.00000000000E+00 -0.00000000000E+00 -0.47231169403E+02  0.47231169403E+02  0.00000000000E+00 0. -1.
         25    2    1    2    0    0 -0.14595710396E+01 -0.52452722341E+02  0.25794936633E+03  0.29144234000E+03  0.12508934216E+03 0.  0.
          5    1    3    3  502    0 -0.23788406795E+02 -0.66144404669E+02  0.62350534561E+02  0.94053347240E+02  0.41800000000E+01 0.  1.
         -5    1    3    3    0  502  0.22328835755E+02  0.13691682328E+02  0.19559883177E+03  0.19738899276E+03  0.41800000000E+01 0.  1.
        -11    1    1    2    0    0 -0.26452447053E+02  0.65876704416E+02  0.26746839015E+02  0.75860830058E+02  0.00000000000E+00 0. -1.
         11    1    1    2    0    0  0.27912018093E+02 -0.13423982074E+02  0.34530085129E+02  0.46385459228E+02  0.00000000000E+00 0.  1.
</event>
<event>
 7    1  0.2688177E-009  0.2601116E+03  0.7561462E-02  0.1107076E+00
         -2   -1    0    0    0  501 -0.00000000000E+00  0.00000000000E+00  0.28023361160E+03  0.28023361160E+03  0.00000000000E+00 0.  1.
          2   -1    0    0  501    0  0.00000000000E+00 -0.00000000000E+00 -0.29462425093E+03  0.29462425093E+03  0.00000000000E+00 0. -1.
         25    2    1    2    0    0  0.27805990886E+02 -0.23516256826E+03  0.11184908221E+03  0.29022685269E+03  0.12508717838E+03 0.  0.
          5    1    3    3  502    0  0.38577210615E+02 -0.24643177165E+03  0.11336131324E+03  0.27401656701E+03  0.41800000000E+01 0. -1.
         -5    1    3    3    0  502 -0.10771219729E+02  0.11269203387E+02 -0.15122310241E+01  0.16210285688E+02  0.41800000000E+01 0. -1.
        -11    1    1    2    0    0  0.29231800607E+02  0.14506732030E+03 -0.64640453383E+02  0.16148502655E+03  0.00000000000E+00 0.  1.
         11    1    1    2    0    0 -0.57037791493E+02  0.90095247960E+02 -0.61599268151E+02  0.12314598329E+03  0.00000000000E+00 0. -1.
</event>
<event>
 7    1  0.2688177E-009  0.1455966E+03  0.7561462E-02  0.1205991E+00
         -3   -1    0    0    0  501 -0.00000000000E+00  0.00000000000E+00  0.13302085568E+03  0.13302085568E+03  0.00000000000E+00 0.  1.
          3   -1    0    0  501    0  0.00000000000E+00 -0.00000000000E+00 -0.17499150489E+03  0.17499150489E+03  0.00000000000E+00 0. -1.
         25    2    1    2    0    0  0.85445224477E+02 -0.60473326493E+02  0.25211785780E+01  0.16313080357E+03  0.12508954044E+03 0.  0.
          5    1    3    3  502    0 -0.18955836544E+01 -0.72806984120E+02 -0.11063554300E+02  0.73785668038E+02  0.41800000000E+01 0. -1.
         -5    1    3    3    0  502  0.87340808131E+02  0.12333657626E+02  0.13584732878E+02  0.89345135530E+02  0.41800000000E+01 0. -1.
        -11    1    1    2    0    0 -0.54923621918E+02 -0.74911819655E+01 -0.43349079745E+02  0.70369487468E+02  0.00000000000E+00 0. -1.
         11    1    1    2    0    0 -0.30521602559E+02  0.67964508459E+02 -0.11427480484E+01  0.74512069532E+02  0.00000000000E+00 0.  1.
</event>
<event>
 7    1  0.2688177E-009  0.1205869E+03  0.7561462E-02  0.1242132E+00
         -2   -1    0    0    0  501 -0.00000000000E+00  0.00000000000E+00  0.19989740821E+02  0.19989740821E+02  0.00000000000E+00 0.  1.
          2   -1    0    0  501    0  0.00000000000E+00 -0.00000000000E+00 -0.11845303295E+04  0.11845303295E+04  0.00000000000E+00 0. -1.
         25    2    1    2    0    0 -0.52097830531E+02 -0.64987334702E+01 -0.99823612572E+03  0.10074120725E+04  0.12508918243E+03 0.  0.
          5    1    3    3  502    0 -0.35169552512E+02 -0.65173134235E+02 -0.51481113999E+03  0.52012730855E+03  0.41800000000E+01 0.  1.
         -5    1    3    3    0  502 -0.16928278019E+02  0.58674400765E+02 -0.48342498574E+03  0.48728476391E+03  0.41800000000E+01 0.  1.
        -11    1    1    2    0    0  0.73924005332E+02 -0.14689503250E+02 -0.11696923505E+03  0.13914863283E+03  0.00000000000E+00 0.  1.
         11    1    1    2    0    0 -0.21826174801E+02  0.21188236720E+02 -0.49335227879E+02  0.57959365004E+02  0.00000000000E+00 0. -1.
</event>
<event>
 7    1  0.2688177E-009  0.1029236E+03  0.7561462E-02  0.1274265E+00
         -2   -1    0    0    0  501 -0.00000000000E+00  0.00000000000E+00  0.20493280823E+02  0.20493280823E+02  0.00000000000E+00 0.  1.
          2   -1    0    0  501    0  0.00000000000E+00 -0.00000000000E+00 -0.59866362989E+03  0.59866362989E+03  0.00000000000E+00 0. -1.
         25    2    1    2    0    0  0.62139667621E+01 -0.14982127568E+02 -0.32808019986E+03  0.35149273528E+03  0.12508975932E+03 0.  0.
          5    1    3    3  502    0  0.58682522489E+02  0.52821275687E+01 -0.23793565683E+03  0.24515788486E+03  0.41800000000E+01 0. -1.
         -5    1    3    3    0  502 -0.52468555727E+02 -0.20264255137E+02 -0.90144543031E+02  0.10633485042E+03  0.41800000000E+01 0. -1.
        -11    1    1    2    0    0  0.37080191434E+02 -0.12462405348E+02 -0.67508998664E+02  0.78023823570E+02  0.00000000000E+00 0.  1.
         11    1    1    2    0    0 -0.43294158196E+02  0.27444532916E+02 -0.18258115054E+03  0.18964035186E+03  0.00000000000E+00 0. -1.
</event>
<event>
 7    1  0.2688177E-009  0.1523045E+03  0.7561462E-02  0.1197669E+00
          2   -1    0    0  501    0  0.00000000000E+00  0.00000000000E+00  0.40461348173E+02  0.40461348173E+02  0.00000000000E+00 0.  1.
         -2   -1    0    0    0  501 -0.00000000000E+00 -0.00000000000E+00 -0.70320690070E+03  0.70320690070E+03  0.00000000000E+00 0. -1.
         25    2    1    2    0    0  0.12181200686E+02  0.10922183546E+03 -0.50778589530E+03  0.53438805876E+03  0.12508513458E+03 0.  0.
          5    1    3    3  502    0 -0.20475186934E+02  0.12721605780E+03 -0.38696634939E+03  0.40787692580E+03  0.41800000000E+01 0. -1.
         -5    1    3    3    0  502  0.32656387620E+02 -0.17994222332E+02 -0.12081954591E+03  0.12651113296E+03  0.41800000000E+01 0. -1.
        -11    1    1    2    0    0 -0.46955238841E+02 -0.79930013788E+02 -0.84562134994E+02  0.12547651666E+03  0.00000000000E+00 0.  1.
         11    1    1    2    0    0  0.34774038155E+02 -0.29291821677E+02 -0.70397522239E+02  0.83803673453E+02  0.00000000000E+00 0. -1.
</event>
<event>
 7    1  0.2688177E-009  0.1560693E+03  0.7561462E-02  0.1193207E+00
          1   -1    0    0  501    0  0.00000000000E+00  0.00000000000E+00  0.95391873165E+03  0.95391873165E+03  0.00000000000E+00 0. -1.
         -1   -1    0    0    0  501 -0.00000000000E+00 -0.00000000000E+00 -0.30596909346E+02  0.30596909346E+02  0.00000000000E+00 0.  1.
         25    2    1    2    0    0  0.12255201808E+03  0.25075547926E+02  0.58472417725E+03  0.61089955659E+03  0.12509246396E+03 0.  0.
          5    1    3    3  502    0  0.30937525054E+02  0.50917683374E+02  0.96675158097E+02  0.11363669975E+03  0.41800000000E+01 0.  1.
         -5    1    3    3    0  502  0.91614493029E+02 -0.25842135448E+02  0.48804901915E+03  0.49726285684E+03  0.41800000000E+01 0.  1.
        -11    1    1    2    0    0 -0.45621369638E+02  0.36633464200E+02  0.14461663195E+03  0.15600413553E+03  0.00000000000E+00 0.  1.
         11    1    1    2    0    0 -0.76930648445E+02 -0.61709012127E+02  0.19398101311E+03  0.21761194888E+03  0.00000000000E+00 0. -1.
</event>
<event>
 7    1  0.3796692E-009  0.2304055E+03  0.7561462E-02  0.1126355E+00
          1   -1    0    0  501    0  0.00000000000E+00  0.00000000000E+00  0.84720121877E+03  0.84720121877E+03  0.00000000000E+00 0. -1.
         -1   -1    0    0    0  501 -0.00000000000E+00 -0.00000000000E+00 -0.68815289199E+02  0.68815289199E+02  0.00000000000E+00 0.  1.
         25    2    1    2    0    0 -0.15829781884E+03  0.13055565509E+03  0.52478059263E+03  0.57718714133E+03  0.12508935681E+03 0.  0.
          5    1    3    3  502    0 -0.17505155703E+03  0.13614971461E+03  0.47606831037E+03  0.52520310448E+03  0.41800000000E+01 0.  1.
         -5    1    3    3    0  502  0.16753738184E+02 -0.55940595231E+01  0.48712282254E+02  0.51984036852E+02  0.41800000000E+01 0.  1.
        -11    1    1    2    0    0  0.82502738833E+02 -0.16854127260E+02  0.12805340746E+03  0.15325938367E+03  0.00000000000E+00 0.  1.
         11    1    1    2    0    0  0.75795080012E+02 -0.11370152783E+03  0.12555192949E+03  0.18556998298E+03  0.00000000000E+00 0. -1.
</event>
<event>
 7    1  0.2688177E-009  0.1078472E+03  0.7561462E-02  0.1264609E+00
         -2   -1    0    0    0  501 -0.00000000000E+00  0.00000000000E+00  0.39212475856E+02  0.39212475856E+02  0.00000000000E+00 0.  1.
          2   -1    0    0  501    0  0.00000000000E+00 -0.00000000000E+00 -0.31163976176E+03  0.31163976176E+03  0.00000000000E+00 0. -1.
         25    2    1    2    0    0  0.12964373494E+02  0.12964706104E+02 -0.13941434671E+03  0.18820175790E+03  0.12508950006E+03 0.  0.
          5    1    3    3  502    0 -0.70969364467E+01 -0.54905280954E+02 -0.60039846225E+02  0.81775374767E+02  0.41800000000E+01 0.  1.
         -5    1    3    3    0  502  0.20061309941E+02  0.67869987058E+02 -0.79374500487E+02  0.10642638314E+03  0.41800000000E+01 0.  1.
        -11    1    1    2    0    0  0.18436483616E+02 -0.42402309082E+02 -0.93107592242E+02  0.10395616132E+03  0.00000000000E+00 0. -1.
         11    1    1    2    0    0 -0.31400857111E+02  0.29437602978E+02 -0.39905346953E+02  0.58694318395E+02  0.00000000000E+00 0.  1.
</event>
<event>
 7    1  0.2688177E-009  0.5300327E+02  0.7561462E-02  0.1429785E+00
          4   -1    0    0  501    0  0.00000000000E+00  0.00000000000E+00  0.37362473337E+02  0.37362473337E+02  0.00000000000E+00 0. -1.
         -4   -1    0    0    0  501 -0.00000000000E+00 -0.00000000000E+00 -0.37886894851E+03  0.37886894851E+03  0.00000000000E+00 0.  1.
         25    2    1    2    0    0 -0.46310325884E+02 -0.10465941246E+02 -0.22550057161E+03  0.26220400466E+03  0.12508497133E+03 0.  0.
          5    1    3    3  502    0 -0.23826302035E+02 -0.19449239422E+02 -0.23411773231E+03  0.23616636205E+03  0.41800000000E+01 0. -1.
         -5    1    3    3    0  502 -0.22484023849E+02  0.89832981757E+01  0.86171606906E+01  0.26037642615E+02  0.41800000000E+01 0. -1.
        -11    1    1    2    0    0  0.24122512808E+02  0.14058333965E+02 -0.12626860020E+03  0.12931856702E+03  0.00000000000E+00 0.  1.
         11    1    1    2    0    0  0.22187813076E+02 -0.35923927187E+01  0.10262696640E+02  0.24708850173E+02  0.00000000000E+00 0. -1.
</event>
<event>
 7    1  0.2688177E-009  0.1140166E+03  0.7561462E-02  0.1253308E+00
          1   -1    0    0  501    0  0.00000000000E+00  0.00000000000E+00  0.79348014823E+03  0.79348014823E+03  0.00000000000E+00 0. -1.
         -1   -1    0    0    0  501 -0.00000000000E+00 -0.00000000000E+00 -0.16768176024E+02  0.16768176024E+02  0.00000000000E+00 0.  1.
         25    2    1    2    0    0  0.36594030790E+02  0.11251898395E+02  0.48041028257E+03  0.49790030605E+03  0.12507976202E+03 0.  0.
          5    1    3    3  502    0  0.55591310566E+02  0.57055251953E+02  0.26101120497E+03  0.27292859342E+03  0.41800000000E+01 0. -1.
         -5    1    3    3    0  502 -0.18997279776E+02 -0.45803353558E+02  0.21939907760E+03  0.22497171264E+03  0.41800000000E+01 0. -1.
        -11    1    1    2    0    0  0.14387204988E+01 -0.46573842626E+02  0.12758116484E+03  0.13582395354E+03  0.00000000000E+00 0.  1.
         11    1    1    2    0    0 -0.38032751289E+02  0.35321944231E+02  0.16872052480E+03  0.17652406466E+03  0.00000000000E+00 0. -1.
</event>
<event>
 7    1  0.2688177E-009  0.1209967E+03  0.7561462E-02  0.1241462E+00
         -1   -1    0    0    0  501 -0.00000000000E+00  0.00000000000E+00  0.35812275097E+02  0.35812275097E+02  0.00000000000E+00 0.  1.
          1   -1    0    0  501    0  0.00000000000E+00 -0.00000000000E+00 -0.59689739336E+03  0.59689739336E+03  0.00000000000E+00 0. -1.
         25    2    1    2    0    0 -0.61385278900E+02 -0.27930202438E+02 -0.44997053927E+03  0.47187832718E+03  0.12508965098E+03 0.  0.
          5    1    3    3  502    0 -0.12362312947E+02 -0.68844311942E+02 -0.15584942844E+03  0.17087680596E+03  0.41800000000E+01 0. -1.
         -5    1    3    3    0  502 -0.49022965953E+02  0.40914109505E+02 -0.29412111083E+03  0.30100152123E+03  0.41800000000E+01 0. -1.
        -11    1    1    2    0    0 -0.15313820490E+02 -0.13802164872E+02 -0.14728337766E+01  0.20668383887E+02  0.00000000000E+00 0.  1.
         11    1    1    2    0    0  0.76699099390E+02  0.41732367309E+02 -0.10964174521E+03  0.14016295738E+03  0.00000000000E+00 0. -1.
</event>
<event>
 7    1  0.2688177E-009  0.1465743E+03  0.7561462E-02  0.1204747E+00
         -2   -1    0    0    0  501 -0.00000000000E+00  0.00000000000E+00  0.33833559984E+02  0.33833559984E+02  0.00000000000E+00 0.  1.
          2   -1    0    0  501    0  0.00000000000E+00 -0.00000000000E+00 -0.97752009681E+03  0.97752009681E+03  0.00000000000E+00 0. -1.
         25    2    1    2    0    0  0.13864961331E+03 -0.25920353483E+02 -0.39929135803E+03  0.44156165505E+03  0.12509007405E+03 0.  0.
          5    1    3    3  502    0  0.10029169876E+03 -0.18949200263E+02 -0.11192539884E+03  0.15153304701E+03  0.41800000000E+01 0. -1.
         -5    1    3    3    0  502  0.38357914547E+02 -0.69711532194E+01 -0.28736595919E+03  0.29002860805E+03  0.41800000000E+01 0. -1.
        -11    1    1    2    0    0 -0.17713096323E+02 -0.15921569081E+02 -0.23691851097E+02  0.33593957071E+02  0.00000000000E+00 0.  1.
         11    1    1    2    0    0 -0.12093651698E+03  0.41841922564E+02 -0.52070332771E+03  0.53619804467E+03  0.00000000000E+00 0. -1.
</event>
<event>
 7    1  0.2688177E-009  0.1382409E+03  0.7561462E-02  0.1215716E+00
          1   -1    0    0  501    0  0.00000000000E+00  0.00000000000E+00  0.90262850536E+03  0.90262850536E+03  0.00000000000E+00 0. -1.
         -1   -1    0    0    0  501 -0.00000000000E+00 -0.00000000000E+00 -0.30735908178E+02  0.30735908178E+02  0.00000000000E+00 0.  1.
         25    2    1    2    0    0 -0.86914949036E+02  0.82893259995E+02  0.56598357188E+03  0.59195456401E+03  0.12508917338E+03 0.  0.
          5    1    3    3  502    0 -0.34020115467E+02  0.92066632456E+02  0.48399585209E+03  0.49386545770E+03  0.41800000000E+01 0.  1.
         -5    1    3    3    0  502 -0.52894833569E+02 -0.91733724606E+01  0.81987719792E+02  0.98089106313E+02  0.41800000000E+01 0.  1.
        -11    1    1    2    0    0  0.54978354732E+02 -0.72129125851E+02  0.10973617420E+03  0.14236312098E+03  0.00000000000E+00 0.  1.
         11    1    1    2    0    0  0.31936594304E+02 -0.10764134144E+02  0.19617285109E+03  0.19904672855E+03  0.00000000000E+00 0. -1.
</event>
<event>
 7    1  0.2688177E-009  0.2028658E+03  0.7561462E-02  0.1147343E+00
          1   -1    0    0  501    0  0.00000000000E+00  0.00000000000E+00  0.92758350003E+03  0.92758350003E+03  0.00000000000E+00 0. -1.
         -1   -1    0    0    0  501 -0.00000000000E+00 -0.00000000000E+00 -0.53942254773E+02  0.53942254773E+02  0.00000000000E+00 0.  1.
         25    2    1    2    0    0 -0.16805487285E+03 -0.78024223410E+02  0.59249312043E+03  0.63326867888E+03  0.12510356580E+03 0.  0.
          5    1    3    3  502    0 -0.14394591673E+02  0.22900063943E+02  0.17424197564E+03  0.17637844447E+03  0.41800000000E+01 0.  1.
         -5    1    3    3    0  502 -0.15366028118E+03 -0.10092428735E+03  0.41825114478E+03  0.45689023441E+03  0.41800000000E+01 0.  1.
        -11    1    1    2    0    0  0.25504690442E+02  0.39139244891E+02  0.26134770881E+02  0.53529393553E+02  0.00000000000E+00 0.  1.
         11    1    1    2    0    0  0.14255018241E+03  0.38884978519E+02  0.25501335395E+03  0.29472768236E+03  0.00000000000E+00 0. -1.
</event>
<event>
 7    1  0.2688177E-009  0.1315643E+03  0.7561462E-02  0.1225153E+00
          1   -1    0    0  501    0  0.00000000000E+00  0.00000000000E+00  0.79615393620E+02  0.79615393620E+02  0.00000000000E+00 0. -1.
         -1   -1    0    0    0  501 -0.00000000000E+00 -0.00000000000E+00 -0.33841990831E+03  0.33841990831E+03  0.00000000000E+00 0.  1.
         25    2    1    2    0    0 -0.83263607301E+02 -0.32851781889E+02 -0.30674700744E+02  0.15684515880E+03  0.12508956270E+03 0.  0.
          5    1    3    3  502    0 -0.10487585387E+03  0.10001775828E+02 -0.17281446264E+02  0.10684147617E+03  0.41800000000E+01 0.  1.
         -5    1    3    3    0  502  0.21612246569E+02 -0.42853557718E+02 -0.13393254480E+02  0.50003682628E+02  0.41800000000E+01 0.  1.
        -11    1    1    2    0    0  0.35696788906E+02 -0.17921994814E+02 -0.26602688234E+02  0.47991266472E+02  0.00000000000E+00 0.  1.
         11    1    1    2    0    0  0.47566818394E+02  0.50773776704E+02 -0.20152712572E+03  0.21319887667E+03  0.00000000000E+00 0. -1.
</event>
<event>
 7    1  0.2688177E-009  0.1566281E+03  0.7561462E-02  0.1192557E+00
         -1   -1    0    0    0  501 -0.00000000000E+00  0.00000000000E+00  0.20433285551E+03  0.20433285551E+03  0.00000000000E+00 0.  1.
          1   -1    0    0  501    0  0.00000000000E+00 -0.00000000000E+00 -0.15968638873E+03  0.15968638873E+03  0.00000000000E+00 0. -1.
         25    2    1    2    0    0  0.13796015721E+03  0.24622064923E+02 -0.10259046143E+02  0.18812866758E+03  0.12509155239E+03 0.  0.
          5    1    3    3  502    0  0.11811536552E+03  0.43809342917E+02  0.38626117042E+02  0.13183302855E+03  0.41800000000E+01 0. -1.
         -5    1    3    3    0  502  0.19844791692E+02 -0.19187277994E+02 -0.48885163185E+02  0.56295639030E+02  0.41800000000E+01 0. -1.
        -11    1    1    2    0    0 -0.82914761981E+02 -0.51939060759E+02  0.59088023608E+02  0.11429749919E+03  0.00000000000E+00 0.  1.
         11    1    1    2    0    0 -0.55045395231E+02  0.27316995836E+02 -0.41825106851E+01  0.61593077478E+02  0.00000000000E+00 0. -1.
</event>
<event>
 7    1  0.2688177E-009  0.8340939E+02  0.7561462E-02  0.1319645E+00
         -2   -1    0    0    0  501 -0.00000000000E+00  0.00000000000E+00  0.67529411085E+02  0.67529411085E+02  0.00000000000E+00 0.  1.
          2   -1    0    0  501    0  0.00000000000E+00 -0.00000000000E+00 -0.22976935145E+03  0.22976935145E+03  0.00000000000E+00 0. -1.
         25    2    1    2    0    0  0.76592307414E+01  0.52064194876E+02 -0.54826458542E+02  0.14636489166E+03  0.12508955492E+03 0.  0.
          5    1    3    3  502    0  0.43134645588E+01  0.56639053580E+02 -0.92178034809E+02  0.10835520693E+03  0.41800000000E+01 0.  1.
         -5    1    3    3    0  502  0.33457661826E+01 -0.45748587038E+01  0.37351576268E+02  0.38009684729E+02  0.41800000000E+01 0.  1.
        -11    1    1    2    0    0  0.30490733387E+02 -0.56710714196E+02 -0.84336552747E+02  0.10610581538E+03  0.00000000000E+00 0. -1.
         11    1    1    2    0    0 -0.38149964129E+02  0.46465193202E+01 -0.23076929078E+02  0.44828055506E+02  0.00000000000E+00 0.  1.
</event>
<event>
 7    1  0.2688177E-009  0.2346835E+03  0.7561462E-02  0.1123386E+00
          2   -1    0    0  501    0  0.00000000000E+00  0.00000000000E+00  0.80173430341E+02  0.80173430341E+02  0.00000000000E+00 0.  1.
         -2   -1    0    0    0  501 -0.00000000000E+00 -0.00000000000E+00 -0.91900535446E+03  0.91900535446E+03  0.00000000000E+00 0. -1.
         25    2    1    2    0    0 -0.94450084630E+02  0.18677334282E+03 -0.68076083199E+03  0.72310995155E+03  0.12509033371E+03 0.  0.
          5    1    3    3  502    0  0.21444892426E+02  0.88228139637E+02 -0.22763539106E+03  0.24511105992E+03  0.41800000000E+01 0. -1.
         -5    1    3    3    0  502 -0.11589497706E+03  0.98545203178E+02 -0.45312544093E+03  0.47799889163E+03  0.41800000000E+01 0. -1.
        -11    1    1    2    0    0  0.11108889649E+03 -0.16071815763E+03 -0.13453961556E+03  0.23721715215E+03  0.00000000000E+00 0. -1.
         11    1    1    2    0    0 -0.16638811864E+02 -0.26055185181E+02 -0.23531476571E+02  0.38851681105E+02  0.00000000000E+00 0.  1.
</event>
<event>
 7    1  0.2688177E-009  0.9946248E+02  0.7561462E-02  0.1281430E+00
          1   -1    0    0  501    0  0.00000000000E+00  0.00000000000E+00  0.50366084412E+03  0.50366084412E+03  0.00000000000E+00 0. -1.
         -1   -1    0    0    0  501 -0.00000000000E+00 -0.00000000000E+00 -0.27997249977E+02  0.27997249977E+02  0.00000000000E+00 0.  1.
         25    2    1    2    0    0 -0.13308777055E+02  0.21957014762E+02  0.36275010524E+03  0.38456932100E+03  0.12508672895E+03 0.  0.
          5    1    3    3  502    0  0.11802879518E+02 -0.49771493076E+02  0.13419926835E+03  0.14367820124E+03  0.41800000000E+01 0. -1.
         -5    1    3    3    0  502 -0.25111656573E+02  0.71728507838E+02  0.22855083689E+03  0.24089111975E+03  0.41800000000E+01 0. -1.
        -11    1    1    2    0    0 -0.53110871844E+01  0.22591470035E+02  0.91273982830E+02  0.94178140283E+02  0.00000000000E+00 0. -1.
         11    1    1    2    0    0  0.18619864239E+02 -0.44548484797E+02  0.21639506075E+02  0.52910632818E+02  0.00000000000E+00 0.  1.
</event>
<event>
 7    1  0.2688177E-009  0.9787334E+02  0.7561462E-02  0.1284833E+00
         -1   -1    0    0    0  501 -0.00000000000E+00  0.00000000000E+00  0.17022969774E+02  0.17022969774E+02  0.00000000000E+00 0.  1.
          1   -1    0    0  501    0  0.00000000000E+00 -0.00000000000E+00 -0.82055310073E+03  0.82055310073E+03  0.00000000000E+00 0. -1.
         25    2    1    2    0    0 -0.37695343085E+02  0.31124593473E+02 -0.45381706856E+03  0.47327228342E+03  0.12508814223E+03 0.  0.
          5    1    3    3  502    0 -0.94128547377E+01 -0.34343034088E+02 -0.41635083746E+02  0.54945413123E+02  0.41800000000E+01 0. -1.
         -5    1    3    3    0  502 -0.28282488348E+02  0.65467627561E+02 -0.41218198481E+03  0.41832687029E+03  0.41800000000E+01 0. -1.
        -11    1    1    2    0    0 -0.17929654021E+02  0.88117176863E+01 -0.22881090804E+02  0.30375371245E+02  0.00000000000E+00 0.  1.
         11    1    1    2    0    0  0.55624997106E+02 -0.39936311159E+02 -0.32683197159E+03  0.33392841584E+03  0.00000000000E+00 0. -1.
</event>
<event>
 7    1  0.2688177E-009  0.1849823E+03  0.7561462E-02  0.1163066E+00
         -2   -1    0    0    0  501 -0.00000000000E+00  0.00000000000E+00  0.77809895307E+02  0.77809895307E+02  0.00000000000E+00 0.  1.
          2   -1    0    0  501    0  0.00000000000E+00 -0.00000000000E+00 -0.55073811177E+03  0.55073811177E+03  0.00000000000E+00 0. -1.
         25    2    1    2    0    0  0.17179970393E+03 -0.28812946414E+02 -0.21089704466E+03  0.30078293038E+03  0.12508990211E+03 0.  0.
          5    1    3    3  502    0  0.66960165206E+02 -0.20944439583E+02 -0.61119165871E+01  0.70548998563E+02  0.41800000000E+01 0. -1.
         -5    1    3    3    0  502  0.10483953873E+03 -0.78685068312E+01 -0.20478512807E+03  0.23023393181E+03  0.41800000000E+01 0. -1.
        -11    1    1    2    0    0 -0.15521778332E+03  0.53970136673E+02 -0.23801503160E+03  0.28923431882E+03  0.00000000000E+00 0. -1.
         11    1    1    2    0    0 -0.16581920611E+02 -0.25157190258E+02 -0.24016140204E+02  0.38530757884E+02  0.00000000000E+00 0.  1.
</event>
<event>
 7    1  0.2688177E-009  0.1149640E+03  0.7561462E-02  0.1251644E+00
          1   -1    0    0  501    0  0.00000000000E+00  0.00000000000E+00  0.18237962737E+03  0.18237962737E+03  0.00000000000E+00 0. -1.
         -1   -1    0    0    0  501 -0.00000000000E+00 -0.00000000000E+00 -0.77706620273E+02  0.77706620273E+02  0.00000000000E+00 0.  1.
         25    2    1    2    0    0 -0.23560233223E+02  0.40210865201E+02  0.52846974532E+02  0.14357402922E+03  0.12509476759E+03 0.  0.
          5    1    3    3  502    0  0.24844514756E+02  0.65964975673E+02  0.51817506328E+01  0.70802195366E+02  0.41800000000E+01 0. -1.
         -5    1    3    3    0  502 -0.48404747979E+02 -0.25754110472E+02  0.47665223899E+02  0.72771833854E+02  0.41800000000E+01 0. -1.
        -11    1    1    2    0    0  0.33979248145E+02  0.22501946692E+02  0.19022763648E+02  0.44975464936E+02  0.00000000000E+00 0. -1.
         11    1    1    2    0    0 -0.10419014922E+02 -0.62712811894E+02  0.32803268915E+02  0.71536753484E+02  0.00000000000E+00 0.  1.
</event>
<event>
 7    1  0.2688177E-009  0.7493554E+02  0.7561462E-02  0.1344071E+00
          1   -1    0    0  501    0  0.00000000000E+00  0.00000000000E+00  0.11129957669E+04  0.11129957669E+04  0.00000000000E+00 0. -1.
         -1   -1    0    0    0  501 -0.00000000000E+00 -0.00000000000E+00 -0.15094821411E+02  0.15094821411E+02  0.00000000000E+00 0.  1.
         25    2    1    2    0    0 -0.40312896435E+02  0.31435940150E+02  0.80438763800E+03  0.81566113068E+03  0.12510099916E+03 0.  0.
          5    1    3    3  502    0 -0.39224139405E+02 -0.63304062715E+01  0.73861049978E+03  0.73969017158E+03  0.41800000000E+01 0.  1.
         -5    1    3    3    0  502 -0.10887570303E+01  0.37766346422E+02  0.65777138218E+02  0.75970959097E+02  0.41800000000E+01 0.  1.
        -11    1    1    2    0    0 -0.13671666920E+01  0.11784739411E+02 -0.95472022066E+00  0.11902130837E+02  0.00000000000E+00 0.  1.
         11    1    1    2    0    0  0.41680063127E+02 -0.43220679562E+02  0.29446802767E+03  0.30052732675E+03  0.00000000000E+00 0. -1.
</event>
<event>
 6    1  0.2688177E-009  0.2669524E+03  0.7561462E-02  0.1103037E+00
         -2   -1    0    0    0  501 -0.00000000000E+00  0.00000000000E+00  0.25348405080E+03  0.25348405080E+03  0.00000000000E+00 0.  1.
          2   -1    0    0  501    0  0.00000000000E+00 -0.00000000000E+00 -0.12452923696E+04  0.12452923696E+04  0.00000000000E+00 0. -1.
          5    1    1    2  502    0  0.32260388802E+02 -0.16702480936E+02 -0.35032271759E+03  0.35222604165E+03  0.41800000000E+01 0.  1.
         -5    1    1    2    0  502  0.22107019777E+03  0.81437778475E+02 -0.79589635613E+03  0.83004374958E+03  0.41800000000E+01 0.  1.
        -11    1    1    2    0    0 -0.93251253239E+02 -0.18311117756E+02  0.10723359445E+03  0.14328341510E+03  0.00000000000E+00 0.  1.
         11    1    1    2    0    0 -0.16007933333E+03 -0.46424179783E+02  0.47177160465E+02  0.17322321408E+03  0.00000000000E+00 0. -1.
</event>
<event>
 7    1  0.2688177E-009  0.1206695E+03  0.7561462E-02  0.1241997E+00
         -1   -1    0    0    0  501 -0.00000000000E+00  0.00000000000E+00  0.12213726389E+03  0.12213726389E+03  0.00000000000E+00 0.  1.
          1   -1    0    0  501    0  0.00000000000E+00 -0.00000000000E+00 -0.17929634078E+03  0.17929634078E+03  0.00000000000E+00 0. -1.
         25    2    1    2    0    0  0.90454272918E+02 -0.43113558926E+02 -0.38044263898E+02  0.16472818465E+03  0.12508898572E+03 0.  0.
          5    1    3    3  502    0 -0.13979316326E+02 -0.30573303981E+02  0.24931406937E+02  0.42061807535E+02  0.41800000000E+01 0.  1.
         -5    1    3    3    0  502  0.10443358924E+03 -0.12540254945E+02 -0.62975670835E+02  0.12266637711E+03  0.41800000000E+01 0.  1.
        -11    1    1    2    0    0 -0.15942672858E+02  0.16834680477E+02  0.34251568518E+02  0.41361156059E+02  0.00000000000E+00 0.  1.
         11    1    1    2    0    0 -0.74511600060E+02  0.26278878449E+02 -0.53366381508E+02  0.95344263966E+02  0.00000000000E+00 0. -1.
</event>
<event>
 6    1  0.2688177E-009  0.2187709E+03  0.7561462E-02  0.1134803E+00
          2   -1    0    0  501    0  0.00000000000E+00  0.00000000000E+00  0.20066867875E+04  0.20066867875E+04  0.00000000000E+00 0. -1.
         -2   -1    0    0    0  501 -0.00000000000E+00 -0.00000000000E+00 -0.25444860740E+02  0.25444860740E+02  0.00000000000E+00 0.  1.
          5    1    1    2  502    0  0.49239323864E+00 -0.73799949597E+02  0.21558293194E+03  0.22790381294E+03  0.41800000000E+01 0. -1.
         -5    1    1    2    0  502  0.14464425678E+03 -0.52005848487E+02  0.58308712829E+03  0.60302126072E+03  0.41800000000E+01 0. -1.
        -11    1    1    2    0    0 -0.14902003463E+03  0.90523013128E+02  0.10210602580E+04  0.10358404496E+04  0.00000000000E+00 0. -1.
         11    1    1    2    0    0  0.38833846072E+01  0.35282784955E+02  0.16151160857E+03  0.16536612498E+03  0.00000000000E+00 0.  1.
</event>
<event>
 7    1  0.2688177E-009  0.1433154E+03  0.7561462E-02  0.1208936E+00
          2   -1    0    0  501    0  0.00000000000E+00  0.00000000000E+00  0.69129724595E+03  0.69129724595E+03  0.00000000000E+00 0. -1.
         -2   -1    0    0    0  501 -0.00000000000E+00 -0.00000000000E+00 -0.48774251891E+02  0.48774251891E+02  0.00000000000E+00 0.  1.
         25    2    1    2    0    0  0.10356375466E+03  0.52783759642E+02  0.52457642403E+03  0.55167079525E+03  0.12509462468E+03 0.  0.
          5    1    3    3  502    0  0.55784356825E+02 -0.24158759447E+02  0.96728260546E+02  0.11432134058E+03  0.41800000000E+01 0. -1.
         -5    1    3    3    0  502  0.47779397837E+02  0.76942519089E+02  0.42784816349E+03  0.43734945467E+03  0.41800000000E+01 0. -1.
        -11    1    1    2    0    0 -0.13109431294E+02  0.16511444736E+02 -0.40482315330E+01  0.21467956928E+02  0.00000000000E+00 0.  1.
         11    1    1    2    0    0 -0.90454323368E+02 -0.69295204378E+02  0.12199480156E+03  0.16693274566E+03  0.00000000000E+00 0. -1.
</event>
<event>
 7    1  0.2688177E-009  0.1137344E+03  0.7561462E-02  0.1253807E+00
          1   -1    0    0  501    0  0.00000000000E+00  0.00000000000E+00  0.61103080064E+03  0.61103080064E+03  0.00000000000E+00 0. -1.
         -1   -1    0    0    0  501 -0.00000000000E+00 -0.00000000000E+00 -0.21898672816E+02  0.21898672816E+02  0.00000000000E+00 0.  1.
         25    2    1    2    0    0  0.34009663900E+02 -0.19148232511E+02  0.35064909678E+03  0.37433439264E+03  0.12509251136E+03 0.  0.
          5    1    3    3  502    0 -0.41690136967E+02 -0.32529333592E+02  0.16632501471E+03  0.17457865844E+03  0.41800000000E+01 0.  1.
         -5    1    3    3    0  502  0.75699800867E+02  0.13381101081E+02  0.18432408206E+03  0.19975573420E+03  0.41800000000E+01 0.  1.
        -11    1    1    2    0    0 -0.40556839219E+02 -0.28354585333E+02  0.15002792461E+03  0.15797853614E+03  0.00000000000E+00 0. -1.
         11    1    1    2    0    0  0.65471753185E+01  0.47502817844E+02  0.88455106431E+02  0.10061654467E+03  0.00000000000E+00 0.  1.
</event>
<event>
 7    1  0.2688177E-009  0.1605319E+03  0.7561462E-02  0.1188098E+00
         -2   -1    0    0    0  501 -0.00000000000E+00  0.00000000000E+00  0.18466604476E+02  0.18466604476E+02  0.00000000000E+00 0.  1.
          2   -1    0    0  501    0  0.00000000000E+00 -0.00000000000E+00 -0.23535466216E+04  0.23535466216E+04  0.00000000000E+00 0. -1.
         25    2    1    2    0    0 -0.12062260539E+03  0.36696180594E+02 -0.19388482587E+04  0.19469658766E+04  0.12508849520E+03 0.  0.
          5    1    3    3  502    0 -0.10159787505E+02  0.59207092566E+02 -0.89947545746E+03  0.90148891954E+03  0.41800000000E+01 0.  1.
         -5    1    3    3    0  502 -0.11046281789E+03 -0.22510911971E+02 -0.10393728013E+04  0.10454769570E+04  0.41800000000E+01 0.  1.
        -11    1    1    2    0    0  0.76504328162E+02 -0.60836413160E+02 -0.20193158304E+03  0.22434425694E+03  0.00000000000E+00 0.  1.
         11    1    1    2    0    0  0.44118277227E+02  0.24140232566E+02 -0.19430017538E+03  0.20070309257E+03  0.00000000000E+00 0. -1.
</event>
<event>
 7    1  0.2688177E-009  0.1220867E+03  0.7561462E-02  0.1239694E+00
         -2   -1    0    0    0  501 -0.00000000000E+00  0.00000000000E+00  0.75675482266E+02  0.75675482266E+02  0.00000000000E+00 0.  1.
          2   -1    0    0  501    0  0.00000000000E+00 -0.00000000000E+00 -0.26684319325E+03  0.26684319325E+03  0.00000000000E+00 0. -1.
         25    2    1    2    0    0  0.24089381103E+02 -0.77744574993E+02 -0.15448968051E+03  0.21480107749E+03  0.12509166353E+03 0.  0.
          5    1    3    3  502    0 -0.48977867549E+02 -0.50521013533E+02 -0.63217676164E+02  0.94684482877E+02  0.41800000000E+01 0. -1.
         -5    1    3    3    0  502  0.73067248652E+02 -0.27223561460E+02 -0.91272004347E+02  0.12011659461E+03  0.41800000000E+01 0. -1.
        -11    1    1    2    0    0  0.14609484962E+02  0.35064315417E+02  0.23291144914E+02  0.44558059854E+02  0.00000000000E+00 0.  1.
         11    1    1    2    0    0 -0.38698866065E+02  0.42680259576E+02 -0.59969175382E+02  0.83159538167E+02  0.00000000000E+00 0. -1.
</event>
<event>
 7    1  0.3231630E-009  0.1566206E+03  0.7561462E-02  0.1192566E+00
          2   -1    0    0  501    0  0.00000000000E+00  0.00000000000E+00  0.12112776954E+04  0.12112776954E+04  0.00000000000E+00 0. -1.
         -2   -1    0    0    0  501 -0.00000000000E+00 -0.00000000000E+00 -0.21705245856E+02  0.21705245856E+02  0.00000000000E+00 0.  1.
         25    2    1    2    0    0 -0.87783289316E+02  0.77172261026E+02  0.53350430920E+03  0.56030028825E+03  0.12509237118E+03 0.  0.
          5    1    3    3  502    0  0.29639691643E+02  0.32964020107E+02  0.11298953421E+03  0.12144647044E+03  0.41800000000E+01 0.  1.
         -5    1    3    3    0  502 -0.11742298096E+03  0.44208240919E+02  0.42051477499E+03  0.43885381781E+03  0.41800000000E+01 0.  1.
        -11    1    1    2    0    0  0.74945428843E+02 -0.10974308112E+02  0.25596160422E+03  0.26693369135E+03  0.00000000000E+00 0. -1.
         11    1    1    2    0    0  0.12837860473E+02 -0.66197952914E+02  0.40010653609E+03  0.40574896161E+03  0.00000000000E+00 0.  1.
</event>
<event>
 7    1  0.2688177E-009  0.1077478E+03  0.7561462E-02  0.1264798E+00
          1   -1    0    0  501    0  0.00000000000E+00  0.00000000000E+00  0.86676231384E+02  0.86676231384E+02  0.00000000000E+00 0. -1.
         -1   -1    0    0    0  501 -0.00000000000E+00 -0.00000000000E+00 -0.21600147666E+03  0.21600147666E+03  0.00000000000E+00 0.  1.
         25    2    1    2    0    0 -0.21924952116E+02  0.40174581119E-02  0.18009171388E+02  0.12826715723E+03  0.12508968714E+03 0.  0.
          5    1    3    3  502    0 -0.33793548228E+01 -0.61250648268E+02  0.18223769730E+02  0.64129869292E+02  0.41800000000E+01 0.  1.
         -5    1    3    3    0  502 -0.18545597293E+02  0.61254665726E+02 -0.21459834188E+00  0.64137287942E+02  0.41800000000E+01 0.  1.
        -11    1    1    2    0    0  0.28420044454E+02 -0.40157691299E+02 -0.56706130042E+02  0.75072793218E+02  0.00000000000E+00 0.  1.
         11    1    1    2    0    0 -0.64950923383E+01  0.40153673841E+02 -0.90628286620E+02  0.99337757590E+02  0.00000000000E+00 0. -1.
</event>
<event>
 7    1  0.2688177E-009  0.2670905E+03  0.7561462E-02  0.1102956E+00
          2   -1    0    0  501    0  0.00000000000E+00  0.00000000000E+00  0.68202281094E+03  0.68202281094E+03  0.00000000000E+00 0. -1.
         -2   -1    0    0    0  501 -0.00000000000E+00 -0.00000000000E+00 -0.11551845961E+03  0.11551845961E+03  0.00000000000E+00 0.  1.
         25    2    1    2    0    0  0.24573210987E+03  0.69739324014E+02  0.34999351000E+03  0.45098825279E+03  0.12508838466E+03 0.  0.
          5    1    3    3  502    0  0.87572462681E+02  0.80142380589E+02  0.20064796531E+03  0.23317121557E+03  0.41800000000E+01 0.  1.
         -5    1    3    3    0  502  0.15815964719E+03 -0.10403056575E+02  0.14934554469E+03  0.21781703722E+03  0.41800000000E+01 0.  1.
        -11    1    1    2    0    0 -0.10849405601E+03 -0.16991808559E+02  0.14814710123E+03  0.18441053481E+03  0.00000000000E+00 0. -1.
         11    1    1    2    0    0 -0.13723805387E+03 -0.52747515455E+02  0.68363740097E+02  0.16214248295E+03  0.00000000000E+00 0.  1.
</event>
<event>
 7    1  0.2688177E-009  0.1162509E+03  0.7561462E-02  0.1249413E+00
          1   -1    0    0  501    0  0.00000000000E+00  0.00000000000E+00  0.20010940113E+03  0.20010940113E+03  0.00000000000E+00 0. -1.
         -1   -1    0    0    0  501 -0.00000000000E+00 -0.00000000000E+00 -0.98891271520E+02  0.98891271520E+02  0.00000000000E+00 0.  1.
         25    2    1    2    0    0 -0.19594753952E+02 -0.75446324375E+02  0.10286327968E+03  0.17973511175E+03  0.12509098227E+03 0.  0.
          5    1    3    3  502    0 -0.14214374795E+02  0.20935491406E+02 -0.13094923324E+02  0.28797442040E+02  0.41800000000E+01 0.  1.
         -5    1    3    3    0  502 -0.53803791575E+01 -0.96381815781E+02  0.11595820301E+03  0.15093766971E+03  0.41800000000E+01 0.  1.
        -11    1    1    2    0    0  0.28816231083E+01  0.88795116172E+02 -0.20017082812E+02  0.91068984907E+02  0.00000000000E+00 0.  1.
         11    1    1    2    0    0  0.16713130844E+02 -0.13348791797E+02  0.18371932734E+02  0.28196575988E+02  0.00000000000E+00 0. -1.
</event>
<event>
 7    1  0.2688177E-009  0.2417757E+03  0.7561462E-02  0.1118616E+00
          1   -1    0    0  501    0  0.00000000000E+00  0.00000000000E+00  0.55593558322E+03  0.55593558322E+03  0.00000000000E+00 0. -1.
         -1   -1    0    0    0  501 -0.00000000000E+00 -0.00000000000E+00 -0.11922060505E+03  0.11922060505E+03  0.00000000000E+00 0.  1.
         25    2    1    2    0    0 -0.45471102746E+01  0.23188115149E+03  0.25726847518E+03  0.36827176640E+03  0.12508989159E+03 0.  0.
          5    1    3    3  502    0 -0.23569791989E+02  0.19692162706E+03  0.13585316144E+03  0.24043131280E+03  0.41800000000E+01 0.  1.
         -5    1    3    3    0  502  0.19022681715E+02  0.34959524428E+02  0.12141531374E+03  0.12784045360E+03  0.41800000000E+01 0.  1.
        -11    1    1    2    0    0 -0.36319067021E+02 -0.13939728086E+03  0.78689312134E+02  0.16414226873E+03  0.00000000000E+00 0.  1.
         11    1    1    2    0    0  0.40866177296E+02 -0.92483870635E+02  0.10075719086E+03  0.14274215314E+03  0.00000000000E+00 0. -1.
</event>
<event>
 7    1  0.2821975E-009  0.8998391E+02  0.7561462E-02  0.1302891E+00
          1   -1    0    0  501    0  0.00000000000E+00  0.00000000000E+00  0.13058190949E+04  0.13058190949E+04  0.00000000000E+00 0. -1.
         -1   -1    0    0    0  501 -0.00000000000E+00 -0.00000000000E+00 -0.17273227605E+02  0.17273227605E+02  0.00000000000E+00 0.  1.
         25    2    1    2    0    0 -0.69746651902E+02  0.45585049148E+01  0.10298727437E+04  0.10397924736E+04  0.12508055158E+03 0.  0.
          5    1    3    3  502    0 -0.68717328954E+02 -0.26051776700E+02  0.28740175511E+03  0.29667828975E+03  0.41800000000E+01 0. -1.
         -5    1    3    3    0  502 -0.10293229480E+01  0.30610281615E+02  0.74247098860E+03  0.74311418380E+03  0.41800000000E+01 0. -1.
        -11    1    1    2    0    0  0.31687907278E+02  0.12077905301E+02  0.16723886230E+02  0.37811210438E+02  0.00000000000E+00 0.  1.
         11    1    1    2    0    0  0.38058744624E+02 -0.16636410216E+02  0.24194923737E+03  0.24548863854E+03  0.00000000000E+00 0. -1.
</event>
<event>
 7    1  0.2688177E-009  0.1699754E+03  0.7561462E-02  0.1177873E+00
          2   -1    0    0  501    0  0.00000000000E+00  0.00000000000E+00  0.86477456670E+02  0.86477456670E+02  0.00000000000E+00 0. -1.
         -2   -1    0    0    0  501 -0.00000000000E+00 -0.00000000000E+00 -0.41693501646E+03  0.41693501646E+03  0.00000000000E+00 0.  1.
         25    2    1    2    0    0  0.15559477914E+03 -0.85398264332E+01 -0.16984980510E+03  0.26225828964E+03  0.12509112784E+03 0.  0.
          5    1    3    3  502    0  0.38498081829E+02 -0.43696069216E+02 -0.73318252177E+01  0.58844514021E+02  0.41800000000E+01 0.  1.
         -5    1    3    3    0  502  0.11709669731E+03  0.35156242783E+02 -0.16251797988E+03  0.20341377562E+03  0.41800000000E+01 0.  1.
        -11    1    1    2    0    0 -0.84085050625E+02 -0.11746402463E+02 -0.28476394785E+02  0.89549867501E+02  0.00000000000E+00 0. -1.
         11    1    1    2    0    0 -0.71509728515E+02  0.20286228896E+02 -0.13213135991E+03  0.15160431599E+03  0.00000000000E+00 0.  1.
</event>
<event>
 7    1  0.2688177E-009  0.9425410E+02  0.7561462E-02  0.1292865E+00
          2   -1    0    0  501    0  0.00000000000E+00  0.00000000000E+00  0.22178413220E+03  0.22178413220E+03  0.00000000000E+00 0. -1.
         -2   -1    0    0    0  501 -0.00000000000E+00 -0.00000000000E+00 -0.68939622586E+02  0.68939622586E+02  0.00000000000E+00 0.  1.
         25    2    1    2    0    0  0.28699627941E+02  0.24029434039E+02  0.30066591267E+02  0.13398533364E+03  0.12508791858E+03 0.  0.
          5    1    3    3  502    0  0.47094026461E+02  0.43363758189E+02  0.63996536375E+02  0.90616179133E+02  0.41800000000E+01 0. -1.
         -5    1    3    3    0  502 -0.18394398520E+02 -0.19334324151E+02 -0.33929945109E+02  0.43369154504E+02  0.41800000000E+01 0. -1.
        -11    1    1    2    0    0 -0.99251725539E-01  0.33286627893E+02  0.45165066803E+02  0.56106084400E+02  0.00000000000E+00 0. -1.
         11    1    1    2    0    0 -0.28600376215E+02 -0.57316061932E+02  0.77612851547E+02  0.10063233675E+03  0.00000000000E+00 0.  1.
</event>
<event>
 7    1  0.2688177E-009  0.9846063E+02  0.7561462E-02  0.1283567E+00
          1   -1    0    0  501    0  0.00000000000E+00  0.00000000000E+00  0.10193776313E+03  0.10193776313E+03  0.00000000000E+00 0. -1.
         -1   -1    0    0    0  501 -0.00000000000E+00 -0.00000000000E+00 -0.11012912797E+03  0.11012912797E+03  0.00000000000E+00 0.  1.
         25    2    1    2    0    0 -0.28430047384E+02 -0.20650897099E+02 -0.35409691480E+01  0.12998280322E+03  0.12509301949E+03 0.  0.
          5    1    3    3  502    0  0.24741150434E+02 -0.55929727628E+02 -0.19030489626E+02  0.64186376224E+02  0.41800000000E+01 0.  1.
         -5    1    3    3    0  502 -0.53171197818E+02  0.35278830529E+02  0.15489520478E+02  0.65796426997E+02  0.41800000000E+01 0.  1.
        -11    1    1    2    0    0  0.27508120700E+02 -0.18089051190E+02  0.17669629843E+02  0.37364773467E+02  0.00000000000E+00 0. -1.
         11    1    1    2    0    0  0.92192668372E+00  0.38739948289E+02 -0.22320025532E+02  0.44719314418E+02  0.00000000000E+00 0.  1.
</event>
<event>
 7    1  0.2688177E-009  0.8115514E+02  0.7561462E-02  0.1325805E+00
         -1   -1    0    0    0  501 -0.00000000000E+00  0.00000000000E+00  0.11144003354E+03  0.11144003354E+03  0.00000000000E+00 0.  1.
          1   -1    0    0  501    0  0.00000000000E+00 -0.00000000000E+00 -0.17653400507E+03  0.17653400507E+03  0.00000000000E+00 0. -1.
         25    2    1    2    0    0  0.39477649685E+02  0.44834466252E+02  0.33132474630E+02  0.14252511859E+03  0.12508810641E+03 0.  0.
          5    1    3    3  502    0  0.13947455793E+02 -0.21005090839E+01 -0.45245151405E+02  0.47576672721E+02  0.41800000000E+01 0.  1.
         -5    1    3    3    0  502  0.25530193892E+02  0.46934975336E+02  0.78377626035E+02  0.94948445869E+02  0.41800000000E+01 0.  1.
        -11    1    1    2    0    0  0.13241223381E+02 -0.38735568190E+02 -0.79048982378E+02  0.89019749801E+02  0.00000000000E+00 0. -1.
         11    1    1    2    0    0 -0.52718873066E+02 -0.60988980624E+01 -0.19177463780E+02  0.56429170222E+02  0.00000000000E+00 0.  1.
</event>
<event>
 7    1  0.2688177E-009  0.1102724E+03  0.7561462E-02  0.1260066E+00
          2   -1    0    0  501    0  0.00000000000E+00  0.00000000000E+00  0.56662437575E+03  0.56662437575E+03  0.00000000000E+00 0. -1.
         -2   -1    0    0    0  501 -0.00000000000E+00 -0.00000000000E+00 -0.43698257389E+02  0.43698257389E+02  0.00000000000E+00 0.  1.
         25    2    1    2    0    0  0.22215708547E+02  0.55793672699E+00  0.65804146849E+02  0.14307774017E+03  0.12508878842E+03 0.  0.
          5    1    3    3  502    0 -0.42547937658E+02 -0.30403151618E+02  0.42419707805E+02  0.67465418086E+02  0.41800000000E+01 0. -1.
         -5    1    3    3    0  502  0.64763646205E+02  0.30961088345E+02  0.23384439044E+02  0.75612322082E+02  0.41800000000E+01 0. -1.
        -11    1    1    2    0    0  0.19549014568E+02 -0.36285844250E+02  0.22100074884E+03  0.22481138194E+03  0.00000000000E+00 0. -1.
         11    1    1    2    0    0 -0.41764723114E+02  0.35727907523E+02  0.23612122267E+03  0.24243351103E+03  0.00000000000E+00 0.  1.
</event>
<event>
 7    1  0.2688177E-009  0.1077018E+03  0.7561462E-02  0.1264886E+00
          2   -1    0    0  501    0  0.00000000000E+00  0.00000000000E+00  0.74995034325E+02  0.74995034325E+02  0.00000000000E+00 0. -1.
         -2   -1    0    0    0  501 -0.00000000000E+00 -0.00000000000E+00 -0.19337893738E+03  0.19337893738E+03  0.00000000000E+00 0.  1.
         25    2    1    2    0    0  0.47710168471E+02  0.22104314135E+02 -0.68899444037E+02  0.15217093208E+03  0.12507597012E+03 0.  0.
          5    1    3    3  502    0 -0.38608754414E+02  0.21350939447E+02 -0.48099472303E+01  0.44576973035E+02  0.41800000000E+01 0. -1.
         -5    1    3    3    0  502  0.86318922884E+02  0.75337468798E+00 -0.64089496806E+02  0.10759395904E+03  0.41800000000E+01 0. -1.
        -11    1    1    2    0    0  0.84847812899E+01  0.15063736001E+02  0.15039472049E+02  0.22914916001E+02  0.00000000000E+00 0. -1.
         11    1    1    2    0    0 -0.56194949760E+02 -0.37168050136E+02 -0.64523931065E+02  0.93288123626E+02  0.00000000000E+00 0.  1.
</event>
<event>
 7    1  0.2688177E-009  0.1447435E+03  0.7561462E-02  0.1207085E+00
          1   -1    0    0  501    0  0.00000000000E+00  0.00000000000E+00  0.39743187807E+03  0.39743187807E+03  0.00000000000E+00 0. -1.
         -1   -1    0    0    0  501 -0.00000000000E+00 -0.00000000000E+00 -0.72288140913E+02  0.72288140913E+02  0.00000000000E+00 0.  1.
         25    2    1    2    0    0  0.89097294600E+02 -0.81027526566E+02  0.24015419084E+03  0.29635346865E+03  0.12509018760E+03 0.  0.
          5    1    3    3  502    0  0.70447606542E+02 -0.73329805291E+01  0.19576357296E+03  0.20822460654E+03  0.41800000000E+01 0. -1.
         -5    1    3    3    0  502  0.18649688058E+02 -0.73694546037E+02  0.44390617877E+02  0.88128862104E+02  0.41800000000E+01 0. -1.
        -11    1    1    2    0    0  0.77092967876E+01  0.33841942985E+02  0.48537377354E+02  0.59670657466E+02  0.00000000000E+00 0. -1.
         11    1    1    2    0    0 -0.96806591387E+02  0.47185583580E+02  0.36452168966E+02  0.11369589287E+03  0.00000000000E+00 0.  1.
</event>
<event>
 7    1  0.2688177E-009  0.9692567E+02  0.7561462E-02  0.1286897E+00
          1   -1    0    0  501    0  0.00000000000E+00  0.00000000000E+00  0.22460329327E+03  0.22460329327E+03  0.00000000000E+00 0. -1.
         -1   -1    0    0    0  501 -0.00000000000E+00 -0.00000000000E+00 -0.88790745890E+02  0.88790745890E+02  0.00000000000E+00 0.  1.
         25    2    1    2    0    0  0.56401835610E+02 -0.13434772331E+02  0.15226793141E+03  0.20541354694E+03  0.12509013615E+03 0.  0.
          5    1    3    3  502    0  0.49058556015E+01  0.51898803433E+02  0.77438282366E+02  0.93443636449E+02  0.41800000000E+01 0.  1.
         -5    1    3    3    0  502  0.51495980009E+02 -0.65333575764E+02  0.74829649040E+02  0.11196991049E+03  0.41800000000E+01 0.  1.
        -11    1    1    2    0    0 -0.15227014209E+02  0.10488266177E+01  0.36620308190E+02  0.39673781909E+02  0.00000000000E+00 0. -1.
         11    1    1    2    0    0 -0.41174821401E+02  0.12385945713E+02 -0.53075692221E+02  0.68306710310E+02  0.00000000000E+00 0.  1.
</event>
<event>
 7    1  0.2688177E-009  0.1151684E+03  0.7561462E-02  0.1251287E+00
         -2   -1    0    0    0  501 -0.00000000000E+00  0.00000000000E+00  0.11853964056E+03  0.11853964056E+03  0.00000000000E+00 0. -1.
          2   -1    0    0  501    0  0.00000000000E+00 -0.00000000000E+00 -0.12335606815E+03  0.12335606815E+03  0.00000000000E+00 0.  1.
         25    2    1    2    0    0 -0.14483746225E+02  0.51396200959E+02 -0.62077471067E+01  0.13614918952E+03  0.12508683906E+03 0.  0.
          5    1    3    3  502    0 -0.19826907718E+02 -0.39356326827E+02 -0.86830343243E+01  0.45109801774E+02  0.41800000000E+01 0.  1.
         -5    1    3    3    0  502  0.53431614933E+01  0.90752527786E+02  0.24752872176E+01  0.91039387745E+02  0.41800000000E+01 0.  1.
        -11    1    1    2    0    0  0.18862903879E+02  0.17678025408E+02  0.21551879585E+02  0.33657172174E+02  0.00000000000E+00 0. -1.
         11    1    1    2    0    0 -0.43791576541E+01 -0.69074226367E+02 -0.20160560067E+02  0.72089347009E+02  0.00000000000E+00 0.  1.
</event>
<event>
 7    1  0.2688177E-009  0.1094920E+03  0.7561462E-02  0.1261513E+00
         -1   -1    0    0    0  501 -0.00000000000E+00  0.00000000000E+00  0.66511786133E+02  0.66511786133E+02  0.00000000000E+00 0.  1.
          1   -1    0    0  501    0  0.00000000000E+00 -0.00000000000E+00 -0.18805295896E+03  0.18805295896E+03  0.00000000000E+00 0. -1.
         25    2    1    2    0    0 -0.37077296998E+01 -0.30435623933E+02 -0.65671792474E+02  0.14456947728E+03  0.12508986758E+03 0.  0.
          5    1    3    3  502    0  0.45487267589E+02  0.24812460024E+02 -0.41863176370E+02  0.66743895758E+02  0.41800000000E+01 0.  1.
         -5    1    3    3    0  502 -0.49194997289E+02 -0.55248083957E+02 -0.23808616104E+02  0.77825581527E+02  0.41800000000E+01 0.  1.
        -11    1    1    2    0    0  0.21367882371E+02 -0.26068686376E+02 -0.30962219446E+02  0.45769223714E+02  0.00000000000E+00 0. -1.
         11    1    1    2    0    0 -0.17660152671E+02  0.56504310308E+02 -0.24907160911E+02  0.64226044098E+02  0.00000000000E+00 0.  1.
</event>
<event>
 7    1  0.2688177E-009  0.8999121E+02  0.7561462E-02  0.1302873E+00
          2   -1    0    0  501    0  0.00000000000E+00  0.00000000000E+00  0.25798297981E+02  0.25798297981E+02  0.00000000000E+00 0.  1.
         -2   -1    0    0    0  501 -0.00000000000E+00 -0.00000000000E+00 -0.47006306466E+03  0.47006306466E+03  0.00000000000E+00 0. -1.
         25    2    1    2    0    0  0.70915444236E+01 -0.20990879898E+02 -0.29328349090E+03  0.31961482517E+03  0.12509006113E+03 0.  0.
          5    1    3    3  502    0  0.42475550312E+02 -0.30200683919E+02 -0.27225377088E+03  0.27722886184E+03  0.41800000000E+01 0. -1.
         -5    1    3    3    0  502 -0.35384005889E+02  0.92098040208E+01 -0.21029720027E+02  0.42385963328E+02  0.41800000000E+01 0. -1.
        -11    1    1    2    0    0  0.28411441626E+02  0.41198468039E+02 -0.80888397514E+02  0.95118119391E+02  0.00000000000E+00 0.  1.
         11    1    1    2    0    0 -0.35502986050E+02 -0.20207588141E+02 -0.70092878264E+02  0.81128418081E+02  0.00000000000E+00 0. -1.
</event>
<event>
 7    1  0.2688177E-009  0.1394217E+03  0.7561462E-02  0.1214109E+00
         -3   -1    0    0    0  501 -0.00000000000E+00  0.00000000000E+00  0.96523375017E+02  0.96523375017E+02  0.00000000000E+00 0.  1.
          3   -1    0    0  501    0  0.00000000000E+00 -0.00000000000E+00 -0.28430147152E+03  0.28430147152E+03  0.00000000000E+00 0. -1.
         25    2    1    2    0    0  0.94560669549E+02 -0.61002997519E+02 -0.16512690428E+03  0.23575121924E+03  0.12509459190E+03 0.  0.
          5    1    3    3  502    0  0.74578249029E+02  0.24335373179E+02 -0.95998581493E+02  0.12404565960E+03  0.41800000000E+01 0.  1.
         -5    1    3    3    0  502  0.19982420520E+02 -0.85338370698E+02 -0.69128322790E+02  0.11170555964E+03  0.41800000000E+01 0.  1.
        -11    1    1    2    0    0 -0.24166481156E+02  0.16251849562E+02 -0.49511013106E+02  0.57441116323E+02  0.00000000000E+00 0. -1.
         11    1    1    2    0    0 -0.70394188393E+02  0.44751147957E+02  0.26859820881E+02  0.87632510981E+02  0.00000000000E+00 0.  1.
</event>
<event>
 7    1  0.2688177E-009  0.9533679E+02  0.7561462E-02  0.1290419E+00
          1   -1    0    0  501    0  0.00000000000E+00  0.00000000000E+00  0.43547152077E+03  0.43547152077E+03  0.00000000000E+00 0. -1.
         -1   -1    0    0    0  501 -0.00000000000E+00 -0.00000000000E+00 -0.28320559113E+02  0.28320559113E+02  0.00000000000E+00 0.  1.
         25    2    1    2    0    0 -0.10456106264E+02  0.20234526008E+02  0.23902956158E+03  0.27074441249E+03  0.12509452179E+03 0.  0.
          5    1    3    3  502    0  0.48817823129E+02 -0.20977876712E+02  0.12261656562E+03  0.13369946047E+03  0.41800000000E+01 0.  1.
         -5    1    3    3    0  502 -0.59273929393E+02  0.41212402720E+02  0.11641299596E+03  0.13704495202E+03  0.41800000000E+01 0.  1.
        -11    1    1    2    0    0  0.26847546578E+02  0.11606208323E+02  0.99839929220E+01  0.30905904671E+02  0.00000000000E+00 0.  1.
         11    1    1    2    0    0 -0.16391440314E+02 -0.31840734331E+02  0.15813740715E+03  0.16214176272E+03  0.00000000000E+00 0. -1.
</event>
<event>
 7    1  0.2688177E-009  0.9714907E+02  0.7561462E-02  0.1286408E+00
          4   -1    0    0  501    0  0.00000000000E+00  0.00000000000E+00  0.13947203368E+03  0.13947203368E+03  0.00000000000E+00 0. -1.
         -4   -1    0    0    0  501 -0.00000000000E+00 -0.00000000000E+00 -0.10828807869E+03  0.10828807869E+03  0.00000000000E+00 0.  1.
         25    2    1    2    0    0 -0.47898504058E+02 -0.31752095467E+02  0.14317405364E+02  0.13840084697E+03  0.12508934443E+03 0.  0.
          5    1    3    3  502    0 -0.19574824853E+02  0.22758025073E+02 -0.44110535025E+02  0.53519278521E+02  0.41800000000E+01 0. -1.
         -5    1    3    3    0  502 -0.28323679205E+02 -0.54510120540E+02  0.58427940389E+02  0.84881568453E+02  0.41800000000E+01 0. -1.
        -11    1    1    2    0    0 -0.24032325396E+02  0.15737285375E+02  0.20949591782E+02  0.35554186965E+02  0.00000000000E+00 0. -1.
         11    1    1    2    0    0  0.71930829454E+02  0.16014810092E+02 -0.40830421542E+01  0.73805078426E+02  0.00000000000E+00 0.  1.
</event>
<event>
 7    1  0.2688177E-009  0.9794448E+02  0.7561462E-02  0.1284679E+00
         -2   -1    0    0    0  501 -0.00000000000E+00  0.00000000000E+00  0.18511876700E+03  0.18511876700E+03  0.00000000000E+00 0.  1.
          2   -1    0    0  501    0  0.00000000000E+00 -0.00000000000E+00 -0.88887684474E+02  0.88887684474E+02  0.00000000000E+00 0. -1.
         25    2    1    2    0    0 -0.81556298376E+01  0.66343090453E+02  0.72833332738E+02  0.15943618771E+03  0.12508910282E+03 0.  0.
          5    1    3    3  502    0 -0.12070050356E+02 -0.71402840615E+01 -0.29729583907E+02  0.33135937159E+02  0.41800000000E+01 0. -1.
         -5    1    3    3    0  502  0.39144205183E+01  0.73483374515E+02  0.10256291664E+03  0.12630025055E+03  0.41800000000E+01 0. -1.
        -11    1    1    2    0    0  0.25054368559E+02  0.11732761485E+02  0.20856070609E+02  0.34646136253E+02  0.00000000000E+00 0.  1.
         11    1    1    2    0    0 -0.16898738722E+02 -0.78075851938E+02  0.25416791827E+01  0.79924127517E+02  0.00000000000E+00 0. -1.
</event>
<event>
 7    1  0.2688177E-009  0.1174715E+03  0.7561462E-02  0.1247328E+00
         -1   -1    0    0    0  501 -0.00000000000E+00  0.00000000000E+00  0.11949865356E+03  0.11949865356E+03  0.00000000000E+00 0.  1.
          1   -1    0    0  501    0  0.00000000000E+00 -0.00000000000E+00 -0.18128694804E+03  0.18128694804E+03  0.00000000000E+00 0. -1.
         25    2    1    2    0    0  0.81976846586E+02 -0.49141751234E+02 -0.52942835521E+01  0.15751391082E+03  0.12508991795E+03 0.  0.
          5    1    3    3  502    0  0.33582724438E+02  0.35729473540E+01  0.54443012340E+02  0.64203421451E+02  0.41800000000E+01 0. -1.
         -5    1    3    3    0  502  0.48394122148E+02 -0.52714698588E+02 -0.59737295892E+02  0.93310489369E+02  0.41800000000E+01 0. -1.
        -11    1    1    2    0    0 -0.15963104829E+02 -0.25187248244E+02 -0.25227092890E+02  0.39059242255E+02  0.00000000000E+00 0. -1.
         11    1    1    2    0    0 -0.66013741757E+02  0.74328999478E+02 -0.31266918042E+02  0.10421244853E+03  0.00000000000E+00 0.  1.
</event>
<event>
 7    1  0.2688177E-009  0.8791560E+02  0.7561462E-02  0.1307979E+00
          1   -1    0    0  501    0  0.00000000000E+00  0.00000000000E+00  0.38061528836E+03  0.38061528836E+03  0.00000000000E+00 0. -1.
         -1   -1    0    0    0  501 -0.00000000000E+00 -0.00000000000E+00 -0.37759073561E+02  0.37759073561E+02  0.00000000000E+00 0.  1.
         25    2    1    2    0    0  0.28543166875E+02  0.25521557654E+02  0.25174137087E+03  0.28370280624E+03  0.12508997634E+03 0.  0.
          5    1    3    3  502    0 -0.40362723951E+02  0.42472629505E+02  0.13146304796E+03  0.14398985770E+03  0.41800000000E+01 0.  1.
         -5    1    3    3    0  502  0.68905890827E+02 -0.16951071852E+02  0.12027832291E+03  0.13971294854E+03  0.41800000000E+01 0.  1.
        -11    1    1    2    0    0 -0.27644890029E+02 -0.84444559965E+01  0.10730040087E+03  0.11112571623E+03  0.00000000000E+00 0. -1.
         11    1    1    2    0    0 -0.89827684639E+00 -0.17077101657E+02 -0.16185556933E+02  0.23545839453E+02  0.00000000000E+00 0.  1.
</event>
<event>
 7    1  0.2688177E-009  0.1467895E+03  0.7561462E-02  0.1204474E+00
          2   -1    0    0  501    0  0.00000000000E+00  0.00000000000E+00  0.11389049632E+04  0.11389049632E+04  0.00000000000E+00 0.  1.
         -2   -1    0    0    0  501 -0.00000000000E+00 -0.00000000000E+00 -0.22999825575E+02  0.22999825575E+02  0.00000000000E+00 0. -1.
         25    2    1    2    0    0  0.95912546975E+02  0.81554999245E+01  0.80389626706E+03  0.81924451052E+03  0.12508649395E+03 0.  0.
          5    1    3    3  502    0  0.12404329915E+03  0.31453531117E+01  0.55722199867E+03  0.57088568165E+03  0.41800000000E+01 0.  1.
         -5    1    3    3    0  502 -0.28130752176E+02  0.50101468128E+01  0.24667426840E+03  0.24835882887E+03  0.41800000000E+01 0.  1.
        -11    1    1    2    0    0 -0.20150265543E+02  0.44118056482E+02  0.12878191134E+03  0.13761256047E+03  0.00000000000E+00 0.  1.
         11    1    1    2    0    0 -0.75762281432E+02 -0.52273556407E+02  0.18322695924E+03  0.20504771781E+03  0.00000000000E+00 0. -1.
</event>
<event>
 7    1  0.2688177E-009  0.1020887E+03  0.7561462E-02  0.1275964E+00
          2   -1    0    0  501    0  0.00000000000E+00  0.00000000000E+00  0.36744616007E+03  0.36744616007E+03  0.00000000000E+00 0. -1.
         -2   -1    0    0    0  501 -0.00000000000E+00 -0.00000000000E+00 -0.40055622390E+02  0.40055622390E+02  0.00000000000E+00 0.  1.
         25    2    1    2    0    0  0.86329973184E+01  0.49892669313E+02  0.14711785087E+03  0.19961550893E+03  0.12505551674E+03 0.  0.
          5    1    3    3  502    0 -0.44483338518E+02  0.21432745738E+00  0.12246003595E+02  0.46327641274E+02  0.41800000000E+01 0.  1.
         -5    1    3    3    0  502  0.53116335837E+02  0.49678341856E+02  0.13487184728E+03  0.15328786766E+03  0.41800000000E+01 0.  1.
        -11    1    1    2    0    0  0.25458275450E+02 -0.45685687057E+02  0.15923981828E+03  0.16760854846E+03  0.00000000000E+00 0.  1.
         11    1    1    2    0    0 -0.34091272768E+02 -0.42069822566E+01  0.21032868533E+02  0.40277725077E+02  0.00000000000E+00 0. -1.
</event>
<event>
 7    1  0.2688177E-009  0.1709216E+03  0.7561462E-02  0.1176890E+00
          2   -1    0    0  501    0  0.00000000000E+00  0.00000000000E+00  0.32088291749E+03  0.32088291749E+03  0.00000000000E+00 0. -1.
         -2   -1    0    0    0  501 -0.00000000000E+00 -0.00000000000E+00 -0.99438695227E+02  0.99438695227E+02  0.00000000000E+00 0.  1.
         25    2    1    2    0    0 -0.97492512727E+02 -0.94862591369E+02  0.67854041651E+02  0.19685998748E+03  0.12508390153E+03 0.  0.
          5    1    3    3  502    0  0.18906012162E+02  0.10895950980E+02 -0.60717619719E+01  0.23032536488E+02  0.41800000000E+01 0.  1.
         -5    1    3    3    0  502 -0.11639852489E+03 -0.10575854235E+03  0.73925803623E+02  0.17382745099E+03  0.41800000000E+01 0.  1.
        -11    1    1    2    0    0  0.54681617106E+01  0.65468065162E+02  0.60900350966E+02  0.89581365788E+02  0.00000000000E+00 0.  1.
         11    1    1    2    0    0  0.92024351017E+02  0.29394526207E+02  0.92689829646E+02  0.13388025945E+03  0.00000000000E+00 0. -1.
</event>
<event>
 7    1  0.2688177E-009  0.1094956E+03  0.7561462E-02  0.1261507E+00
          3   -1    0    0  501    0  0.00000000000E+00  0.00000000000E+00  0.10842793688E+03  0.10842793688E+03  0.00000000000E+00 0. -1.
         -3   -1    0    0    0  501 -0.00000000000E+00 -0.00000000000E+00 -0.32014020352E+03  0.32014020352E+03  0.00000000000E+00 0.  1.
         25    2    1    2    0    0  0.37370293108E+02 -0.26525771650E+02  0.50045179303E+02  0.14229993937E+03  0.12507836505E+03 0.  0.
          5    1    3    3  502    0 -0.46002123155E+02 -0.13052367802E+02  0.24948253740E+02  0.54096648738E+02  0.41800000000E+01 0. -1.
         -5    1    3    3    0  502  0.83372416263E+02 -0.13473403849E+02  0.25096925563E+02  0.88203290627E+02  0.41800000000E+01 0. -1.
        -11    1    1    2    0    0 -0.16638916226E+02 -0.25489175808E+02 -0.16347453873E+02  0.34551278770E+02  0.00000000000E+00 0. -1.
         11    1    1    2    0    0 -0.20731376882E+02  0.52014947458E+02 -0.24540999207E+03  0.25171692227E+03  0.00000000000E+00 0.  1.
</event>
<event>
 7    1  0.2688177E-009  0.1065237E+03  0.7561462E-02  0.1267146E+00
         -2   -1    0    0    0  501 -0.00000000000E+00  0.00000000000E+00  0.29854988870E+02  0.29854988870E+02  0.00000000000E+00 0.  1.
          2   -1    0    0  501    0  0.00000000000E+00 -0.00000000000E+00 -0.12336052092E+04  0.12336052092E+04  0.00000000000E+00 0. -1.
         25    2    1    2    0    0  0.10195815794E+02  0.20256945755E+02 -0.11480085932E+04  0.11550261696E+04  0.12508966331E+03 0.  0.
          5    1    3    3  502    0 -0.39812847474E+02  0.49729757627E+02 -0.76009060133E+03  0.76276687543E+03  0.41800000000E+01 0.  1.
         -5    1    3    3    0  502  0.50008663268E+02 -0.29472811872E+02 -0.38791799190E+03  0.39225929420E+03  0.41800000000E+01 0.  1.
        -11    1    1    2    0    0 -0.86774659549E+01 -0.55278215908E+02 -0.44897152035E+02  0.71740740379E+02  0.00000000000E+00 0. -1.
         11    1    1    2    0    0 -0.15183498387E+01  0.35021270153E+02 -0.10844475053E+02  0.36693288058E+02  0.00000000000E+00 0.  1.
</event>
<event>
 7    1  0.2688177E-009  0.1299103E+03  0.7561462E-02  0.1227589E+00
         -2   -1    0    0    0  501 -0.00000000000E+00  0.00000000000E+00  0.55945228540E+02  0.55945228540E+02  0.00000000000E+00 0.  1.
          2   -1    0    0  501    0  0.00000000000E+00 -0.00000000000E+00 -0.34982953067E+03  0.34982953067E+03  0.00000000000E+00 0. -1.
         25    2    1    2    0    0 -0.51103669253E+01 -0.76850635198E+02 -0.10439956297E+03  0.18021592084E+03  0.12508546437E+03 0.  0.
          5    1    3    3  502    0  0.47292983582E+01  0.30953154583E+02 -0.28316341027E+01  0.31716787247E+02  0.41800000000E+01 0. -1.
         -5    1    3    3    0  502 -0.98396652835E+01 -0.10780378978E+03 -0.10156792887E+03  0.14849913359E+03  0.41800000000E+01 0. -1.
        -11    1    1    2    0    0  0.39752535356E+02  0.49146105444E+01 -0.85848555112E+02  0.94733267013E+02  0.00000000000E+00 0. -1.
         11    1    1    2    0    0 -0.34642168431E+02  0.71936024653E+02 -0.10363618405E+03  0.13082557136E+03  0.00000000000E+00 0.  1.
</event>
<event>
 7    1  0.2688177E-009  0.7336454E+02  0.7561462E-02  0.1349012E+00
          3   -1    0    0  501    0  0.00000000000E+00  0.00000000000E+00  0.60510468031E+02  0.60510468031E+02  0.00000000000E+00 0. -1.
         -3   -1    0    0    0  501 -0.00000000000E+00 -0.00000000000E+00 -0.21489955276E+03  0.21489955276E+03  0.00000000000E+00 0.  1.
         25    2    1    2    0    0 -0.26482282000E+02 -0.83079892598E+01 -0.57890332243E+02  0.14060082731E+03  0.12508784164E+03 0.  0.
          5    1    3    3  502    0 -0.39857917651E+02 -0.22811538225E+01  0.30807545767E+02  0.50600736541E+02  0.41800000000E+01 0. -1.
         -5    1    3    3    0  502  0.13375635651E+02 -0.60268354374E+01 -0.88697878010E+02  0.90000090766E+02  0.41800000000E+01 0. -1.
        -11    1    1    2    0    0  0.58273799637E+02  0.11445438391E+02 -0.46280092486E+02  0.75290641812E+02  0.00000000000E+00 0. -1.
         11    1    1    2    0    0 -0.31791517637E+02 -0.31374491308E+01 -0.50218659998E+02  0.59518551668E+02  0.00000000000E+00 0.  1.
</event>
<event>
 7    1  0.2688177E-009  0.9993971E+02  0.7561462E-02  0.1280423E+00
          2   -1    0    0  501    0  0.00000000000E+00  0.00000000000E+00  0.19874233803E+03  0.19874233803E+03  0.00000000000E+00 0. -1.
         -2   -1    0    0    0  501 -0.00000000000E+00 -0.00000000000E+00 -0.62061846375E+02  0.62061846375E+02  0.00000000000E+00 0.  1.
         25    2    1    2    0    0 -0.48584734137E+01 -0.81095191361E+01  0.10454387980E+03  0.16329476797E+03  0.12508552826E+03 0.  0.
          5    1    3    3  502    0  0.51365934269E+02 -0.30428969891E+02  0.74681262059E+02  0.95703420600E+02  0.41800000000E+01 0.  1.
         -5    1    3    3    0  502 -0.56224407683E+02  0.22319450755E+02  0.29862617740E+02  0.67591347372E+02  0.41800000000E+01 0.  1.
        -11    1    1    2    0    0  0.39083183519E+02 -0.10456627463E+02 -0.83800502021E+01  0.41316601183E+02  0.00000000000E+00 0.  1.
         11    1    1    2    0    0 -0.34224710106E+02  0.18566146599E+02  0.40516662055E+02  0.56192815247E+02  0.00000000000E+00 0. -1.
</event>
<event>
 7    1  0.2688177E-009  0.1200682E+03  0.7561462E-02  0.1242985E+00
          2   -1    0    0  501    0  0.00000000000E+00  0.00000000000E+00  0.22063798962E+03  0.22063798962E+03  0.00000000000E+00 0. -1.
         -2   -1    0    0    0  501 -0.00000000000E+00 -0.00000000000E+00 -0.73585352960E+02  0.73585352960E+02  0.00000000000E+00 0.  1.
         25    2    1    2    0    0 -0.23643157109E+02  0.53339010451E+02  0.46976680696E+02  0.14578602322E+03  0.12507080844E+03 0.  0.
          5    1    3    3  502    0  0.48915870411E+02  0.41436045975E+02  0.24911961630E+02  0.68904183591E+02  0.41800000000E+01 0. -1.
         -5    1    3    3    0  502 -0.72559027520E+02  0.11902964476E+02  0.22064719066E+02  0.76881839633E+02  0.41800000000E+01 0. -1.
        -11    1    1    2    0    0 -0.29340100146E+02 -0.35755565080E+01  0.70608019324E+01  0.30388830264E+02  0.00000000000E+00 0.  1.
         11    1    1    2    0    0  0.52983257255E+02 -0.49763453943E+02  0.93015154035E+02  0.11804848910E+03  0.00000000000E+00 0. -1.
</event>
<event>
 7    1  0.2688177E-009  0.1063630E+03  0.7561462E-02  0.1267457E+00
         -2   -1    0    0    0  501 -0.00000000000E+00  0.00000000000E+00  0.26008928626E+02  0.26008928626E+02  0.00000000000E+00 0. -1.
          2   -1    0    0  501    0  0.00000000000E+00 -0.00000000000E+00 -0.48126057193E+03  0.48126057193E+03  0.00000000000E+00 0.  1.
         25    2    1    2    0    0 -0.22119096863E+02  0.14821760553E+02 -0.31059315893E+03  0.33589504753E+03  0.12509369907E+03 0.  0.
          5    1    3    3  502    0 -0.67909348887E+02 -0.16590033587E+02 -0.14174555055E+03  0.15810181018E+03  0.41800000000E+01 0. -1.
         -5    1    3    3    0  502  0.45790252024E+02  0.31411794139E+02 -0.16884760838E+03  0.17779323735E+03  0.41800000000E+01 0. -1.
        -11    1    1    2    0    0 -0.31746544469E+02 -0.32332394680E+01 -0.28390921949E+02  0.42712309377E+02  0.00000000000E+00 0. -1.
         11    1    1    2    0    0  0.53865641333E+02 -0.11588521085E+02 -0.11626756242E+03  0.12866214365E+03  0.00000000000E+00 0.  1.
</event>
<event>
 7    1  0.2688177E-009  0.1156088E+03  0.7561462E-02  0.1250522E+00
         -4   -1    0    0    0  501 -0.00000000000E+00  0.00000000000E+00  0.31730541214E+03  0.31730541214E+03  0.00000000000E+00 0. -1.
          4   -1    0    0  501    0  0.00000000000E+00 -0.00000000000E+00 -0.65173188094E+02  0.65173188094E+02  0.00000000000E+00 0.  1.
         25    2    1    2    0    0  0.17318052012E+02  0.93333595830E+02  0.15071916076E+03  0.21765872970E+03  0.12509189486E+03 0.  0.
          5    1    3    3  502    0  0.96567376193E+00  0.82843365835E+02  0.17050636116E+03  0.18961499779E+03  0.41800000000E+01 0.  1.
         -5    1    3    3    0  502  0.16352378250E+02  0.10490229995E+02 -0.19787200406E+02  0.28043731914E+02  0.41800000000E+01 0.  1.
        -11    1    1    2    0    0 -0.52504084087E+02 -0.62305761861E+02  0.76216728794E+02  0.11156915593E+03  0.00000000000E+00 0.  1.
         11    1    1    2    0    0  0.35186032075E+02 -0.31027833969E+02  0.25196334498E+02  0.53250714607E+02  0.00000000000E+00 0. -1.
</event>
<event>
 7    1  0.2688177E-009  0.1622318E+03  0.7561462E-02  0.1186200E+00
         -2   -1    0    0    0  501 -0.00000000000E+00  0.00000000000E+00  0.18097856342E+02  0.18097856342E+02  0.00000000000E+00 0.  1.
          2   -1    0    0  501    0  0.00000000000E+00 -0.00000000000E+00 -0.15060175383E+04  0.15060175383E+04  0.00000000000E+00 0. -1.
         25    2    1    2    0    0 -0.51963191152E+02  0.11128271496E+03 -0.73663505117E+03  0.75720713127E+03  0.12508966845E+03 0.  0.
          5    1    3    3  502    0 -0.89360015345E+02  0.93021603449E+02 -0.62025159145E+03  0.63353590280E+03  0.41800000000E+01 0.  1.
         -5    1    3    3    0  502  0.37396824194E+02  0.18261111508E+02 -0.11638345972E+03  0.12367122846E+03  0.41800000000E+01 0.  1.
        -11    1    1    2    0    0  0.78759698402E+02 -0.77951797957E+02 -0.56688928203E+03  0.57761841295E+03  0.00000000000E+00 0.  1.
         11    1    1    2    0    0 -0.26796507251E+02 -0.33330917000E+02 -0.18439534875E+03  0.18928985041E+03  0.00000000000E+00 0. -1.
</event>
<event>
 7    1  0.2688177E-009  0.1130256E+03  0.7561462E-02  0.1255067E+00
         -2   -1    0    0    0  501 -0.00000000000E+00  0.00000000000E+00  0.10098370677E+03  0.10098370677E+03  0.00000000000E+00 0.  1.
          2   -1    0    0  501    0  0.00000000000E+00 -0.00000000000E+00 -0.15437996683E+03  0.15437996683E+03  0.00000000000E+00 0. -1.
         25    2    1    2    0    0 -0.59049694601E+02  0.14686044218E+02 -0.22938520914E+02  0.14098439699E+03  0.12509147903E+03 0.  0.
          5    1    3    3  502    0 -0.87015826884E+02  0.22736978743E+02 -0.48286439552E+02  0.10216543924E+03  0.41800000000E+01 0.  1.
         -5    1    3    3    0  502  0.27966132283E+02 -0.80509345247E+01  0.25347918638E+02  0.38818957751E+02  0.41800000000E+01 0.  1.
        -11    1    1    2    0    0  0.82268973105E+02 -0.94136850658E+01 -0.10808626679E+02  0.83508249969E+02  0.00000000000E+00 0.  1.
         11    1    1    2    0    0 -0.23219278504E+02 -0.52723591522E+01 -0.19649112463E+02  0.30871026641E+02  0.00000000000E+00 0. -1.
</event>
<event>
 7    1  0.2688177E-009  0.1157972E+03  0.7561462E-02  0.1250196E+00
         -1   -1    0    0    0  501 -0.00000000000E+00  0.00000000000E+00  0.11421572220E+03  0.11421572220E+03  0.00000000000E+00 0.  1.
          1   -1    0    0  501    0  0.00000000000E+00 -0.00000000000E+00 -0.20676070333E+03  0.20676070333E+03  0.00000000000E+00 0. -1.
         25    2    1    2    0    0 -0.69656918703E+02  0.83847114665E+02 -0.58279266064E+02  0.17585673314E+03  0.12508674101E+03 0.  0.
          5    1    3    3  502    0 -0.16823815846E+02  0.41336013898E+02 -0.90250748301E+02  0.10076892772E+03  0.41800000000E+01 0. -1.
         -5    1    3    3    0  502 -0.52833102857E+02  0.42511100766E+02  0.31971482237E+02  0.75087805417E+02  0.41800000000E+01 0. -1.
        -11    1    1    2    0    0  0.32907611357E+02 -0.73687238328E+02  0.15754547638E+02  0.82224848732E+02  0.00000000000E+00 0.  1.
         11    1    1    2    0    0  0.36749307346E+02 -0.10159876336E+02 -0.50020262709E+02  0.62894843660E+02  0.00000000000E+00 0. -1.
</event>
<event>
 7    1  0.2688177E-009  0.7862825E+02  0.7561462E-02  0.1332990E+00
          2   -1    0    0  501    0  0.00000000000E+00  0.00000000000E+00  0.20325175483E+03  0.20325175483E+03  0.00000000000E+00 0. -1.
         -2   -1    0    0    0  501 -0.00000000000E+00 -0.00000000000E+00 -0.61294938889E+02  0.61294938889E+02  0.00000000000E+00 0.  1.
         25    2    1    2    0    0  0.14233726348E+02 -0.24011898417E+02  0.70607629358E+02  0.14632832044E+03  0.12508944722E+03 0.  0.
          5    1    3    3  502    0  0.29706190521E+02  0.50586102231E+01  0.98424212157E+02  0.10301866448E+03  0.41800000000E+01 0. -1.
         -5    1    3    3    0  502 -0.15472464173E+02 -0.29070508641E+02 -0.27816582800E+02  0.43309655954E+02  0.41800000000E+01 0. -1.
        -11    1    1    2    0    0 -0.45195477605E+02 -0.11388577393E+02  0.28740450231E+02  0.54757139904E+02  0.00000000000E+00 0. -1.
         11    1    1    2    0    0  0.30961751257E+02  0.35400475810E+02  0.42608736348E+02  0.63461233377E+02  0.00000000000E+00 0.  1.
</event>
<event>
 7    1  0.2688177E-009  0.1056960E+03  0.7561462E-02  0.1268754E+00
          1   -1    0    0  501    0  0.00000000000E+00  0.00000000000E+00  0.49488880082E+03  0.49488880082E+03  0.00000000000E+00 0. -1.
         -1   -1    0    0    0  501 -0.00000000000E+00 -0.00000000000E+00 -0.27975758079E+02  0.27975758079E+02  0.00000000000E+00 0.  1.
         25    2    1    2    0    0  0.29133847075E+00 -0.42256201298E+02  0.22500116673E+03  0.26088265625E+03  0.12509422000E+03 0.  0.
          5    1    3    3  502    0 -0.50681711143E+02 -0.54307186397E+02  0.16579045756E+03  0.18171916398E+03  0.41800000000E+01 0.  1.
         -5    1    3    3    0  502  0.50973049613E+02  0.12050985099E+02  0.59210709172E+02  0.79163492277E+02  0.41800000000E+01 0.  1.
        -11    1    1    2    0    0 -0.27783589285E+02 -0.64455607910E+01  0.24841383494E+02  0.37822842587E+02  0.00000000000E+00 0.  1.
         11    1    1    2    0    0  0.27492250814E+02  0.48701762089E+02  0.21707049251E+03  0.22415906006E+03  0.00000000000E+00 0. -1.
</event>
<event>
 7    1  0.2688177E-009  0.9347923E+02  0.7561462E-02  0.1294638E+00
          4   -1    0    0  501    0  0.00000000000E+00  0.00000000000E+00  0.25733442868E+03  0.25733442868E+03  0.00000000000E+00 0.  1.
         -4   -1    0    0    0  501 -0.00000000000E+00 -0.00000000000E+00 -0.86000795017E+02  0.86000795017E+02  0.00000000000E+00 0. -1.
         25    2    1    2    0    0  0.41225754164E+02  0.47217867221E+02  0.18598684064E+03  0.23274197658E+03  0.12509449621E+03 0.  0.
          5    1    3    3  502    0 -0.15823310791E+02 -0.26320236653E+02  0.10439520277E+03  0.10889886493E+03  0.41800000000E+01 0. -1.
         -5    1    3    3    0  502  0.57049064955E+02  0.73538103874E+02  0.81591637872E+02  0.12384311165E+03  0.41800000000E+01 0. -1.
        -11    1    1    2    0    0 -0.10769781118E+02 -0.14979753960E+02 -0.50374684888E+02  0.53646901975E+02  0.00000000000E+00 0. -1.
         11    1    1    2    0    0 -0.30455973046E+02 -0.32238113261E+02  0.35721477916E+02  0.56946345144E+02  0.00000000000E+00 0.  1.
</event>
<event>
 7    1  0.2688177E-009  0.2392056E+03  0.7561462E-02  0.1120323E+00
          2   -1    0    0  501    0  0.00000000000E+00  0.00000000000E+00  0.41542896663E+03  0.41542896663E+03  0.00000000000E+00 0. -1.
         -2   -1    0    0    0  501 -0.00000000000E+00 -0.00000000000E+00 -0.16242628959E+03  0.16242628959E+03  0.00000000000E+00 0.  1.
         25    2    1    2    0    0  0.16788579960E+03  0.15573725522E+03  0.19259628262E+03  0.32431570544E+03  0.12509042468E+03 0.  0.
          5    1    3    3  502    0  0.15754210649E+03  0.10460444384E+03  0.19533337549E+03  0.27190844961E+03  0.41800000000E+01 0. -1.
         -5    1    3    3    0  502  0.10343693104E+02  0.51132811380E+02 -0.27370928644E+01  0.52407255834E+02  0.41800000000E+01 0. -1.
        -11    1    1    2    0    0 -0.15307756503E+03 -0.10906626579E+03  0.18094994042E+02  0.18882695798E+03  0.00000000000E+00 0.  1.
         11    1    1    2    0    0 -0.14808234565E+02 -0.46670989430E+02  0.42311400375E+02  0.64712592801E+02  0.00000000000E+00 0. -1.
</event>
<event>
 7    1  0.2688177E-009  0.2399652E+03  0.7561462E-02  0.1119816E+00
          3   -1    0    0  501    0  0.00000000000E+00  0.00000000000E+00  0.60610808051E+03  0.60610808051E+03  0.00000000000E+00 0. -1.
         -3   -1    0    0    0  501 -0.00000000000E+00 -0.00000000000E+00 -0.15499069838E+03  0.15499069838E+03  0.00000000000E+00 0.  1.
         25    2    1    2    0    0 -0.20818451981E+03 -0.88549609415E+02  0.12006970440E+02  0.25879252290E+03  0.12509026721E+03 0.  0.
          5    1    3    3  502    0 -0.13009376689E+03 -0.60975826863E+01  0.49107304998E+02  0.13925002155E+03  0.41800000000E+01 0.  1.
         -5    1    3    3    0  502 -0.78090752929E+02 -0.82452026729E+02 -0.37100334558E+02  0.11954250135E+03  0.41800000000E+01 0.  1.
        -11    1    1    2    0    0  0.16525001331E+03  0.97863053164E+02  0.29809723251E+03  0.35460781732E+03  0.00000000000E+00 0.  1.
         11    1    1    2    0    0  0.42934506506E+02 -0.93134437491E+01  0.14101317918E+03  0.14769843867E+03  0.00000000000E+00 0. -1.
</event>
<event>
 7    1  0.2688177E-009  0.1047268E+03  0.7561462E-02  0.1270659E+00
          4   -1    0    0  501    0  0.00000000000E+00  0.00000000000E+00  0.37031516634E+03  0.37031516634E+03  0.00000000000E+00 0. -1.
         -4   -1    0    0    0  501 -0.00000000000E+00 -0.00000000000E+00 -0.45902604474E+02  0.45902604474E+02  0.00000000000E+00 0.  1.
         25    2    1    2    0    0  0.44093856490E+02  0.59423029348E+01  0.26705557087E+03  0.29823834800E+03  0.12509138716E+03 0.  0.
          5    1    3    3  502    0 -0.22451220194E+02 -0.27024915414E+02  0.18129584199E+03  0.18471615540E+03  0.41800000000E+01 0. -1.
         -5    1    3    3    0  502  0.66545076684E+02  0.32967218349E+02  0.85759728876E+02  0.11352219260E+03  0.41800000000E+01 0. -1.
        -11    1    1    2    0    0  0.24015318908E+02  0.15144483983E+02  0.34604317603E+01  0.28601844789E+02  0.00000000000E+00 0.  1.
         11    1    1    2    0    0 -0.68109175398E+02 -0.21086786918E+02  0.53896559242E+02  0.89377578028E+02  0.00000000000E+00 0. -1.
</event>
<event>
 7    1  0.2688177E-009  0.8330543E+02  0.7561462E-02  0.1319924E+00
          2   -1    0    0  501    0  0.00000000000E+00  0.00000000000E+00  0.83851861167E+03  0.83851861167E+03  0.00000000000E+00 0. -1.
         -2   -1    0    0    0  501 -0.00000000000E+00 -0.00000000000E+00 -0.23996682415E+02  0.23996682415E+02  0.00000000000E+00 0.  1.
         25    2    1    2    0    0 -0.20909216812E+02 -0.62926249526E+02  0.63345683283E+03  0.64908748808E+03  0.12510035931E+03 0.  0.
          5    1    3    3  502    0  0.14774508142E+02  0.18814588786E+01  0.46254471714E+03  0.46280332079E+03  0.41800000000E+01 0. -1.
         -5    1    3    3    0  502 -0.35683724954E+02 -0.64807708405E+02  0.17091211569E+03  0.18628416730E+03  0.41800000000E+01 0. -1.
        -11    1    1    2    0    0  0.21040210282E+02  0.86240991189E+01 -0.16648736784E+01  0.22799941638E+02  0.00000000000E+00 0.  1.
         11    1    1    2    0    0 -0.13099346960E+00  0.54302150407E+02  0.18272997010E+03  0.19062786436E+03  0.00000000000E+00 0. -1.
</event>
<event>
 7    1  0.2688177E-009  0.8607948E+02  0.7561462E-02  0.1312633E+00
          2   -1    0    0  501    0  0.00000000000E+00  0.00000000000E+00  0.34042106560E+03  0.34042106560E+03  0.00000000000E+00 0. -1.
         -2   -1    0    0    0  501 -0.00000000000E+00 -0.00000000000E+00 -0.38039660429E+02  0.38039660429E+02  0.00000000000E+00 0.  1.
         25    2    1    2    0    0 -0.30223246154E+02 -0.17545311980E+02  0.16351972635E+03  0.20882719666E+03  0.12509522205E+03 0.  0.
          5    1    3    3  502    0  0.15069685277E+02  0.25490791991E+02  0.13800884887E+03  0.14121186443E+03  0.41800000000E+01 0.  1.
         -5    1    3    3    0  502 -0.45292931431E+02 -0.43036103970E+02  0.25510877481E+02  0.67615332229E+02  0.41800000000E+01 0.  1.
        -11    1    1    2    0    0 -0.14365718514E+02 -0.17701701289E+02  0.38163344508E+01  0.23114681602E+02  0.00000000000E+00 0.  1.
         11    1    1    2    0    0  0.44588964668E+02  0.35247013268E+02  0.13504534437E+03  0.14651884777E+03  0.00000000000E+00 0. -1.
</event>
<event>
 7    1  0.2688177E-009  0.1491304E+03  0.7561462E-02  0.1201546E+00
         -2   -1    0    0    0  501 -0.00000000000E+00  0.00000000000E+00  0.11496723041E+03  0.11496723041E+03  0.00000000000E+00 0.  1.
          2   -1    0    0  501    0  0.00000000000E+00 -0.00000000000E+00 -0.97701080088E+03  0.97701080088E+03  0.00000000000E+00 0. -1.
         25    2    1    2    0    0  0.11663607152E+03  0.41975838309E+02 -0.91119684717E+03  0.92805835632E+03  0.12508666696E+03 0.  0.
          5    1    3    3  502    0  0.46875128441E+02 -0.19078703052E+02 -0.62788904666E+03  0.62993920491E+03  0.41800000000E+01 0. -1.
         -5    1    3    3    0  502  0.69760943074E+02  0.61054541361E+02 -0.28330780052E+03  0.29811915141E+03  0.41800000000E+01 0. -1.
        -11    1    1    2    0    0 -0.67480588235E+02 -0.70710052028E+02  0.42542784197E+02  0.10659938899E+03  0.00000000000E+00 0. -1.
         11    1    1    2    0    0 -0.49155483280E+02  0.28734213718E+02  0.66104925061E+01  0.57320285987E+02  0.00000000000E+00 0.  1.
</event>
<event>
 7    1  0.2688177E-009  0.2140946E+03  0.7561462E-02  0.1138364E+00
         -2   -1    0    0    0  501 -0.00000000000E+00  0.00000000000E+00  0.77581202854E+02  0.77581202854E+02  0.00000000000E+00 0. -1.
          2   -1    0    0  501    0  0.00000000000E+00 -0.00000000000E+00 -0.61144964970E+03  0.61144964970E+03  0.00000000000E+00 0.  1.
         25    2    1    2    0    0  0.12073805784E+03 -0.14264519904E+03 -0.28971759056E+03  0.36675558691E+03  0.12509215335E+03 0.  0.
          5    1    3    3  502    0 -0.10611485971E+02 -0.64465665436E+02 -0.49816735480E+02  0.82265455621E+02  0.41800000000E+01 0. -1.
         -5    1    3    3    0  502  0.13134954381E+03 -0.78179533605E+02 -0.23990085508E+03  0.28449013129E+03  0.41800000000E+01 0. -1.
        -11    1    1    2    0    0 -0.99630970234E+02  0.43969439152E+02 -0.11505593458E+03  0.15842193627E+03  0.00000000000E+00 0. -1.
         11    1    1    2    0    0 -0.21107087602E+02  0.98675759889E+02 -0.12909492171E+03  0.16385332938E+03  0.00000000000E+00 0.  1.
</event>
<event>
 7    1  0.2688177E-009  0.1001869E+03  0.7561462E-02  0.1279904E+00
          2   -1    0    0  501    0  0.00000000000E+00  0.00000000000E+00  0.11022766429E+03  0.11022766429E+03  0.00000000000E+00 0. -1.
         -2   -1    0    0    0  501 -0.00000000000E+00 -0.00000000000E+00 -0.18002032094E+03  0.18002032094E+03  0.00000000000E+00 0.  1.
         25    2    1    2    0    0 -0.22470515098E+02  0.57358672268E+02  0.29124366438E+02  0.14245211913E+03  0.12509770658E+03 0.  0.
          5    1    3    3  502    0  0.27729724852E+02  0.38962079179E+02  0.62861244223E+02  0.79094814492E+02  0.41800000000E+01 0. -1.
         -5    1    3    3    0  502 -0.50200239949E+02  0.18396593089E+02 -0.33736877785E+02  0.63357304638E+02  0.41800000000E+01 0. -1.
        -11    1    1    2    0    0 -0.28862830360E+02 -0.17540098932E+02 -0.58205855881E+01  0.34272397983E+02  0.00000000000E+00 0. -1.
         11    1    1    2    0    0  0.51333345457E+02 -0.39818573336E+02 -0.93096437499E+02  0.11352346812E+03  0.00000000000E+00 0.  1.
</event>
<event>
 7    1  0.2688177E-009  0.9654821E+02  0.7561462E-02  0.1287727E+00
         -2   -1    0    0    0  501 -0.00000000000E+00  0.00000000000E+00  0.47845862361E+02  0.47845862361E+02  0.00000000000E+00 0.  1.
          2   -1    0    0  501    0  0.00000000000E+00 -0.00000000000E+00 -0.27665871284E+03  0.27665871284E+03  0.00000000000E+00 0. -1.
         25    2    1    2    0    0 -0.10986749154E+02 -0.75456445151E+01 -0.18502591449E+03  0.22374420784E+03  0.12509690684E+03 0.  0.
          5    1    3    3  502    0  0.38414897929E+02  0.40901245804E+02 -0.76383042968E+02  0.94870743353E+02  0.41800000000E+01 0. -1.
         -5    1    3    3    0  502 -0.49401647082E+02 -0.48446890319E+02 -0.10864287152E+03  0.12887346448E+03  0.41800000000E+01 0. -1.
        -11    1    1    2    0    0  0.14394234227E+02  0.36042104738E+02  0.97500071293E+01  0.40016120901E+02  0.00000000000E+00 0.  1.
         11    1    1    2    0    0 -0.34074850734E+01 -0.28496460223E+02 -0.53536943119E+02  0.60744246462E+02  0.00000000000E+00 0. -1.
</event>
<event>
 7    1  0.2688177E-009  0.8775085E+02  0.7561462E-02  0.1308392E+00
         -1   -1    0    0    0  501 -0.00000000000E+00  0.00000000000E+00  0.18151155568E+03  0.18151155568E+03  0.00000000000E+00 0. -1.
          1   -1    0    0  501    0  0.00000000000E+00 -0.00000000000E+00 -0.81740322561E+02  0.81740322561E+02  0.00000000000E+00 0.  1.
         25    2    1    2    0    0  0.14249645155E+01 -0.23924061540E+02 -0.69311106139E+00  0.12736953998E+03  0.12509247806E+03 0.  0.
          5    1    3    3  502    0 -0.37372926366E+02  0.28792153933E+02 -0.29431391016E+02  0.55762020502E+02  0.41800000000E+01 0. -1.
         -5    1    3    3    0  502  0.38797890882E+02 -0.52716215473E+02  0.28738279955E+02  0.71607519475E+02  0.41800000000E+01 0. -1.
        -11    1    1    2    0    0  0.13131651324E+02 -0.15624050690E+02 -0.60885943105E+01  0.21298408558E+02  0.00000000000E+00 0.  1.
         11    1    1    2    0    0 -0.14556615839E+02  0.39548112230E+02  0.10655293849E+03  0.11458392970E+03  0.00000000000E+00 0. -1.
</event>
<event>
 7    1  0.2688177E-009  0.1702551E+03  0.7561462E-02  0.1177582E+00
          1   -1    0    0  501    0  0.00000000000E+00  0.00000000000E+00  0.64951291209E+03  0.64951291209E+03  0.00000000000E+00 0. -1.
         -1   -1    0    0    0  501 -0.00000000000E+00 -0.00000000000E+00 -0.51412730845E+02  0.51412730845E+02  0.00000000000E+00 0.  1.
         25    2    1    2    0    0  0.12254287856E+03 -0.56830391208E+02  0.20824230798E+03  0.27795451757E+03  0.12508958612E+03 0.  0.
          5    1    3    3  502    0  0.14723563968E+03 -0.43811474703E+02  0.15852508189E+03  0.22078372426E+03  0.41800000000E+01 0. -1.
         -5    1    3    3    0  502 -0.24692761119E+02 -0.13018916506E+02  0.49717226088E+02  0.57170793317E+02  0.41800000000E+01 0. -1.
        -11    1    1    2    0    0 -0.42604709719E+02 -0.20597937685E+02  0.17121783141E+03  0.17763722053E+03  0.00000000000E+00 0. -1.
         11    1    1    2    0    0 -0.79938168845E+02  0.77428328894E+02  0.21864004186E+03  0.24533390483E+03  0.00000000000E+00 0.  1.
</event>
<event>
 7    1  0.2688177E-009  0.1061002E+03  0.7561462E-02  0.1267967E+00
          1   -1    0    0  501    0  0.00000000000E+00  0.00000000000E+00  0.93133887872E+02  0.93133887872E+02  0.00000000000E+00 0. -1.
         -1   -1    0    0    0  501 -0.00000000000E+00 -0.00000000000E+00 -0.12325278757E+03  0.12325278757E+03  0.00000000000E+00 0.  1.
         25    2    1    2    0    0 -0.19956805728E+02  0.11551383409E+02 -0.52824307264E+01  0.12730615849E+03  0.12508894980E+03 0.  0.
          5    1    3    3  502    0  0.47292159880E+02 -0.20984647092E+02 -0.75221975353E+01  0.52449591566E+02  0.41800000000E+01 0. -1.
         -5    1    3    3    0  502 -0.67248965608E+02  0.32536030500E+02  0.22397668089E+01  0.74856566923E+02  0.41800000000E+01 0. -1.
        -11    1    1    2    0    0  0.31336392797E+02  0.29398739515E+02 -0.10581444301E+02  0.44251806314E+02  0.00000000000E+00 0.  1.
         11    1    1    2    0    0 -0.11379587069E+02 -0.40950122924E+02 -0.14255024674E+02  0.44828710642E+02  0.00000000000E+00 0. -1.
</event>
<event>
 7    1  0.2688177E-009  0.2008067E+03  0.7561462E-02  0.1149060E+00
          2   -1    0    0  501    0  0.00000000000E+00  0.00000000000E+00  0.73364201781E+02  0.73364201781E+02  0.00000000000E+00 0. -1.
         -2   -1    0    0    0  501 -0.00000000000E+00 -0.00000000000E+00 -0.75568780612E+03  0.75568780612E+03  0.00000000000E+00 0.  1.
         25    2    1    2    0    0  0.12060334924E+03  0.11994113538E+03 -0.56479216560E+03  0.60296635918E+03  0.12508875320E+03 0.  0.
          5    1    3    3  502    0  0.40043763324E+02  0.12257847469E+03 -0.31279980578E+03  0.33836397021E+03  0.41800000000E+01 0.  1.
         -5    1    3    3    0  502  0.80559585912E+02 -0.26373393178E+01 -0.25199235982E+03  0.26460238897E+03  0.41800000000E+01 0.  1.
        -11    1    1    2    0    0 -0.10621140556E+03 -0.13451973968E+03 -0.11241042815E+03  0.20496957675E+03  0.00000000000E+00 0.  1.
         11    1    1    2    0    0 -0.14391943673E+02  0.14578604305E+02 -0.51210105904E+01  0.21116071975E+02  0.00000000000E+00 0. -1.
</event>
<event>
 7    1  0.2688177E-009  0.1265429E+03  0.7561462E-02  0.1232678E+00
          1   -1    0    0  501    0  0.00000000000E+00  0.00000000000E+00  0.18869693937E+03  0.18869693937E+03  0.00000000000E+00 0. -1.
         -1   -1    0    0    0  501 -0.00000000000E+00 -0.00000000000E+00 -0.13359557748E+03  0.13359557748E+03  0.00000000000E+00 0.  1.
         25    2    1    2    0    0 -0.68094770164E+02  0.13524423308E+02 -0.64003118207E+02  0.15672606813E+03  0.12508738363E+03 0.  0.
          5    1    3    3  502    0 -0.91486635967E+02 -0.25497197870E+02 -0.56029648389E+02  0.11034811081E+03  0.41800000000E+01 0. -1.
         -5    1    3    3    0  502  0.23391865803E+02  0.39021621177E+02 -0.79734698173E+01  0.46377957329E+02  0.41800000000E+01 0. -1.
        -11    1    1    2    0    0  0.82554398838E+02  0.11579701829E+02  0.71429245640E+02  0.10977912094E+03  0.00000000000E+00 0.  1.
         11    1    1    2    0    0 -0.14459628674E+02 -0.25104125136E+02  0.47675234454E+02  0.55787327777E+02  0.00000000000E+00 0. -1.
</event>
<event>
 7    1  0.2688177E-009  0.1086151E+03  0.7561462E-02  0.1263156E+00
          2   -1    0    0  501    0  0.00000000000E+00  0.00000000000E+00  0.33897824311E+03  0.33897824311E+03  0.00000000000E+00 0. -1.
         -2   -1    0    0    0  501 -0.00000000000E+00 -0.00000000000E+00 -0.48250971761E+02  0.48250971761E+02  0.00000000000E+00 0.  1.
         25    2    1    2    0    0 -0.63007621525E+02 -0.13489435588E+02  0.19875430195E+03  0.24352252668E+03  0.12509205897E+03 0.  0.
          5    1    3    3  502    0 -0.45836400532E+02  0.41701775882E+02  0.38407619803E+02  0.73024868260E+02  0.41800000000E+01 0.  1.
         -5    1    3    3    0  502 -0.17171220993E+02 -0.55191211470E+02  0.16034668214E+03  0.17049765842E+03  0.41800000000E+01 0.  1.
        -11    1    1    2    0    0  0.18792667709E+02  0.40995332790E+02  0.77490203216E+02  0.89657756299E+02  0.00000000000E+00 0.  1.
         11    1    1    2    0    0  0.44214953816E+02 -0.27505897202E+02  0.14482766189E+02  0.54048931889E+02  0.00000000000E+00 0. -1.
</event>
<event>
 7    1  0.2688177E-009  0.1339368E+03  0.7561462E-02  0.1221728E+00
         -1   -1    0    0    0  501 -0.00000000000E+00  0.00000000000E+00  0.55191985260E+03  0.55191985260E+03  0.00000000000E+00 0.  1.
          1   -1    0    0  501    0  0.00000000000E+00 -0.00000000000E+00 -0.56625389484E+02  0.56625389484E+02  0.00000000000E+00 0. -1.
         25    2    1    2    0    0 -0.12663820578E+03 -0.24812605284E+02  0.35744345881E+03  0.40008347671E+03  0.12509221220E+03 0.  0.
          5    1    3    3  502    0 -0.86000850413E+02 -0.33166154842E+02  0.34417141030E+03  0.35632509337E+03  0.41800000000E+01 0.  1.
         -5    1    3    3    0  502 -0.40637355365E+02  0.83535495575E+01  0.13272048506E+02  0.43758383344E+02  0.41800000000E+01 0.  1.
        -11    1    1    2    0    0  0.99796219561E+02  0.34165377037E+02  0.14485070201E+03  0.17918784641E+03  0.00000000000E+00 0.  1.
         11    1    1    2    0    0  0.26841986217E+02 -0.93527717528E+01 -0.69996976994E+01  0.29273918963E+02  0.00000000000E+00 0. -1.
</event>
<event>
 7    1  0.2688177E-009  0.9158998E+02  0.7561462E-02  0.1299046E+00
         -1   -1    0    0    0  501 -0.00000000000E+00  0.00000000000E+00  0.22223425097E+02  0.22223425097E+02  0.00000000000E+00 0.  1.
          1   -1    0    0  501    0  0.00000000000E+00 -0.00000000000E+00 -0.73782239236E+03  0.73782239236E+03  0.00000000000E+00 0. -1.
         25    2    1    2    0    0  0.21384134632E+02  0.13344202370E+02 -0.59471811179E+03  0.60825427380E+03  0.12509308597E+03 0.  0.
          5    1    3    3  502    0 -0.47158605188E+02  0.28224847267E+02 -0.20653674684E+03  0.21376500238E+03  0.41800000000E+01 0.  1.
         -5    1    3    3    0  502  0.68542739820E+02 -0.14880644898E+02 -0.38818136494E+03  0.39448927142E+03  0.41800000000E+01 0.  1.
        -11    1    1    2    0    0 -0.19725574497E+02  0.17823816650E+02  0.36980601148E+00  0.26588032754E+02  0.00000000000E+00 0.  1.
         11    1    1    2    0    0 -0.16585601349E+01 -0.31168019019E+02 -0.12125066149E+03  0.12520351090E+03  0.00000000000E+00 0. -1.
</event>
<event>
 7    1  0.2688177E-009  0.1615038E+03  0.7561462E-02  0.1187009E+00
          2   -1    0    0  501    0  0.00000000000E+00  0.00000000000E+00  0.51328447159E+03  0.51328447159E+03  0.00000000000E+00 0. -1.
         -2   -1    0    0    0  501 -0.00000000000E+00 -0.00000000000E+00 -0.62417938930E+02  0.62417938930E+02  0.00000000000E+00 0.  1.
         25    2    1    2    0    0 -0.10554165423E+03  0.80015802380E+02  0.15531525292E+03  0.23939655384E+03  0.12508522212E+03 0.  0.
          5    1    3    3  502    0 -0.10289895424E+03  0.10247379169E+03  0.15979822074E+03  0.21596762840E+03  0.41800000000E+01 0. -1.
         -5    1    3    3    0  502 -0.26426999901E+01 -0.22457989305E+02 -0.44829678188E+01  0.23428925441E+02  0.41800000000E+01 0. -1.
        -11    1    1    2    0    0  0.16764528973E+02  0.16550249906E+02  0.85284646119E+02  0.88478421479E+02  0.00000000000E+00 0. -1.
         11    1    1    2    0    0  0.88777125257E+02 -0.96566052287E+02  0.21026663362E+03  0.24782743520E+03  0.00000000000E+00 0.  1.
</event>
<event>
 7    1  0.2688177E-009  0.1353136E+03  0.7561462E-02  0.1219778E+00
          2   -1    0    0  501    0  0.00000000000E+00  0.00000000000E+00  0.25186529409E+03  0.25186529409E+03  0.00000000000E+00 0. -1.
         -2   -1    0    0    0  501 -0.00000000000E+00 -0.00000000000E+00 -0.10437021620E+03  0.10437021620E+03  0.00000000000E+00 0.  1.
         25    2    1    2    0    0  0.11838993553E+03  0.17588637451E+02  0.78512242402E+02  0.19009905775E+03  0.12509173653E+03 0.  0.
          5    1    3    3  502    0  0.10855963376E+03  0.28883961980E+01 -0.85125868627E+00  0.10868180141E+03  0.41800000000E+01 0. -1.
         -5    1    3    3    0  502  0.98303017631E+01  0.14700241253E+02  0.79363501089E+02  0.81417256345E+02  0.41800000000E+01 0. -1.
        -11    1    1    2    0    0 -0.41379671982E+02 -0.45834630350E+02  0.47130611858E+01  0.61929827534E+02  0.00000000000E+00 0.  1.
         11    1    1    2    0    0 -0.77010263545E+02  0.28245992899E+02  0.64269774298E+02  0.10420662500E+03  0.00000000000E+00 0. -1.
</event>
<event>
 7    1  0.2688177E-009  0.1008763E+03  0.7561462E-02  0.1278464E+00
          2   -1    0    0  501    0  0.00000000000E+00  0.00000000000E+00  0.74167076232E+03  0.74167076232E+03  0.00000000000E+00 0. -1.
         -2   -1    0    0    0  501 -0.00000000000E+00 -0.00000000000E+00 -0.17635065642E+02  0.17635065642E+02  0.00000000000E+00 0.  1.
         25    2    1    2    0    0  0.41935046860E+02 -0.23068228090E+01  0.50340389966E+03  0.52041358214E+03  0.12510371973E+03 0.  0.
          5    1    3    3  502    0  0.13054231451E+02 -0.53402067360E+02  0.37670064980E+03  0.38071386331E+03  0.41800000000E+01 0. -1.
         -5    1    3    3    0  502  0.28880815410E+02  0.51095244551E+02  0.12670324986E+03  0.13969971883E+03  0.41800000000E+01 0. -1.
        -11    1    1    2    0    0 -0.35697832216E+02 -0.34976355659E+02  0.90513807946E+02  0.10339453617E+03  0.00000000000E+00 0. -1.
         11    1    1    2    0    0 -0.62372146440E+01  0.37283178468E+02  0.13011798907E+03  0.13549770966E+03  0.00000000000E+00 0.  1.
</event>
<event>
 7    1  0.2688177E-009  0.1538006E+03  0.7561462E-02  0.1195879E+00
          1   -1    0    0  501    0  0.00000000000E+00  0.00000000000E+00  0.68059439045E+02  0.68059439045E+02  0.00000000000E+00 0. -1.
         -1   -1    0    0    0  501 -0.00000000000E+00 -0.00000000000E+00 -0.48248257048E+03  0.48248257048E+03  0.00000000000E+00 0.  1.
         25    2    1    2    0    0  0.99731681537E+02  0.54477086344E+02 -0.35580280114E+03  0.39390056632E+03  0.12509141300E+03 0.  0.
          5    1    3    3  502    0  0.32510149415E+02 -0.38277243191E+02 -0.72569636337E+02  0.88350900841E+02  0.41800000000E+01 0. -1.
         -5    1    3    3    0  502  0.67221532122E+02  0.92754329535E+02 -0.28323316480E+03  0.30554966548E+03  0.41800000000E+01 0. -1.
        -11    1    1    2    0    0 -0.18998683704E+02  0.23580353323E+02 -0.25425369216E+02  0.39540263594E+02  0.00000000000E+00 0.  1.
         11    1    1    2    0    0 -0.80732997833E+02 -0.78057439667E+02 -0.33194961081E+02  0.11710117962E+03  0.00000000000E+00 0. -1.
</event>
<event>
 6    1  0.2688177E-009  0.1083353E+03  0.7561462E-02  0.1263684E+00
          3   -1    0    0  501    0  0.00000000000E+00  0.00000000000E+00  0.12271001927E+03  0.12271001927E+03  0.00000000000E+00 0. -1.
         -3   -1    0    0    0  501 -0.00000000000E+00 -0.00000000000E+00 -0.23607696359E+03  0.23607696359E+03  0.00000000000E+00 0.  1.
          5    1    1    2  502    0  0.62230429359E+02  0.85909233612E+02  0.12483128599E+02  0.10689398326E+03  0.41800000000E+01 0.  1.
         -5    1    1    2    0  502 -0.27991494378E+02 -0.25951798757E+02  0.37235981475E+02  0.53488413069E+02  0.41800000000E+01 0.  1.
        -11    1    1    2    0    0 -0.47689519074E+01 -0.28915043866E+02 -0.15115504030E+03  0.15396970115E+03  0.00000000000E+00 0.  1.
         11    1    1    2    0    0 -0.29469983073E+02 -0.31042390990E+02 -0.11931014087E+02  0.44434885370E+02  0.00000000000E+00 0. -1.
</event>
<event>
 7    1  0.2688177E-009  0.9079153E+02  0.7561462E-02  0.1300946E+00
         -1   -1    0    0    0  501 -0.00000000000E+00  0.00000000000E+00  0.53266812683E+02  0.53266812683E+02  0.00000000000E+00 0.  1.
          1   -1    0    0  501    0  0.00000000000E+00 -0.00000000000E+00 -0.28281079415E+03  0.28281079415E+03  0.00000000000E+00 0. -1.
         25    2    1    2    0    0 -0.49040038156E+02  0.25136007444E+02 -0.10245623051E+03  0.17082755870E+03  0.12509209179E+03 0.  0.
          5    1    3    3  502    0 -0.95379532269E+01  0.41707356099E+02 -0.11759199222E+03  0.12520313550E+03  0.41800000000E+01 0.  1.
         -5    1    3    3    0  502 -0.39502084929E+02 -0.16571348655E+02  0.15135761710E+02  0.45624423202E+02  0.41800000000E+01 0.  1.
        -11    1    1    2    0    0  0.70453062238E+02 -0.22614968731E+02 -0.61518286247E+02  0.96226661234E+02  0.00000000000E+00 0.  1.
         11    1    1    2    0    0 -0.21413024082E+02 -0.25210387124E+01 -0.65569464708E+02  0.69023386897E+02  0.00000000000E+00 0. -1.
</event>
<event>
 7    1  0.2688177E-009  0.9015644E+02  0.7561462E-02  0.1302473E+00
          1   -1    0    0  501    0  0.00000000000E+00  0.00000000000E+00  0.43966884119E+03  0.43966884119E+03  0.00000000000E+00 0. -1.
         -1   -1    0    0    0  501 -0.00000000000E+00 -0.00000000000E+00 -0.57296621203E+02  0.57296621203E+02  0.00000000000E+00 0.  1.
         25    2    1    2    0    0 -0.18188106459E+02  0.69024315560E+01  0.38381058339E+03  0.40415005179E+03  0.12509296405E+03 0.  0.
          5    1    3    3  502    0  0.40307247807E+02 -0.35449990617E+02  0.18016566838E+03  0.18803860381E+03  0.41800000000E+01 0.  1.
         -5    1    3    3    0  502 -0.58495354266E+02  0.42352422173E+02  0.20364491501E+03  0.21611144797E+03  0.41800000000E+01 0.  1.
        -11    1    1    2    0    0 -0.73921978470E+01  0.17365158490E+02  0.36457443902E+02  0.41052874860E+02  0.00000000000E+00 0. -1.
         11    1    1    2    0    0  0.25580304306E+02 -0.24267590046E+02 -0.37895807311E+02  0.51762535745E+02  0.00000000000E+00 0.  1.
</event>
<event>
 7    1  0.3678997E-009  0.6798003E+02  0.7561462E-02  0.1367100E+00
          2   -1    0    0  501    0  0.00000000000E+00  0.00000000000E+00  0.70059798585E+02  0.70059798585E+02  0.00000000000E+00 0. -1.
         -2   -1    0    0    0  501 -0.00000000000E+00 -0.00000000000E+00 -0.21814708416E+03  0.21814708416E+03  0.00000000000E+00 0.  1.
         25    2    1    2    0    0  0.25362081924E+02  0.45343935612E+02 -0.48897683819E+02  0.14400651152E+03  0.12509030410E+03 0.  0.
          5    1    3    3  502    0  0.29663839496E+02  0.54966403097E+02  0.26342680938E+02  0.67916552342E+02  0.41800000000E+01 0.  1.
         -5    1    3    3    0  502 -0.43017575721E+01 -0.96224674843E+01 -0.75240364757E+02  0.76089959176E+02  0.41800000000E+01 0.  1.
        -11    1    1    2    0    0 -0.29929759880E+02 -0.19374283822E+02 -0.11005137492E+03  0.11568257657E+03  0.00000000000E+00 0.  1.
         11    1    1    2    0    0  0.45676779565E+01 -0.25969651790E+02  0.10861773161E+02  0.28517794659E+02  0.00000000000E+00 0. -1.
</event>
<event>
 7    1  0.2688177E-009  0.1690701E+03  0.7561462E-02  0.1178821E+00
         -1   -1    0    0    0  501 -0.00000000000E+00  0.00000000000E+00  0.10918590817E+04  0.10918590817E+04  0.00000000000E+00 0.  1.
          1   -1    0    0  501    0  0.00000000000E+00 -0.00000000000E+00 -0.30777201064E+02  0.30777201064E+02  0.00000000000E+00 0. -1.
         25    2    1    2    0    0  0.59538398920E+02 -0.13514855643E+03  0.58417553052E+03  0.61539890638E+03  0.12507921596E+03 0.  0.
          5    1    3    3  502    0 -0.14076116573E+02 -0.52994786570E+02  0.37376882283E+03  0.37779252214E+03  0.41800000000E+01 0. -1.
         -5    1    3    3    0  502  0.73614515494E+02 -0.82153769859E+02  0.21040670769E+03  0.23760638425E+03  0.41800000000E+01 0. -1.
        -11    1    1    2    0    0 -0.73760035294E+02  0.56706275648E+02  0.25985251101E+03  0.27600628975E+03  0.00000000000E+00 0.  1.
         11    1    1    2    0    0  0.14221636374E+02  0.78442280781E+02  0.21705383914E+03  0.23123108667E+03  0.00000000000E+00 0. -1.
</event>
<event>
 7    1  0.2688177E-009  0.1514253E+03  0.7561462E-02  0.1198732E+00
          2   -1    0    0  501    0  0.00000000000E+00  0.00000000000E+00  0.73436400287E+03  0.73436400287E+03  0.00000000000E+00 0. -1.
         -2   -1    0    0    0  501 -0.00000000000E+00 -0.00000000000E+00 -0.44221638996E+02  0.44221638996E+02  0.00000000000E+00 0.  1.
         25    2    1    2    0    0  0.11065196266E+03 -0.43613354991E+02  0.17927597098E+03  0.24886363654E+03  0.12508898531E+03 0.  0.
          5    1    3    3  502    0  0.12806779407E+03 -0.29577318020E+01  0.13436000308E+03  0.18568842420E+03  0.41800000000E+01 0.  1.
         -5    1    3    3    0  502 -0.17415831416E+02 -0.40655623189E+02  0.44915967902E+02  0.63175212333E+02  0.41800000000E+01 0.  1.
        -11    1    1    2    0    0 -0.72817409325E+02  0.39941049901E+00  0.37835184618E+03  0.38529554129E+03  0.00000000000E+00 0. -1.
         11    1    1    2    0    0 -0.37834553330E+02  0.43213944492E+02  0.13251454671E+03  0.14442646404E+03  0.00000000000E+00 0.  1.
</event>
<event>
 7    1  0.2688177E-009  0.1467317E+03  0.7561462E-02  0.1204547E+00
          2   -1    0    0  501    0  0.00000000000E+00  0.00000000000E+00  0.12867159135E+04  0.12867159135E+04  0.00000000000E+00 0. -1.
         -2   -1    0    0    0  501 -0.00000000000E+00 -0.00000000000E+00 -0.30777458481E+02  0.30777458481E+02  0.00000000000E+00 0.  1.
         25    2    1    2    0    0  0.93549252884E+02  0.65789890196E+02  0.10634018329E+04  0.10768240328E+04  0.12508703784E+03 0.  0.
          5    1    3    3  502    0  0.83467331662E+02 -0.16392002721E+02  0.46916031443E+03  0.47682739670E+03  0.41800000000E+01 0. -1.
         -5    1    3    3    0  502  0.10081921222E+02  0.82181892917E+02  0.59424151850E+03  0.59999663613E+03  0.41800000000E+01 0. -1.
        -11    1    1    2    0    0 -0.49634499191E+02 -0.64598208206E+02  0.17561857755E+03  0.19359338003E+03  0.00000000000E+00 0. -1.
         11    1    1    2    0    0 -0.43914753693E+02 -0.11916819899E+01  0.16918044580E+02  0.47075959154E+02  0.00000000000E+00 0.  1.
</event>
<event>
 7    1  0.2688177E-009  0.9465489E+02  0.7561462E-02  0.1291955E+00
          1   -1    0    0  501    0  0.00000000000E+00  0.00000000000E+00  0.33057956720E+02  0.33057956720E+02  0.00000000000E+00 0. -1.
         -1   -1    0    0    0  501 -0.00000000000E+00 -0.00000000000E+00 -0.38931428483E+03  0.38931428483E+03  0.00000000000E+00 0.  1.
         25    2    1    2    0    0  0.26648614085E+02  0.72652190862E+01 -0.23980498803E+03  0.27187895478E+03  0.12509517068E+03 0.  0.
          5    1    3    3  502    0  0.50558518937E+02 -0.25588341935E+02 -0.44013816256E+02  0.71872216478E+02  0.41800000000E+01 0. -1.
         -5    1    3    3    0  502 -0.23909904852E+02  0.32853561021E+02 -0.19579117177E+03  0.20000673830E+03  0.41800000000E+01 0. -1.
        -11    1    1    2    0    0  0.26013645954E+02 -0.24995871461E+02 -0.26501899833E+02  0.44764428519E+02  0.00000000000E+00 0. -1.
         11    1    1    2    0    0 -0.52662260039E+02  0.17730652375E+02 -0.89949440248E+02  0.10572885825E+03  0.00000000000E+00 0.  1.
</event>
<event>
 7    1  0.2688177E-009  0.3007344E+03  0.7561462E-02  0.1084874E+00
          1   -1    0    0  501    0  0.00000000000E+00  0.00000000000E+00  0.60885254549E+03  0.60885254549E+03  0.00000000000E+00 0. -1.
         -1   -1    0    0    0  501 -0.00000000000E+00 -0.00000000000E+00 -0.17967494543E+03  0.17967494543E+03  0.00000000000E+00 0.  1.
         25    2    1    2    0    0 -0.62732596439E+02  0.28716674450E+03  0.34400213346E+03  0.46945350457E+03  0.12509599245E+03 0.  0.
          5    1    3    3  502    0 -0.55946437296E+02  0.26494631293E+03  0.35235956364E+03  0.44441116893E+03  0.41800000000E+01 0.  1.
         -5    1    3    3    0  502 -0.67861591426E+01  0.22220431566E+02 -0.83574301838E+01  0.25042335637E+02  0.41800000000E+01 0.  1.
        -11    1    1    2    0    0  0.96250745257E+01 -0.22530445301E+03  0.54841425295E+02  0.23208257266E+03  0.00000000000E+00 0.  1.
         11    1    1    2    0    0  0.53107521913E+02 -0.61862291488E+02  0.30334041309E+02  0.86991413680E+02  0.00000000000E+00 0. -1.
</event>
<event>
 7    1  0.3012706E-009  0.9950713E+02  0.7561462E-02  0.1281336E+00
         -1   -1    0    0    0  501 -0.00000000000E+00  0.00000000000E+00  0.98300900886E+02  0.98300900886E+02  0.00000000000E+00 0.  1.
          1   -1    0    0  501    0  0.00000000000E+00 -0.00000000000E+00 -0.19795820453E+03  0.19795820453E+03  0.00000000000E+00 0. -1.
         25    2    1    2    0    0  0.12502847234E+01  0.32792307376E+02 -0.14045460426E+03  0.19092370123E+03  0.12508982851E+03 0.  0.
          5    1    3    3  502    0  0.55971223516E+02  0.20599374863E+02 -0.29790811549E+02  0.66798779626E+02  0.41800000000E+01 0.  1.
         -5    1    3    3    0  502 -0.54720938793E+02  0.12192932513E+02 -0.11066379271E+03  0.12412492160E+03  0.41800000000E+01 0.  1.
        -11    1    1    2    0    0  0.34928792890E+02 -0.31134655967E+02 -0.48772877940E+01  0.47044397234E+02  0.00000000000E+00 0. -1.
         11    1    1    2    0    0 -0.36179077613E+02 -0.16576514094E+01  0.45674588411E+02  0.58291006953E+02  0.00000000000E+00 0.  1.
</event>
<event>
 7    1  0.2688177E-009  0.6108711E+02  0.7561462E-02  0.1393325E+00
          2   -1    0    0  501    0  0.00000000000E+00  0.00000000000E+00  0.75694758650E+03  0.75694758650E+03  0.00000000000E+00 0.  1.
         -2   -1    0    0    0  501 -0.00000000000E+00 -0.00000000000E+00 -0.22676014141E+02  0.22676014141E+02  0.00000000000E+00 0. -1.
         25    2    1    2    0    0 -0.84426539080E+01  0.11165716658E+02  0.62228144632E+03  0.63488408892E+03  0.12509059236E+03 0.  0.
          5    1    3    3  502    0  0.36140501989E+01  0.25374601236E+02  0.61317766909E+03  0.61372734828E+03  0.41800000000E+01 0. -1.
         -5    1    3    3    0  502 -0.12056704107E+02 -0.14208884578E+02  0.91037772242E+01  0.21156740642E+02  0.41800000000E+01 0. -1.
        -11    1    1    2    0    0  0.11464988619E+02 -0.43319772636E+02  0.10121921328E+03  0.11069497641E+03  0.00000000000E+00 0. -1.
         11    1    1    2    0    0 -0.30223347106E+01  0.32154055978E+02  0.10770912759E+02  0.34044535312E+02  0.00000000000E+00 0.  1.
</event>
<event>
 7    1  0.2688177E-009  0.9831671E+02  0.7561462E-02  0.1283876E+00
          2   -1    0    0  501    0  0.00000000000E+00  0.00000000000E+00  0.58978642580E+03  0.58978642580E+03  0.00000000000E+00 0. -1.
         -2   -1    0    0    0  501 -0.00000000000E+00 -0.00000000000E+00 -0.21939248591E+02  0.21939248591E+02  0.00000000000E+00 0.  1.
         25    2    1    2    0    0 -0.17793040766E+02  0.10996786258E+02  0.39715683691E+03  0.41691594561E+03  0.12509129063E+03 0.  0.
          5    1    3    3  502    0 -0.31188998659E+02 -0.46010914225E+02  0.28417793495E+03  0.28959338559E+03  0.41800000000E+01 0.  1.
         -5    1    3    3    0  502  0.13395957893E+02  0.57007700482E+02  0.11297890196E+03  0.12732256002E+03  0.41800000000E+01 0.  1.
        -11    1    1    2    0    0 -0.23671648628E+02 -0.28607995158E+02  0.32106670533E+02  0.49087703434E+02  0.00000000000E+00 0.  1.
         11    1    1    2    0    0  0.41464689394E+02  0.17611208900E+02  0.13858366977E+03  0.14572202535E+03  0.00000000000E+00 0. -1.
</event>
<event>
 7    1  0.2688177E-009  0.8086449E+02  0.7561462E-02  0.1326616E+00
          3   -1    0    0  501    0  0.00000000000E+00  0.00000000000E+00  0.10621788652E+03  0.10621788652E+03  0.00000000000E+00 0. -1.
         -3   -1    0    0    0  501 -0.00000000000E+00 -0.00000000000E+00 -0.13669836535E+03  0.13669836535E+03  0.00000000000E+00 0.  1.
         25    2    1    2    0    0  0.21077726589E+02  0.44637985402E+02 -0.50251725842E+01  0.13457323464E+03  0.12509149781E+03 0.  0.
          5    1    3    3  502    0 -0.19676344093E+01  0.45135783129E+02 -0.59762041438E+02  0.75033889015E+02  0.41800000000E+01 0.  1.
         -5    1    3    3    0  502  0.23045360998E+02 -0.49779772694E+00  0.54736868854E+02  0.59539345630E+02  0.41800000000E+01 0.  1.
        -11    1    1    2    0    0 -0.50806717123E+02 -0.21109319894E+02 -0.39696365610E+02  0.67843403023E+02  0.00000000000E+00 0.  1.
         11    1    1    2    0    0  0.29728990533E+02 -0.23528665508E+02  0.14241059367E+02  0.40499614204E+02  0.00000000000E+00 0. -1.
</event>
<event>
 7    1  0.2688177E-009  0.2161465E+03  0.7561462E-02  0.1136789E+00
         -2   -1    0    0    0  501 -0.00000000000E+00  0.00000000000E+00  0.55574627460E+02  0.55574627460E+02  0.00000000000E+00 0.  1.
          2   -1    0    0  501    0  0.00000000000E+00 -0.00000000000E+00 -0.11652103862E+04  0.11652103862E+04  0.00000000000E+00 0. -1.
         25    2    1    2    0    0  0.99812908771E+02 -0.16000597905E+03 -0.88699857935E+03  0.91541295565E+03  0.12509943850E+03 0.  0.
          5    1    3    3  502    0  0.38170281178E+02 -0.15707363455E+03 -0.57291210928E+03  0.59529392269E+03  0.41800000000E+01 0.  1.
         -5    1    3    3    0  502  0.61642627593E+02 -0.29323445078E+01 -0.31408647007E+03  0.32011903296E+03  0.41800000000E+01 0.  1.
        -11    1    1    2    0    0 -0.23554566629E+02  0.12064497863E+03 -0.13867389398E+03  0.18531183813E+03  0.00000000000E+00 0.  1.
         11    1    1    2    0    0 -0.76258342143E+02  0.39361000420E+02 -0.83963285396E+02  0.12006021987E+03  0.00000000000E+00 0. -1.
</event>
<event>
 7    1  0.2688177E-009  0.1902258E+03  0.7561462E-02  0.1158258E+00
         -1   -1    0    0    0  501 -0.00000000000E+00  0.00000000000E+00  0.24601272473E+02  0.24601272473E+02  0.00000000000E+00 0.  1.
          1   -1    0    0  501    0  0.00000000000E+00 -0.00000000000E+00 -0.15480188269E+04  0.15480188269E+04  0.00000000000E+00 0. -1.
         25    2    1    2    0    0  0.84375946150E+02  0.13542776463E+03 -0.71393240781E+03  0.74216406950E+03  0.12509213971E+03 0.  0.
          5    1    3    3  502    0  0.82532436176E+02  0.15491074625E+03 -0.55846443872E+03  0.58541348126E+03  0.41800000000E+01 0.  1.
         -5    1    3    3    0  502  0.18435099742E+01 -0.19482981618E+02 -0.15546796909E+03  0.15675058825E+03  0.41800000000E+01 0.  1.
        -11    1    1    2    0    0 -0.74907372491E+02 -0.32752545237E+02 -0.32561333564E+03  0.33571995476E+03  0.00000000000E+00 0.  1.
         11    1    1    2    0    0 -0.94685736592E+01 -0.10267521939E+03 -0.48387181096E+03  0.49473607510E+03  0.00000000000E+00 0. -1.
</event>
<event>
 7    1  0.2688177E-009  0.1046426E+03  0.7561462E-02  0.1270825E+00
          1   -1    0    0  501    0  0.00000000000E+00  0.00000000000E+00  0.34790736031E+02  0.34790736031E+02  0.00000000000E+00 0. -1.
         -1   -1    0    0    0  501 -0.00000000000E+00 -0.00000000000E+00 -0.38807393227E+03  0.38807393227E+03  0.00000000000E+00 0.  1.
         25    2    1    2    0    0  0.36398709854E+02 -0.23419321046E+02 -0.19307471389E+03  0.23409600796E+03  0.12509902127E+03 0.  0.
          5    1    3    3  502    0 -0.28021225592E+02 -0.53933402444E+02 -0.85717672865E+02  0.10516174601E+03  0.41800000000E+01 0.  1.
         -5    1    3    3    0  502  0.64419935446E+02  0.30514081398E+02 -0.10735704103E+03  0.12893426195E+03  0.41800000000E+01 0.  1.
        -11    1    1    2    0    0 -0.54845025792E+02  0.16777327508E+02 -0.15911088295E+03  0.16913228150E+03  0.00000000000E+00 0.  1.
         11    1    1    2    0    0  0.18446315938E+02  0.66419935379E+01 -0.10975994077E+01  0.19636378849E+02  0.00000000000E+00 0. -1.
</event>
<event>
 7    1  0.2688177E-009  0.1096166E+03  0.7561462E-02  0.1261282E+00
         -1   -1    0    0    0  501 -0.00000000000E+00  0.00000000000E+00  0.45116894987E+03  0.45116894987E+03  0.00000000000E+00 0.  1.
          1   -1    0    0  501    0  0.00000000000E+00 -0.00000000000E+00 -0.47927677711E+02  0.47927677711E+02  0.00000000000E+00 0. -1.
         25    2    1    2    0    0  0.50619208170E+02  0.45667967180E+02  0.32768608004E+03  0.35732229346E+03  0.12511269676E+03 0.  0.
          5    1    3    3  502    0 -0.22242545050E+02  0.20229520583E+02  0.12550238769E+02  0.32847301358E+02  0.41800000000E+01 0. -1.
         -5    1    3    3    0  502  0.72861753220E+02  0.25438446597E+02  0.31513584127E+03  0.32447499210E+03  0.41800000000E+01 0. -1.
        -11    1    1    2    0    0 -0.20551297922E+02 -0.69972167009E+02  0.22878751559E+02  0.76432305180E+02  0.00000000000E+00 0. -1.
         11    1    1    2    0    0 -0.30067910247E+02  0.24304199829E+02  0.52676440566E+02  0.65342028945E+02  0.00000000000E+00 0.  1.
</event>
<event>
 7    1  0.2688177E-009  0.1242960E+03  0.7561462E-02  0.1236174E+00
          2   -1    0    0  501    0  0.00000000000E+00  0.00000000000E+00  0.20322480739E+03  0.20322480739E+03  0.00000000000E+00 0.  1.
         -2   -1    0    0    0  501 -0.00000000000E+00 -0.00000000000E+00 -0.10206702989E+03  0.10206702989E+03  0.00000000000E+00 0. -1.
         25    2    1    2    0    0 -0.80682417184E+02 -0.96732137568E+01  0.53668229991E+01  0.14929383193E+03  0.12512642389E+03 0.  0.
          5    1    3    3  502    0 -0.80258957868E+02 -0.45050437122E+02 -0.32126713667E+02  0.97573768677E+02  0.41800000000E+01 0. -1.
         -5    1    3    3    0  502 -0.42345931662E+00  0.35377223365E+02  0.37493536666E+02  0.51720063250E+02  0.41800000000E+01 0. -1.
        -11    1    1    2    0    0 -0.40664680412E+00  0.35674846062E+02  0.42719736145E+02  0.55658205679E+02  0.00000000000E+00 0. -1.
         11    1    1    2    0    0  0.81089063989E+02 -0.26001632305E+02  0.53071218359E+02  0.10033979968E+03  0.00000000000E+00 0.  1.
</event>
<event>
 7    1  0.2688177E-009  0.8195954E+02  0.7561462E-02  0.1323581E+00
         -2   -1    0    0    0  501 -0.00000000000E+00  0.00000000000E+00  0.61262800618E+02  0.61262800618E+02  0.00000000000E+00 0.  1.
          2   -1    0    0  501    0  0.00000000000E+00 -0.00000000000E+00 -0.27803798938E+03  0.27803798938E+03  0.00000000000E+00 0. -1.
         25    2    1    2    0    0  0.60537521876E+02  0.12809638938E+02 -0.70221615682E+02  0.15622880009E+03  0.12508990473E+03 0.  0.
          5    1    3    3  502    0  0.50572157084E+02  0.29771830549E+02 -0.10250736360E+03  0.11819110355E+03  0.41800000000E+01 0.  1.
         -5    1    3    3    0  502  0.99653647918E+01 -0.16962191611E+02  0.32285747918E+02  0.38037696543E+02  0.41800000000E+01 0.  1.
        -11    1    1    2    0    0 -0.18042760525E+02  0.23118648183E+02 -0.11587454015E+03  0.11952791371E+03  0.00000000000E+00 0. -1.
         11    1    1    2    0    0 -0.42494761351E+02 -0.35928287121E+02 -0.30679032929E+02  0.63544076192E+02  0.00000000000E+00 0.  1.
</event>
<event>
 6    1  0.2688177E-009  0.1067247E+03  0.7561462E-02  0.1266758E+00
         -3   -1    0    0    0  501 -0.00000000000E+00  0.00000000000E+00  0.55106327775E+02  0.55106327775E+02  0.00000000000E+00 0.  1.
          3   -1    0    0  501    0  0.00000000000E+00 -0.00000000000E+00 -0.35248762221E+03  0.35248762221E+03  0.00000000000E+00 0. -1.
          5    1    1    2  502    0 -0.82022539305E+02 -0.26907788491E+02 -0.18918383530E+02  0.88470919917E+02  0.41800000000E+01 0.  1.
         -5    1    1    2    0  502  0.96362431985E+01 -0.12865459365E+02 -0.10443072935E+03  0.10574321188E+03  0.41800000000E+01 0.  1.
        -11    1    1    2    0    0 -0.15287707228E+02  0.47916574640E+01 -0.74504823387E+02  0.76207891202E+02  0.00000000000E+00 0. -1.
         11    1    1    2    0    0  0.87674003335E+02  0.34981590392E+02 -0.99527358169E+02  0.13717192698E+03  0.00000000000E+00 0.  1.
</event>
<event>
 7    1  0.2688177E-009  0.1199828E+03  0.7561462E-02  0.1243126E+00
         -1   -1    0    0    0  501 -0.00000000000E+00  0.00000000000E+00  0.45186744850E+03  0.45186744850E+03  0.00000000000E+00 0.  1.
          1   -1    0    0  501    0  0.00000000000E+00 -0.00000000000E+00 -0.42804632562E+02  0.42804632562E+02  0.00000000000E+00 0. -1.
         25    2    1    2    0    0 -0.89771439715E+02 -0.15148292583E+02  0.25105648114E+03  0.29489709493E+03  0.12508620115E+03 0.  0.
          5    1    3    3  502    0  0.27930525206E+02 -0.10524410964E+02  0.92794680826E+02  0.97566401256E+02  0.41800000000E+01 0. -1.
         -5    1    3    3    0  502 -0.11770196492E+03 -0.46238816196E+01  0.15826180031E+03  0.19733069367E+03  0.41800000000E+01 0. -1.
        -11    1    1    2    0    0  0.56001959804E+02  0.15785735838E+02  0.26381527005E+02  0.63885788130E+02  0.00000000000E+00 0. -1.
         11    1    1    2    0    0  0.33769479911E+02 -0.63744325460E+00  0.13162480779E+03  0.13588919800E+03  0.00000000000E+00 0.  1.
</event>
<event>
 7    1  0.2688177E-009  0.1752884E+03  0.7561462E-02  0.1172442E+00
         -1   -1    0    0    0  501 -0.00000000000E+00  0.00000000000E+00  0.15943691469E+03  0.15943691469E+03  0.00000000000E+00 0.  1.
          1   -1    0    0  501    0  0.00000000000E+00 -0.00000000000E+00 -0.22089421884E+03  0.22089421884E+03  0.00000000000E+00 0. -1.
         25    2    1    2    0    0  0.58485322523E+02 -0.13216747988E+03 -0.81292441953E+02  0.20771330178E+03  0.12509028312E+03 0.  0.
          5    1    3    3  502    0 -0.65221663095E+01 -0.11425906962E+03 -0.80794148148E+02  0.14015291798E+03  0.41800000000E+01 0.  1.
         -5    1    3    3    0  502  0.65007488833E+02 -0.17908410256E+02 -0.49829380422E+00  0.67560383798E+02  0.41800000000E+01 0.  1.
        -11    1    1    2    0    0  0.21339996420E+02  0.47817585242E+02  0.21159204876E+02  0.56476799277E+02  0.00000000000E+00 0.  1.
         11    1    1    2    0    0 -0.79825318944E+02  0.84349894637E+02 -0.13240670709E+01  0.11614103247E+03  0.00000000000E+00 0. -1.
</event>
<event>
 7    1  0.2688177E-009  0.1268660E+03  0.7561462E-02  0.1232181E+00
         -2   -1    0    0    0  501 -0.00000000000E+00  0.00000000000E+00  0.37091560173E+02  0.37091560173E+02  0.00000000000E+00 0.  1.
          2   -1    0    0  501    0  0.00000000000E+00 -0.00000000000E+00 -0.11092478835E+04  0.11092478835E+04  0.00000000000E+00 0. -1.
         25    2    1    2    0    0 -0.95605346828E+02  0.15004893201E+02 -0.96362073526E+03  0.97651290919E+03  0.12508801396E+03 0.  0.
          5    1    3    3  502    0 -0.11811922754E+03 -0.14339448366E+02 -0.79227446248E+03  0.80117043629E+03  0.41800000000E+01 0. -1.
         -5    1    3    3    0  502  0.22513880713E+02  0.29344341567E+02 -0.17134627278E+03  0.17534247290E+03  0.41800000000E+01 0. -1.
        -11    1    1    2    0    0  0.17569987387E+02 -0.73342293072E+01  0.14497809818E+02  0.23930772362E+02  0.00000000000E+00 0.  1.
         11    1    1    2    0    0  0.78035359441E+02 -0.76706638933E+01 -0.12303339786E+03  0.14589576210E+03  0.00000000000E+00 0. -1.
</event>
<event>
 7    1  0.2688177E-009  0.1584621E+03  0.7561462E-02  0.1190444E+00
          1   -1    0    0  501    0  0.00000000000E+00  0.00000000000E+00  0.48621957891E+03  0.48621957891E+03  0.00000000000E+00 0. -1.
         -1   -1    0    0    0  501 -0.00000000000E+00 -0.00000000000E+00 -0.56457900433E+02  0.56457900433E+02  0.00000000000E+00 0.  1.
         25    2    1    2    0    0 -0.11727685487E+03 -0.39779154214E+02  0.24568377693E+03  0.30223146488E+03  0.12508836203E+03 0.  0.
          5    1    3    3  502    0 -0.18876357791E+02 -0.69923695949E+02  0.90727387655E+02  0.11616613710E+03  0.41800000000E+01 0.  1.
         -5    1    3    3    0  502 -0.98400497080E+02  0.30144541734E+02  0.15495638928E+03  0.18606532778E+03  0.41800000000E+01 0.  1.
        -11    1    1    2    0    0  0.75589935109E+02  0.58595077758E+02  0.72989518344E+02  0.12031081088E+03  0.00000000000E+00 0.  1.
         11    1    1    2    0    0  0.41686919761E+02 -0.18815923544E+02  0.11108838320E+03  0.12013520358E+03  0.00000000000E+00 0. -1.
</event>
<event>
 7    1  0.2688177E-009  0.1735267E+03  0.7561462E-02  0.1174219E+00
          1   -1    0    0  501    0  0.00000000000E+00  0.00000000000E+00  0.68306108711E+02  0.68306108711E+02  0.00000000000E+00 0. -1.
         -1   -1    0    0    0  501 -0.00000000000E+00 -0.00000000000E+00 -0.50057554608E+03  0.50057554608E+03  0.00000000000E+00 0.  1.
         25    2    1    2    0    0  0.32590480715E+02  0.14383777458E+03 -0.18108453248E+03  0.26493329444E+03  0.12508636126E+03 0.  0.
          5    1    3    3  502    0  0.51390528595E+02  0.58311290705E+01 -0.32472122654E+02  0.61211924044E+02  0.41800000000E+01 0. -1.
         -5    1    3    3    0  502 -0.18800047880E+02  0.13800664551E+03 -0.14861240982E+03  0.20372137040E+03  0.41800000000E+01 0. -1.
        -11    1    1    2    0    0 -0.42807422311E+02 -0.76075328159E+02 -0.75650966887E+02  0.11551190307E+03  0.00000000000E+00 0.  1.
         11    1    1    2    0    0  0.10216941595E+02 -0.67762446417E+02 -0.17553393800E+03  0.18843645728E+03  0.00000000000E+00 0. -1.
</event>
<event>
 7    1  0.2688177E-009  0.5083295E+02  0.7561462E-02  0.1440900E+00
          4   -1    0    0  501    0  0.00000000000E+00  0.00000000000E+00  0.27225079139E+03  0.27225079139E+03  0.00000000000E+00 0. -1.
         -4   -1    0    0    0  501 -0.00000000000E+00 -0.00000000000E+00 -0.30867894247E+02  0.30867894247E+02  0.00000000000E+00 0.  1.
         25    2    1    2    0    0  0.14726465384E+01  0.21924694184E+02  0.13318507124E+03  0.18403376971E+03  0.12508918534E+03 0.  0.
          5    1    3    3  502    0 -0.22467345403E+02 -0.94306111391E+01  0.14138034561E+03  0.14352558155E+03  0.41800000000E+01 0.  1.
         -5    1    3    3    0  502  0.23939991942E+02  0.31355305323E+02 -0.81952743634E+01  0.40508188160E+02  0.41800000000E+01 0.  1.
        -11    1    1    2    0    0 -0.15755436807E+02 -0.13045688511E+02  0.17738109571E+02  0.27075160366E+02  0.00000000000E+00 0.  1.
         11    1    1    2    0    0  0.14282790269E+02 -0.88790056733E+01  0.90459716327E+02  0.92009755557E+02  0.00000000000E+00 0. -1.
</event>
<event>
 7    1  0.2688177E-009  0.1107011E+03  0.7561462E-02  0.1259277E+00
         -3   -1    0    0    0  501 -0.00000000000E+00  0.00000000000E+00  0.25240099854E+03  0.25240099854E+03  0.00000000000E+00 0.  1.
          3   -1    0    0  501    0  0.00000000000E+00 -0.00000000000E+00 -0.52817616370E+02  0.52817616370E+02  0.00000000000E+00 0. -1.
         25    2    1    2    0    0 -0.15112305727E+02 -0.68647412720E+02  0.90262937494E+02  0.16951720046E+03  0.12509130389E+03 0.  0.
          5    1    3    3  502    0 -0.41465983293E+02  0.23253932202E+02  0.32476903324E+02  0.57726898261E+02  0.41800000000E+01 0. -1.
         -5    1    3    3    0  502  0.26353677566E+02 -0.91901344922E+02  0.57786034170E+02  0.11179030220E+03  0.41800000000E+01 0. -1.
        -11    1    1    2    0    0  0.26051850365E+02  0.48757335185E+02  0.91241944318E+02  0.10668209336E+03  0.00000000000E+00 0.  1.
         11    1    1    2    0    0 -0.10939544638E+02  0.19890077536E+02  0.18078500355E+02  0.29019321087E+02  0.00000000000E+00 0. -1.
</event>
<event>
 7    1  0.2688177E-009  0.9410804E+02  0.7561462E-02  0.1293198E+00
          2   -1    0    0  501    0  0.00000000000E+00  0.00000000000E+00  0.21051690245E+03  0.21051690245E+03  0.00000000000E+00 0. -1.
         -2   -1    0    0    0  501 -0.00000000000E+00 -0.00000000000E+00 -0.80039504830E+02  0.80039504830E+02  0.00000000000E+00 0.  1.
         25    2    1    2    0    0 -0.29379021712E+02  0.16880120307E+02  0.14297750086E+03  0.19297685342E+03  0.12509770112E+03 0.  0.
          5    1    3    3  502    0 -0.76671088903E+01 -0.47091017305E+02  0.18606424830E+02  0.51381124107E+02  0.41800000000E+01 0. -1.
         -5    1    3    3    0  502 -0.21711912821E+02  0.63971137613E+02  0.12437107603E+03  0.14159572931E+03  0.41800000000E+01 0. -1.
        -11    1    1    2    0    0 -0.11100708762E+02 -0.28448419241E+02  0.26318825004E+02  0.40314003050E+02  0.00000000000E+00 0. -1.
         11    1    1    2    0    0  0.40479730473E+02  0.11568298933E+02 -0.38818928248E+02  0.57265550811E+02  0.00000000000E+00 0.  1.
</event>
<event>
 7    1  0.2688177E-009  0.1161835E+03  0.7561462E-02  0.1249529E+00
         -1   -1    0    0    0  501 -0.00000000000E+00  0.00000000000E+00  0.35739720926E+02  0.35739720926E+02  0.00000000000E+00 0.  1.
          1   -1    0    0  501    0  0.00000000000E+00 -0.00000000000E+00 -0.57562494027E+03  0.57562494027E+03  0.00000000000E+00 0. -1.
         25    2    1    2    0    0  0.28998965968E+01 -0.10473487925E+03 -0.31135844274E+03  0.35152400420E+03  0.12508893368E+03 0.  0.
          5    1    3    3  502    0  0.16681850761E+02 -0.10109768588E+03 -0.31881584482E+03  0.33490303305E+03  0.41800000000E+01 0.  1.
         -5    1    3    3    0  502 -0.13781954165E+02 -0.36371933678E+01  0.74574020793E+01  0.16620971150E+02  0.41800000000E+01 0.  1.
        -11    1    1    2    0    0  0.15311840287E+02  0.90666173694E+02 -0.13373625480E+03  0.16229662151E+03  0.00000000000E+00 0.  1.
         11    1    1    2    0    0 -0.18211736883E+02  0.14068705556E+02 -0.94790521802E+02  0.97544035491E+02  0.00000000000E+00 0. -1.
</event>
<event>
 7    1  0.2688177E-009  0.1212421E+03  0.7561462E-02  0.1241062E+00
         -1   -1    0    0    0  501 -0.00000000000E+00  0.00000000000E+00  0.89570739328E+02  0.89570739328E+02  0.00000000000E+00 0.  1.
          1   -1    0    0  501    0  0.00000000000E+00 -0.00000000000E+00 -0.37576213600E+03  0.37576213600E+03  0.00000000000E+00 0. -1.
         25    2    1    2    0    0 -0.19330136968E+02 -0.51572123134E+02  0.22701380541E+02  0.13854602118E+03  0.12508520786E+03 0.  0.
          5    1    3    3  502    0 -0.65542289343E+02  0.16555653740E+01  0.15992636716E+02  0.67614860927E+02  0.41800000000E+01 0.  1.
         -5    1    3    3    0  502  0.46212152375E+02 -0.53227688508E+02  0.67087438251E+01  0.70931160253E+02  0.41800000000E+01 0.  1.
        -11    1    1    2    0    0  0.72549046603E+01  0.77360172593E+02 -0.21169574503E+03  0.22550458622E+03  0.00000000000E+00 0.  1.
         11    1    1    2    0    0  0.12075232308E+02 -0.25788049458E+02 -0.97197032182E+02  0.10128226792E+03  0.00000000000E+00 0. -1.
</event>
<event>
 7    1  0.2688177E-009  0.1335778E+03  0.7561462E-02  0.1222241E+00
         -1   -1    0    0    0  501 -0.00000000000E+00  0.00000000000E+00  0.48371496116E+02  0.48371496116E+02  0.00000000000E+00 0.  1.
          1   -1    0    0  501    0  0.00000000000E+00 -0.00000000000E+00 -0.51228777203E+03  0.51228777203E+03  0.00000000000E+00 0. -1.
         25    2    1    2    0    0  0.70760557010E+02 -0.86904842300E+02 -0.28851640964E+03  0.33382919116E+03  0.12506279301E+03 0.  0.
          5    1    3    3  502    0 -0.14517196742E+02  0.15562017667E+02 -0.10350935409E+03  0.10575719446E+03  0.41800000000E+01 0.  1.
         -5    1    3    3    0  502  0.85277753751E+02 -0.10246685997E+03 -0.18500705555E+03  0.22807199670E+03  0.41800000000E+01 0.  1.
        -11    1    1    2    0    0 -0.17421500239E+02  0.19919138851E+02  0.51909741552E+01  0.26967146231E+02  0.00000000000E+00 0.  1.
         11    1    1    2    0    0 -0.53339056770E+02  0.66985703449E+02 -0.18059084043E+03  0.19986293076E+03  0.00000000000E+00 0. -1.
</event>
<event>
 7    1  0.2688177E-009  0.1050113E+03  0.7561462E-02  0.1270097E+00
         -3   -1    0    0    0  501 -0.00000000000E+00  0.00000000000E+00  0.18336332847E+02  0.18336332847E+02  0.00000000000E+00 0.  1.
          3   -1    0    0  501    0  0.00000000000E+00 -0.00000000000E+00 -0.12178803910E+04  0.12178803910E+04  0.00000000000E+00 0. -1.
         25    2    1    2    0    0  0.60066657466E+02 -0.32966300199E+01 -0.99271361748E+03  0.10023705905E+04  0.12509038047E+03 0.  0.
          5    1    3    3  502    0 -0.13926403870E+01  0.30475699130E+02 -0.72308102625E+03  0.72373638198E+03  0.41800000000E+01 0. -1.
         -5    1    3    3    0  502  0.61459297853E+02 -0.33772329150E+02 -0.26963259124E+03  0.27863420853E+03  0.41800000000E+01 0. -1.
        -11    1    1    2    0    0 -0.23068496626E+02 -0.43550762489E+02 -0.99289518786E+02  0.11084779200E+03  0.00000000000E+00 0.  1.
         11    1    1    2    0    0 -0.36998160840E+02  0.46847392509E+02 -0.10754092186E+03  0.12299834131E+03  0.00000000000E+00 0. -1.
</event>
<event>
 7    1  0.2688177E-009  0.1180975E+03  0.7561462E-02  0.1246269E+00
          2   -1    0    0  501    0  0.00000000000E+00  0.00000000000E+00  0.79913574589E+02  0.79913574589E+02  0.00000000000E+00 0. -1.
         -2   -1    0    0    0  501 -0.00000000000E+00 -0.00000000000E+00 -0.18134277535E+03  0.18134277535E+03  0.00000000000E+00 0.  1.
         25    2    1    2    0    0  0.51820441801E+02  0.14013452242E+02 -0.44060868104E+02  0.14307774379E+03  0.12509254830E+03 0.  0.
          5    1    3    3  502    0 -0.11890071683E+01  0.62820736349E+02 -0.12019768853E+02  0.64107767835E+02  0.41800000000E+01 0.  1.
         -5    1    3    3    0  502  0.53009448969E+02 -0.48807284107E+02 -0.32041099250E+02  0.78969975960E+02  0.41800000000E+01 0.  1.
        -11    1    1    2    0    0  0.23840397083E+02  0.12024303862E+01 -0.24771982825E+02  0.34401475331E+02  0.00000000000E+00 0.  1.
         11    1    1    2    0    0 -0.75660838883E+02 -0.15215882628E+02 -0.32596349829E+02  0.83777130811E+02  0.00000000000E+00 0. -1.
</event>
<event>
 7    1  0.2688177E-009  0.8307910E+02  0.7561462E-02  0.1320534E+00
         -2   -1    0    0    0  501 -0.00000000000E+00  0.00000000000E+00  0.99347768199E+02  0.99347768199E+02  0.00000000000E+00 0.  1.
          2   -1    0    0  501    0  0.00000000000E+00 -0.00000000000E+00 -0.14720871608E+03  0.14720871608E+03  0.00000000000E+00 0. -1.
         25    2    1    2    0    0 -0.38323625536E+02  0.38841043804E+01 -0.73080291232E+02  0.14990641492E+03  0.12508963876E+03 0.  0.
          5    1    3    3  502    0 -0.46790592750E+02 -0.22435091054E+02  0.17646278338E+02  0.54968685811E+02  0.41800000000E+01 0. -1.
         -5    1    3    3    0  502  0.84669672145E+01  0.26319195435E+02 -0.90726569570E+02  0.94937729108E+02  0.41800000000E+01 0. -1.
        -11    1    1    2    0    0  0.93197741525E+01  0.35794702202E+02  0.29504976722E+02  0.47314506732E+02  0.00000000000E+00 0. -1.
         11    1    1    2    0    0  0.29003851383E+02 -0.39678806582E+02 -0.42856333751E+01  0.49335562633E+02  0.00000000000E+00 0.  1.
</event>
<event>
 7    1  0.2688177E-009  0.1275243E+03  0.7561462E-02  0.1231176E+00
         -1   -1    0    0    0  501 -0.00000000000E+00  0.00000000000E+00  0.10015057738E+03  0.10015057738E+03  0.00000000000E+00 0.  1.
          1   -1    0    0  501    0  0.00000000000E+00 -0.00000000000E+00 -0.23225840438E+03  0.23225840438E+03  0.00000000000E+00 0. -1.
         25    2    1    2    0    0  0.20500758672E+02  0.88716360773E+02 -0.11455034759E+02  0.15514380931E+03  0.12509000748E+03 0.  0.
          5    1    3    3  502    0 -0.60526059063E+00  0.10534176581E+03 -0.42681184080E+02  0.11373833935E+03  0.41800000000E+01 0. -1.
         -5    1    3    3    0  502  0.21106019263E+02 -0.16625405033E+02  0.31226149321E+02  0.41405469965E+02  0.41800000000E+01 0. -1.
        -11    1    1    2    0    0  0.24677232377E+02 -0.68737350514E+02 -0.41606504663E+02  0.84052902292E+02  0.00000000000E+00 0.  1.
         11    1    1    2    0    0 -0.45177991049E+02 -0.19979010259E+02 -0.79046287579E+02  0.93212270148E+02  0.00000000000E+00 0. -1.
</event>
<event>
 7    1  0.2688177E-009  0.1184261E+03  0.7561462E-02  0.1245716E+00
          1   -1    0    0  501    0  0.00000000000E+00  0.00000000000E+00  0.67773162614E+03  0.67773162614E+03  0.00000000000E+00 0. -1.
         -1   -1    0    0    0  501 -0.00000000000E+00 -0.00000000000E+00 -0.25948409289E+02  0.25948409289E+02  0.00000000000E+00 0.  1.
         25    2    1    2    0    0 -0.31943871398E+02 -0.28010695098E+02  0.27333603497E+03  0.30358606925E+03  0.12508758321E+03 0.  0.
          5    1    3    3  502    0 -0.62449368513E+02  0.21223615744E+02  0.19622198720E+03  0.20705290665E+03  0.41800000000E+01 0. -1.
         -5    1    3    3    0  502  0.30505497116E+02 -0.49234310843E+02  0.77114047769E+02  0.96533162601E+02  0.41800000000E+01 0. -1.
        -11    1    1    2    0    0 -0.34199011422E+02  0.31448909487E+02  0.26235657399E+03  0.26643869502E+03  0.00000000000E+00 0. -1.
         11    1    1    2    0    0  0.66142882820E+02 -0.34382143889E+01  0.11609060790E+03  0.13365527116E+03  0.00000000000E+00 0.  1.
</event>
<event>
 7    1  0.2688177E-009  0.1236581E+03  0.7561462E-02  0.1237181E+00
          2   -1    0    0  501    0  0.00000000000E+00  0.00000000000E+00  0.19874284683E+03  0.19874284683E+03  0.00000000000E+00 0. -1.
         -2   -1    0    0    0  501 -0.00000000000E+00 -0.00000000000E+00 -0.10262189634E+03  0.10262189634E+03  0.00000000000E+00 0.  1.
         25    2    1    2    0    0  0.76074869813E+02  0.48562246459E+02  0.74618977519E+02  0.17135073978E+03  0.12508959436E+03 0.  0.
          5    1    3    3  502    0 -0.31965088955E+01  0.44346218614E+02  0.80058595561E+02  0.91671456287E+02  0.41800000000E+01 0. -1.
         -5    1    3    3    0  502  0.79271378709E+02  0.42160278459E+01 -0.54396180424E+01  0.79679283491E+02  0.41800000000E+01 0. -1.
        -11    1    1    2    0    0 -0.51287423600E+02  0.16229612220E+02 -0.84480830727E+01  0.54453376754E+02  0.00000000000E+00 0. -1.
         11    1    1    2    0    0 -0.24787446213E+02 -0.64791858679E+02  0.29950056037E+02  0.75560626635E+02  0.00000000000E+00 0.  1.
</event>
<event>
 7    1  0.2688177E-009  0.1102182E+03  0.7561462E-02  0.1260166E+00
         -1   -1    0    0    0  501 -0.00000000000E+00  0.00000000000E+00  0.40521031993E+02  0.40521031993E+02  0.00000000000E+00 0.  1.
          1   -1    0    0  501    0  0.00000000000E+00 -0.00000000000E+00 -0.39519911668E+03  0.39519911668E+03  0.00000000000E+00 0. -1.
         25    2    1    2    0    0  0.15567220369E+02  0.51882328872E+02 -0.14830983490E+03  0.20143855899E+03  0.12509025350E+03 0.  0.
          5    1    3    3  502    0 -0.54134002104E+02  0.11008206809E+02 -0.59446070407E+02  0.81258713304E+02  0.41800000000E+01 0.  1.
         -5    1    3    3    0  502  0.69701222473E+02  0.40874122063E+02 -0.88863764493E+02  0.12017984568E+03  0.41800000000E+01 0.  1.
        -11    1    1    2    0    0  0.21524085881E+02 -0.39569823428E+02 -0.31171645161E+02  0.54778907082E+02  0.00000000000E+00 0.  1.
         11    1    1    2    0    0 -0.37091306249E+02 -0.12312505444E+02 -0.17519660463E+03  0.17950268261E+03  0.00000000000E+00 0. -1.
</event>
<event>
 7    1  0.2688177E-009  0.1229991E+03  0.7561462E-02  0.1238230E+00
         -2   -1    0    0    0  501 -0.00000000000E+00  0.00000000000E+00  0.15276988859E+02  0.15276988859E+02  0.00000000000E+00 0.  1.
          2   -1    0    0  501    0  0.00000000000E+00 -0.00000000000E+00 -0.10557696374E+04  0.10557696374E+04  0.00000000000E+00 0. -1.
         25    2    1    2    0    0  0.50599321520E+02  0.34258285111E+02 -0.47238806009E+03  0.49247301050E+03  0.12508103500E+03 0.  0.
          5    1    3    3  502    0 -0.39528202566E+02 -0.50644547548E+00 -0.18608443480E+03  0.19028301175E+03  0.41800000000E+01 0.  1.
         -5    1    3    3    0  502  0.90127524087E+02  0.34764730587E+02 -0.28630362529E+03  0.30218999875E+03  0.41800000000E+01 0.  1.
        -11    1    1    2    0    0  0.65320371260E+01 -0.49897076846E+02 -0.26476724990E+03  0.26950711012E+03  0.00000000000E+00 0. -1.
         11    1    1    2    0    0 -0.57131358646E+02  0.15638791735E+02 -0.30333733851E+03  0.30906650559E+03  0.00000000000E+00 0.  1.
</event>
<event>
 7    1  0.2688177E-009  0.1119580E+03  0.7561462E-02  0.1256986E+00
         -1   -1    0    0    0  501 -0.00000000000E+00  0.00000000000E+00  0.12678912118E+03  0.12678912118E+03  0.00000000000E+00 0.  1.
          1   -1    0    0  501    0  0.00000000000E+00 -0.00000000000E+00 -0.13532770779E+03  0.13532770779E+03  0.00000000000E+00 0. -1.
         25    2    1    2    0    0 -0.10752774364E+02  0.62152735363E+02 -0.43223642506E+02  0.14661546104E+03  0.12509686437E+03 0.  0.
          5    1    3    3  502    0  0.49507823505E+02 -0.27940413452E+01 -0.26423939844E+02  0.56342952107E+02  0.41800000000E+01 0.  1.
         -5    1    3    3    0  502 -0.60260597869E+02  0.64946776708E+02 -0.16799702662E+02  0.90272508937E+02  0.41800000000E+01 0.  1.
        -11    1    1    2    0    0  0.34457610562E+02 -0.31307973966E+02  0.54636497319E+02  0.71782052066E+02  0.00000000000E+00 0.  1.
         11    1    1    2    0    0 -0.23704836198E+02 -0.30844761397E+02 -0.19951441416E+02  0.43719315862E+02  0.00000000000E+00 0. -1.
</event>
<event>
 7    1  0.2688177E-009  0.9037943E+02  0.7561462E-02  0.1301935E+00
         -3   -1    0    0    0  501 -0.00000000000E+00  0.00000000000E+00  0.11137010543E+03  0.11137010543E+03  0.00000000000E+00 0.  1.
          3   -1    0    0  501    0  0.00000000000E+00 -0.00000000000E+00 -0.12507267018E+03  0.12507267018E+03  0.00000000000E+00 0. -1.
         25    2    1    2    0    0 -0.26357844889E+02 -0.38985473554E+02 -0.10437361058E+02  0.13405642674E+03  0.12509030301E+03 0.  0.
          5    1    3    3  502    0 -0.73285250889E+02 -0.33350808781E+02  0.12097581096E+02  0.81528082969E+02  0.41800000000E+01 0.  1.
         -5    1    3    3    0  502  0.46927406000E+02 -0.56346647730E+01 -0.22534942154E+02  0.52528343767E+02  0.41800000000E+01 0.  1.
        -11    1    1    2    0    0  0.88538433246E+01  0.33028295859E+02  0.41606167206E+02  0.53854730698E+02  0.00000000000E+00 0.  1.
         11    1    1    2    0    0  0.17504001564E+02  0.59571776945E+01 -0.44871370899E+02  0.48531618180E+02  0.00000000000E+00 0. -1.
</event>
<event>
 7    1  0.2688177E-009  0.1232021E+03  0.7561462E-02  0.1237906E+00
         -2   -1    0    0    0  501 -0.00000000000E+00  0.00000000000E+00  0.13769857425E+03  0.13769857425E+03  0.00000000000E+00 0.  1.
          2   -1    0    0  501    0  0.00000000000E+00 -0.00000000000E+00 -0.17600339199E+03  0.17600339199E+03  0.00000000000E+00 0. -1.
         25    2    1    2    0    0 -0.85506728201E+02 -0.17018995960E+02 -0.91456105966E+02  0.17780065388E+03  0.12509119238E+03 0.  0.
          5    1    3    3  502    0  0.81530816116E+01 -0.42170773540E+02  0.18025874371E+01  0.43192228493E+02  0.41800000000E+01 0.  1.
         -5    1    3    3    0  502 -0.93659809813E+02  0.25151777580E+02 -0.93258693404E+02  0.13460842539E+03  0.41800000000E+01 0.  1.
        -11    1    1    2    0    0  0.82463287223E+02 -0.62634689547E+01  0.68889278812E+02  0.10763436960E+03  0.00000000000E+00 0.  1.
         11    1    1    2    0    0  0.30434409783E+01  0.23282464915E+02 -0.15737990581E+02  0.28266942761E+02  0.00000000000E+00 0. -1.
</event>
<event>
 7    1  0.2688177E-009  0.1260728E+03  0.7561462E-02  0.1233402E+00
          1   -1    0    0  501    0  0.00000000000E+00  0.00000000000E+00  0.13599449033E+04  0.13599449033E+04  0.00000000000E+00 0. -1.
         -1   -1    0    0    0  501 -0.00000000000E+00 -0.00000000000E+00 -0.13652490682E+02  0.13652490682E+02  0.00000000000E+00 0.  1.
         25    2    1    2    0    0  0.81947775856E+02  0.53847100375E+01  0.76166692337E+03  0.77622728765E+03  0.12509143404E+03 0.  0.
          5    1    3    3  502    0  0.62594044222E+02 -0.45108814537E+02  0.24934723673E+03  0.26104470190E+03  0.41800000000E+01 0. -1.
         -5    1    3    3    0  502  0.19353731634E+02  0.50493524575E+02  0.51231968664E+03  0.51518258576E+03  0.41800000000E+01 0. -1.
        -11    1    1    2    0    0 -0.99611005821E+02  0.57233403521E+01  0.51912601557E+03  0.52862740106E+03  0.00000000000E+00 0.  1.
         11    1    1    2    0    0  0.17663229964E+02 -0.11108050390E+02  0.65499473676E+02  0.68742705272E+02  0.00000000000E+00 0. -1.
</event>
<event>
 7    1  0.2688177E-009  0.1472766E+03  0.7561462E-02  0.1203860E+00
          3   -1    0    0  501    0  0.00000000000E+00  0.00000000000E+00  0.15632200912E+03  0.15632200912E+03  0.00000000000E+00 0. -1.
         -3   -1    0    0    0  501 -0.00000000000E+00 -0.00000000000E+00 -0.14980830347E+03  0.14980830347E+03  0.00000000000E+00 0.  1.
         25    2    1    2    0    0  0.93075730162E+02 -0.49601315559E+01 -0.93257659555E+01  0.15627509356E+03  0.12508893039E+03 0.  0.
          5    1    3    3  502    0 -0.86468574591E+01 -0.43287872399E+02  0.10819481065E+02  0.45641446201E+02  0.41800000000E+01 0. -1.
         -5    1    3    3    0  502  0.10172258762E+03  0.38327740843E+02 -0.20145247020E+02  0.11063364736E+03  0.41800000000E+01 0. -1.
        -11    1    1    2    0    0  0.23251328817E+02 -0.75122589595E+01  0.21749343267E+02  0.32712264657E+02  0.00000000000E+00 0. -1.
         11    1    1    2    0    0 -0.11632705898E+03  0.12472390515E+02 -0.59098716635E+01  0.11714295437E+03  0.00000000000E+00 0.  1.
</event>
<event>
 7    1  0.2688177E-009  0.1267981E+03  0.7561462E-02  0.1232286E+00
          2   -1    0    0  501    0  0.00000000000E+00  0.00000000000E+00  0.21332757991E+02  0.21332757991E+02  0.00000000000E+00 0. -1.
         -2   -1    0    0    0  501 -0.00000000000E+00 -0.00000000000E+00 -0.98431710942E+03  0.98431710942E+03  0.00000000000E+00 0.  1.
         25    2    1    2    0    0 -0.74713508547E+02  0.23801871763E+01 -0.73726296320E+03  0.75152649646E+03  0.12509046452E+03 0.  0.
          5    1    3    3  502    0  0.84235040106E+01 -0.46881507359E+02 -0.20091075045E+03  0.20652223415E+03  0.41800000000E+01 0. -1.
         -5    1    3    3    0  502 -0.83137012558E+02  0.49261694535E+02 -0.53635221275E+03  0.54500426230E+03  0.41800000000E+01 0. -1.
        -11    1    1    2    0    0 -0.10788699109E+02  0.18157131420E+02 -0.15337898141E+02  0.26102271342E+02  0.00000000000E+00 0. -1.
         11    1    1    2    0    0  0.85502207656E+02 -0.20537318596E+02 -0.21038349008E+03  0.22802109961E+03  0.00000000000E+00 0.  1.
</event>
<event>
 7    1  0.2688177E-009  0.9915073E+02  0.7561462E-02  0.1282092E+00
          3   -1    0    0  501    0  0.00000000000E+00  0.00000000000E+00  0.29278279524E+03  0.29278279524E+03  0.00000000000E+00 0. -1.
         -3   -1    0    0    0  501 -0.00000000000E+00 -0.00000000000E+00 -0.60643745703E+02  0.60643745703E+02  0.00000000000E+00 0.  1.
         25    2    1    2    0    0  0.75356471266E+02  0.62885427312E+01  0.11071955344E+03  0.18337084117E+03  0.12509157584E+03 0.  0.
          5    1    3    3  502    0  0.64204676975E+02 -0.65400042107E+01 -0.63654027876E+01  0.64984636286E+02  0.41800000000E+01 0. -1.
         -5    1    3    3    0  502  0.11151794290E+02  0.12828546942E+02  0.11708495622E+03  0.11838620488E+03  0.41800000000E+01 0. -1.
        -11    1    1    2    0    0 -0.44126315664E+02 -0.47227351144E+02  0.48584675073E+02  0.80858055147E+02  0.00000000000E+00 0. -1.
         11    1    1    2    0    0 -0.31230155602E+02  0.40938808413E+02  0.72834821030E+02  0.89197644631E+02  0.00000000000E+00 0.  1.
</event>
<event>
 7    1  0.2688177E-009  0.1187650E+03  0.7561462E-02  0.1245148E+00
         -2   -1    0    0    0  501 -0.00000000000E+00  0.00000000000E+00  0.99204168671E+02  0.99204168671E+02  0.00000000000E+00 0.  1.
          2   -1    0    0  501    0  0.00000000000E+00 -0.00000000000E+00 -0.24677874667E+03  0.24677874667E+03  0.00000000000E+00 0. -1.
         25    2    1    2    0    0 -0.10738264651E+03  0.31280123575E+02 -0.79197435817E+02  0.18555211191E+03  0.12509146051E+03 0.  0.
          5    1    3    3  502    0 -0.95340724442E+02  0.24631845633E+02  0.63888852813E+01  0.98766754586E+02  0.41800000000E+01 0.  1.
         -5    1    3    3    0  502 -0.12041922071E+02  0.66482779428E+01 -0.85586321099E+02  0.86785357325E+02  0.41800000000E+01 0.  1.
        -11    1    1    2    0    0  0.11075038620E+03 -0.19642770746E+02 -0.24772508906E+02  0.11517449233E+03  0.00000000000E+00 0.  1.
         11    1    1    2    0    0 -0.33677396857E+01 -0.11637352829E+02 -0.43604633279E+02  0.45256311105E+02  0.00000000000E+00 0. -1.
</event>
<event>
 7    1  0.2688177E-009  0.1574438E+03  0.7561462E-02  0.1191613E+00
          2   -1    0    0  501    0  0.00000000000E+00  0.00000000000E+00  0.14426011512E+03  0.14426011512E+03  0.00000000000E+00 0. -1.
         -2   -1    0    0    0  501 -0.00000000000E+00 -0.00000000000E+00 -0.21142022813E+03  0.21142022813E+03  0.00000000000E+00 0.  1.
         25    2    1    2    0    0  0.81406502873E+02 -0.91428657686E+02  0.25206936140E+02  0.17683199273E+03  0.12509174979E+03 0.  0.
          5    1    3    3  502    0  0.56276166681E+02 -0.12243072158E+03  0.17038806791E+02  0.13588260323E+03  0.41800000000E+01 0.  1.
         -5    1    3    3    0  502  0.25130336192E+02  0.31002063898E+02  0.81681293489E+01  0.40949389496E+02  0.41800000000E+01 0.  1.
        -11    1    1    2    0    0 -0.13284673446E+02  0.65863760788E+02 -0.83543804632E+01  0.67707556496E+02  0.00000000000E+00 0. -1.
         11    1    1    2    0    0 -0.68121829426E+02  0.25564896898E+02 -0.84012668689E+02  0.11114079403E+03  0.00000000000E+00 0.  1.
</event>
<event>
 7    1  0.2688177E-009  0.1850632E+03  0.7561462E-02  0.1162991E+00
         -4   -1    0    0    0  501 -0.00000000000E+00  0.00000000000E+00  0.24486538834E+03  0.24486538834E+03  0.00000000000E+00 0.  1.
          4   -1    0    0  501    0  0.00000000000E+00 -0.00000000000E+00 -0.18181427090E+03  0.18181427090E+03  0.00000000000E+00 0. -1.
         25    2    1    2    0    0 -0.14253457171E+03  0.76097865723E+02  0.75741674718E+02  0.21792730431E+03  0.12509404212E+03 0.  0.
          5    1    3    3  502    0 -0.54864439689E+02 -0.29229467890E+02  0.46489017989E+02  0.77737826887E+02  0.41800000000E+01 0. -1.
         -5    1    3    3    0  502 -0.87670132025E+02  0.10532733361E+03  0.29252656729E+02  0.14018947743E+03  0.41800000000E+01 0. -1.
        -11    1    1    2    0    0  0.55838963080E+02 -0.73289502345E+00  0.52519217530E+02  0.76660257910E+02  0.00000000000E+00 0.  1.
         11    1    1    2    0    0  0.86695608634E+02 -0.75364970700E+02 -0.65209774807E+02  0.13209209702E+03  0.00000000000E+00 0. -1.
</event>
<event>
 7    1  0.2688177E-009  0.1041254E+03  0.7561462E-02  0.1271852E+00
          2   -1    0    0  501    0  0.00000000000E+00  0.00000000000E+00  0.21480369168E+03  0.21480369168E+03  0.00000000000E+00 0. -1.
         -2   -1    0    0    0  501 -0.00000000000E+00 -0.00000000000E+00 -0.60284682521E+02  0.60284682521E+02  0.00000000000E+00 0.  1.
         25    2    1    2    0    0  0.44692589922E+00  0.37681557632E+02  0.51946264238E+02  0.14059285469E+03  0.12509131422E+03 0.  0.
          5    1    3    3  502    0  0.49992032607E+02  0.49719695287E+02  0.54738597083E+02  0.89359038906E+02  0.41800000000E+01 0. -1.
         -5    1    3    3    0  502 -0.49545106708E+02 -0.12038137655E+02 -0.27923328443E+01  0.51233815783E+02  0.41800000000E+01 0. -1.
        -11    1    1    2    0    0  0.29468284594E+02 -0.46697328171E+02  0.58199695051E+02  0.80226085280E+02  0.00000000000E+00 0.  1.
         11    1    1    2    0    0 -0.29915210493E+02  0.90157705393E+01  0.44373049870E+02  0.54269434233E+02  0.00000000000E+00 0. -1.
</event>
<event>
 7    1  0.2688177E-009  0.3042233E+03  0.7561462E-02  0.1083148E+00
         -2   -1    0    0    0  501 -0.00000000000E+00  0.00000000000E+00  0.14327373547E+03  0.14327373547E+03  0.00000000000E+00 0.  1.
          2   -1    0    0  501    0  0.00000000000E+00 -0.00000000000E+00 -0.72271276809E+03  0.72271276809E+03  0.00000000000E+00 0. -1.
         25    2    1    2    0    0 -0.30301423381E+03  0.37251516605E+01 -0.28762554125E+03  0.43612821534E+03  0.12509142892E+03 0.  0.
          5    1    3    3  502    0 -0.79630459253E+02  0.16133443756E+02 -0.15751318586E+03  0.17728275203E+03  0.41800000000E+01 0. -1.
         -5    1    3    3    0  502 -0.22338377456E+03 -0.12408292095E+02 -0.13011235539E+03  0.25884546331E+03  0.41800000000E+01 0. -1.
        -11    1    1    2    0    0  0.15887960375E+03 -0.85360573465E+01 -0.93156098772E+02  0.18437367356E+03  0.00000000000E+00 0.  1.
         11    1    1    2    0    0  0.14413463007E+03  0.48109056860E+01 -0.19865739260E+03  0.24548461466E+03  0.00000000000E+00 0. -1.
</event>
<event>
 7    1  0.3205525E-009  0.1326211E+03  0.7561462E-02  0.1223618E+00
          1   -1    0    0  501    0  0.00000000000E+00  0.00000000000E+00  0.22589665903E+03  0.22589665903E+03  0.00000000000E+00 0. -1.
         -1   -1    0    0    0  501 -0.00000000000E+00 -0.00000000000E+00 -0.10907567902E+03  0.10907567902E+03  0.00000000000E+00 0.  1.
         25    2    1    2    0    0 -0.83153854475E+02  0.45899707792E+02  0.12871447222E+03  0.20306117445E+03  0.12508028831E+03 0.  0.
          5    1    3    3  502    0 -0.20581793304E+02  0.82030803886E+02  0.68723868334E+02  0.10905551559E+03  0.41800000000E+01 0.  1.
         -5    1    3    3    0  502 -0.62572061171E+02 -0.36131096093E+02  0.59990603882E+02  0.94005658862E+02  0.41800000000E+01 0.  1.
        -11    1    1    2    0    0  0.59794098478E+02 -0.36410542877E+01 -0.43648190941E+02  0.74119876292E+02  0.00000000000E+00 0.  1.
         11    1    1    2    0    0  0.23359755997E+02 -0.42258653505E+02  0.31754698733E+02  0.57791287301E+02  0.00000000000E+00 0. -1.
</event>
<event>
 7    1  0.2688177E-009  0.1363042E+03  0.7561462E-02  0.1218390E+00
         -2   -1    0    0    0  501 -0.00000000000E+00  0.00000000000E+00  0.46970764297E+03  0.46970764297E+03  0.00000000000E+00 0. -1.
          2   -1    0    0  501    0  0.00000000000E+00 -0.00000000000E+00 -0.50209411217E+02  0.50209411217E+02  0.00000000000E+00 0.  1.
         25    2    1    2    0    0 -0.92977428648E+02  0.54169836164E+02  0.21095676731E+03  0.26782711142E+03  0.12509768403E+03 0.  0.
          5    1    3    3  502    0 -0.16173118157E+02 -0.35978065740E+02  0.23652238204E+02  0.46183240871E+02  0.41800000000E+01 0.  1.
         -5    1    3    3    0  502 -0.76804310491E+02  0.90147901904E+02  0.18730452910E+03  0.22164387054E+03  0.41800000000E+01 0.  1.
        -11    1    1    2    0    0  0.37581037398E+02 -0.91038207979E+00  0.95651128989E+01  0.38789876929E+02  0.00000000000E+00 0.  1.
         11    1    1    2    0    0  0.55396391250E+02 -0.53259454084E+02  0.19897635155E+03  0.21330006584E+03  0.00000000000E+00 0. -1.
</event>
<event>
 7    1  0.2688177E-009  0.1250978E+03  0.7561462E-02  0.1234916E+00
         -3   -1    0    0    0  501 -0.00000000000E+00  0.00000000000E+00  0.13464812079E+02  0.13464812079E+02  0.00000000000E+00 0.  1.
          3   -1    0    0  501    0  0.00000000000E+00 -0.00000000000E+00 -0.12440401852E+04  0.12440401852E+04  0.00000000000E+00 0. -1.
         25    2    1    2    0    0 -0.17147143018E+02 -0.60857429299E+02 -0.83699667966E+03  0.84865188891E+03  0.12509570562E+03 0.  0.
          5    1    3    3  502    0 -0.31576682562E+02 -0.96426561366E+02 -0.60369007772E+03  0.61217183124E+03  0.41800000000E+01 0. -1.
         -5    1    3    3    0  502  0.14429539544E+02  0.35569132067E+02 -0.23330660194E+03  0.23648005767E+03  0.41800000000E+01 0. -1.
        -11    1    1    2    0    0 -0.29134137731E+02  0.56472108295E+02 -0.20462024696E+03  0.21425998801E+03  0.00000000000E+00 0.  1.
         11    1    1    2    0    0  0.46281280749E+02  0.43853210038E+01 -0.18895844647E+03  0.19459312033E+03  0.00000000000E+00 0. -1.
</event>
<event>
 7    1  0.2688177E-009  0.1083467E+03  0.7561462E-02  0.1263663E+00
          1   -1    0    0  501    0  0.00000000000E+00  0.00000000000E+00  0.17386602808E+03  0.17386602808E+03  0.00000000000E+00 0. -1.
         -1   -1    0    0    0  501 -0.00000000000E+00 -0.00000000000E+00 -0.10550841932E+03  0.10550841932E+03  0.00000000000E+00 0.  1.
         25    2    1    2    0    0  0.73842647968E+01 -0.72682824976E+02  0.69458552204E+02  0.16065406874E+03  0.12509164207E+03 0.  0.
          5    1    3    3  502    0 -0.47843629324E+02 -0.64822572074E+02  0.13997447862E+02  0.81880276403E+02  0.41800000000E+01 0. -1.
         -5    1    3    3    0  502  0.55227894120E+02 -0.78602529021E+01  0.55461104342E+02  0.78773792339E+02  0.41800000000E+01 0. -1.
        -11    1    1    2    0    0 -0.18250131804E+02  0.23746242655E+02 -0.43671897119E+02  0.52954564950E+02  0.00000000000E+00 0.  1.
         11    1    1    2    0    0  0.10865867007E+02  0.48936582321E+02  0.42570953680E+02  0.65765813705E+02  0.00000000000E+00 0. -1.
</event>
<event>
 7    1  0.2688177E-009  0.1097427E+03  0.7561462E-02  0.1261047E+00
         -2   -1    0    0    0  501 -0.00000000000E+00  0.00000000000E+00  0.42399907299E+02  0.42399907299E+02  0.00000000000E+00 0.  1.
          2   -1    0    0  501    0  0.00000000000E+00 -0.00000000000E+00 -0.37765356146E+03  0.37765356146E+03  0.00000000000E+00 0. -1.
         25    2    1    2    0    0 -0.27336500231E+02 -0.54359798630E+02 -0.16306632861E+03  0.21433733775E+03  0.12509034686E+03 0.  0.
          5    1    3    3  502    0 -0.73928018072E+02 -0.12857273049E+02 -0.73674570229E+02  0.10524293812E+03  0.41800000000E+01 0.  1.
         -5    1    3    3    0  502  0.46591517841E+02 -0.41502525580E+02 -0.89391758381E+02  0.10909439963E+03  0.41800000000E+01 0.  1.
        -11    1    1    2    0    0  0.34025186926E+02  0.62559571555E+02 -0.17932784279E+03  0.19295048209E+03  0.00000000000E+00 0. -1.
         11    1    1    2    0    0 -0.66886866951E+01 -0.81997729249E+01  0.71405172422E+01  0.12765648915E+02  0.00000000000E+00 0.  1.
</event>
<event>
 7    1  0.2688177E-009  0.1572734E+03  0.7561462E-02  0.1191810E+00
         -1   -1    0    0    0  501 -0.00000000000E+00  0.00000000000E+00  0.63072329600E+03  0.63072329600E+03  0.00000000000E+00 0.  1.
          1   -1    0    0  501    0  0.00000000000E+00 -0.00000000000E+00 -0.44593109782E+02  0.44593109782E+02  0.00000000000E+00 0. -1.
         25    2    1    2    0    0  0.24713271276E+02  0.11215488863E+03  0.20031301777E+03  0.26261404314E+03  0.12510541853E+03 0.  0.
          5    1    3    3  502    0  0.72555494074E+02  0.89024567017E+02  0.11940223957E+03  0.16572278198E+03  0.41800000000E+01 0. -1.
         -5    1    3    3    0  502 -0.47842222798E+02  0.23130321614E+02  0.80910778200E+02  0.96891261160E+02  0.41800000000E+01 0. -1.
        -11    1    1    2    0    0  0.12793399773E+02 -0.10780546789E+03  0.27654376320E+03  0.29708945278E+03  0.00000000000E+00 0. -1.
         11    1    1    2    0    0 -0.37506671049E+02 -0.43494207438E+01  0.10927340524E+03  0.11561290987E+03  0.00000000000E+00 0.  1.
</event>
<event>
 7    1  0.2688177E-009  0.8843335E+02  0.7561462E-02  0.1306691E+00
          1   -1    0    0  501    0  0.00000000000E+00  0.00000000000E+00  0.47894433750E+02  0.47894433750E+02  0.00000000000E+00 0. -1.
         -1   -1    0    0    0  501 -0.00000000000E+00 -0.00000000000E+00 -0.26007802028E+03  0.26007802028E+03  0.00000000000E+00 0.  1.
         25    2    1    2    0    0 -0.23504684527E+02 -0.37317622651E+01 -0.10276443774E+03  0.16361672646E+03  0.12507400717E+03 0.  0.
          5    1    3    3  502    0 -0.47375999495E+02 -0.32532167749E+02 -0.11101909926E+03  0.12508213329E+03  0.41800000000E+01 0.  1.
         -5    1    3    3    0  502  0.23871314968E+02  0.28800405484E+02  0.82546615195E+01  0.38534593175E+02  0.41800000000E+01 0.  1.
        -11    1    1    2    0    0 -0.27761935027E+02  0.10928093453E+02 -0.78683157943E+02  0.84149792673E+02  0.00000000000E+00 0.  1.
         11    1    1    2    0    0  0.51266619554E+02 -0.71963311877E+01 -0.30735990839E+02  0.60205934889E+02  0.00000000000E+00 0. -1.
</event>
<event>
 7    1  0.2688177E-009  0.9774113E+02  0.7561462E-02  0.1285119E+00
         -2   -1    0    0    0  501 -0.00000000000E+00  0.00000000000E+00  0.27577311313E+02  0.27577311313E+02  0.00000000000E+00 0.  1.
          2   -1    0    0  501    0  0.00000000000E+00 -0.00000000000E+00 -0.57003282750E+03  0.57003282750E+03  0.00000000000E+00 0. -1.
         25    2    1    2    0    0  0.20011288889E+02  0.54029286895E+02 -0.36977330481E+03  0.39458717016E+03  0.12508845821E+03 0.  0.
          5    1    3    3  502    0  0.22906952699E+02  0.69094953629E+02 -0.96985378398E+02  0.12133621521E+03  0.41800000000E+01 0. -1.
         -5    1    3    3    0  502 -0.28956638099E+01 -0.15065666734E+02 -0.27278792641E+03  0.27325095495E+03  0.41800000000E+01 0. -1.
        -11    1    1    2    0    0 -0.14630239649E+02 -0.79398371974E+02 -0.13435729606E+03  0.15674829629E+03  0.00000000000E+00 0. -1.
         11    1    1    2    0    0 -0.53810492394E+01  0.25369085078E+02 -0.38324915312E+02  0.46274672363E+02  0.00000000000E+00 0.  1.
</event>
<event>
 7    1  0.2688177E-009  0.1092014E+03  0.7561462E-02  0.1262056E+00
         -2   -1    0    0    0  501 -0.00000000000E+00  0.00000000000E+00  0.26111238151E+02  0.26111238151E+02  0.00000000000E+00 0. -1.
          2   -1    0    0  501    0  0.00000000000E+00 -0.00000000000E+00 -0.48421378333E+03  0.48421378333E+03  0.00000000000E+00 0.  1.
         25    2    1    2    0    0  0.61826161752E+01  0.27763777216E+02 -0.24270772241E+03  0.27452465715E+03  0.12509075425E+03 0.  0.
          5    1    3    3  502    0  0.64478747753E+02  0.27822506559E+01 -0.12619940495E+03  0.14180624824E+03  0.41800000000E+01 0. -1.
         -5    1    3    3    0  502 -0.58296131578E+02  0.24981526560E+02 -0.11650831746E+03  0.13271840891E+03  0.41800000000E+01 0. -1.
        -11    1    1    2    0    0 -0.83380469758E+01 -0.58633324119E+02 -0.17605042960E+03  0.18574483435E+03  0.00000000000E+00 0. -1.
         11    1    1    2    0    0  0.21554308006E+01  0.30869546904E+02 -0.39344393171E+02  0.50055529984E+02  0.00000000000E+00 0.  1.
</event>
<event>
 7    1  0.2688177E-009  0.1199729E+03  0.7561462E-02  0.1243142E+00
          1   -1    0    0  501    0  0.00000000000E+00  0.00000000000E+00  0.29934685685E+03  0.29934685685E+03  0.00000000000E+00 0. -1.
         -1   -1    0    0    0  501 -0.00000000000E+00 -0.00000000000E+00 -0.61123245910E+02  0.61123245910E+02  0.00000000000E+00 0.  1.
         25    2    1    2    0    0  0.55154687463E+02  0.37124399422E+02  0.16457790497E+03  0.21714736093E+03  0.12508728543E+03 0.  0.
          5    1    3    3  502    0 -0.21724110014E+02  0.56797021378E+02  0.85835208498E+02  0.10527579974E+03  0.41800000000E+01 0.  1.
         -5    1    3    3    0  502  0.76878797478E+02 -0.19672621955E+02  0.78742696467E+02  0.11187156119E+03  0.41800000000E+01 0. -1.
        -11    1    1    2    0    0 -0.60650594537E+02  0.13460189162E+01  0.69796391506E+00  0.60669543745E+02  0.00000000000E+00 0.  1.
         11    1    1    2    0    0  0.54959070731E+01 -0.38470418339E+02  0.72947742055E+02  0.82653198079E+02  0.00000000000E+00 0. -1.
</event>
<event>
 7    1  0.2688177E-009  0.2634036E+03  0.7561462E-02  0.1105115E+00
          1   -1    0    0  501    0  0.00000000000E+00  0.00000000000E+00  0.21159277439E+03  0.21159277439E+03  0.00000000000E+00 0. -1.
         -1   -1    0    0    0  501 -0.00000000000E+00 -0.00000000000E+00 -0.41410809818E+03  0.41410809818E+03  0.00000000000E+00 0.  1.
         25    2    1    2    0    0 -0.11740283235E+03 -0.22508956795E+03 -0.21697803998E+03  0.35661718225E+03  0.12509039211E+03 0.  0.
          5    1    3    3  502    0 -0.78626666879E+02 -0.19525230892E+03 -0.10697148328E+03  0.23614823209E+03  0.41800000000E+01 0.  1.
         -5    1    3    3    0  502 -0.38776165472E+02 -0.29837259026E+02 -0.11000655671E+03  0.12046895016E+03  0.41800000000E+01 0.  1.
        -11    1    1    2    0    0  0.12558361876E+03  0.16934243686E+03  0.23070714988E+02  0.21208574708E+03  0.00000000000E+00 0. -1.
         11    1    1    2    0    0 -0.81807864086E+01  0.55747131086E+02 -0.86079987982E+01  0.56997943243E+02  0.00000000000E+00 0.  1.
</event>
<event>
 7    1  0.2688177E-009  0.1175175E+03  0.7561462E-02  0.1247250E+00
          1   -1    0    0  501    0  0.00000000000E+00  0.00000000000E+00  0.71978222505E+02  0.71978222505E+02  0.00000000000E+00 0. -1.
         -1   -1    0    0    0  501 -0.00000000000E+00 -0.00000000000E+00 -0.36739770961E+03  0.36739770961E+03  0.00000000000E+00 0.  1.
         25    2    1    2    0    0 -0.73597856714E+01 -0.92837634463E+02 -0.54651153839E+02  0.16524574229E+03  0.12508562632E+03 0.  0.
          5    1    3    3  502    0 -0.53646103010E+02 -0.71770409844E+02 -0.67928939855E+02  0.11251981766E+03  0.41800000000E+01 0.  1.
         -5    1    3    3    0  502  0.46286317339E+02 -0.21067224619E+02  0.13277786017E+02  0.52725924624E+02  0.41800000000E+01 0.  1.
        -11    1    1    2    0    0 -0.42323505949E+01  0.39374014462E+02 -0.20495142533E+03  0.20874221554E+03  0.00000000000E+00 0.  1.
         11    1    1    2    0    0  0.11592136266E+02  0.53463620001E+02 -0.35816907945E+02  0.65387974289E+02  0.00000000000E+00 0. -1.
</event>
<event>
 7    1  0.2688177E-009  0.6965801E+02  0.7561462E-02  0.1361260E+00
          2   -1    0    0  501    0  0.00000000000E+00  0.00000000000E+00  0.14194730082E+03  0.14194730082E+03  0.00000000000E+00 0. -1.
         -2   -1    0    0    0  501 -0.00000000000E+00 -0.00000000000E+00 -0.11198698335E+03  0.11198698335E+03  0.00000000000E+00 0.  1.
         25    2    1    2    0    0  0.51555208272E+02  0.11807953479E+01  0.48776826887E+02  0.14382221904E+03  0.12508524322E+03 0.  0.
          5    1    3    3  502    0  0.15011971742E+02  0.25255936487E+02  0.82977711581E+02  0.88124880951E+02  0.41800000000E+01 0. -1.
         -5    1    3    3    0  502  0.36543236530E+02 -0.24075141139E+02 -0.34200884693E+02  0.55697338094E+02  0.41800000000E+01 0. -1.
        -11    1    1    2    0    0 -0.11328466906E+02  0.17878914269E+02  0.34611711865E+02  0.40570436726E+02  0.00000000000E+00 0. -1.
         11    1    1    2    0    0 -0.40226741366E+02 -0.19059709617E+02 -0.53428221276E+02  0.69541628398E+02  0.00000000000E+00 0.  1.
</event>
<event>
 7    1  0.2688177E-009  0.1467875E+03  0.7561462E-02  0.1204477E+00
         -1   -1    0    0    0  501 -0.00000000000E+00  0.00000000000E+00  0.73149611912E+02  0.73149611912E+02  0.00000000000E+00 0. -1.
          1   -1    0    0  501    0  0.00000000000E+00 -0.00000000000E+00 -0.40664078060E+03  0.40664078060E+03  0.00000000000E+00 0.  1.
         25    2    1    2    0    0  0.76525970706E+02  0.10601734172E+03 -0.22064467842E+03  0.28535523263E+03  0.12509050219E+03 0.  0.
          5    1    3    3  502    0  0.88359165087E+01 -0.18469512821E+02  0.24402371345E+01  0.21038618816E+02  0.41800000000E+01 0.  1.
         -5    1    3    3    0  502  0.67690054197E+02  0.12448685454E+03 -0.22308491556E+03  0.26431661381E+03  0.41800000000E+01 0.  1.
        -11    1    1    2    0    0 -0.39010121732E+02 -0.48433056019E+02  0.13780062565E+00  0.62189786154E+02  0.00000000000E+00 0. -1.
         11    1    1    2    0    0 -0.37515848973E+02 -0.57584285698E+02 -0.11298429089E+03  0.13224537372E+03  0.00000000000E+00 0.  1.
</event>
<event>
 7    1  0.2688177E-009  0.1100605E+03  0.7561462E-02  0.1260458E+00
          1   -1    0    0  501    0  0.00000000000E+00  0.00000000000E+00  0.98005146607E+02  0.98005146607E+02  0.00000000000E+00 0. -1.
         -1   -1    0    0    0  501 -0.00000000000E+00 -0.00000000000E+00 -0.13541284474E+03  0.13541284474E+03  0.00000000000E+00 0.  1.
         25    2    1    2    0    0  0.18577253085E+02  0.20554847122E+02  0.71506019078E+01  0.12831449512E+03  0.12508342207E+03 0.  0.
          5    1    3    3  502    0  0.59449651958E+02  0.47765208485E+02 -0.79129000199E+01  0.76784520877E+02  0.41800000000E+01 0.  1.
         -5    1    3    3    0  502 -0.40872398873E+02 -0.27210361362E+02  0.15063501928E+02  0.51529974243E+02  0.41800000000E+01 0.  1.
        -11    1    1    2    0    0 -0.54507125668E+02 -0.21319546942E+02 -0.21238840755E+02  0.62262654835E+02  0.00000000000E+00 0.  1.
         11    1    1    2    0    0  0.35929872583E+02  0.76469981978E+00 -0.23319459282E+02  0.42840841388E+02  0.00000000000E+00 0. -1.
</event>
<event>
 7    1  0.2688177E-009  0.1695818E+03  0.7561462E-02  0.1178285E+00
         -1   -1    0    0    0  501 -0.00000000000E+00  0.00000000000E+00  0.85244283840E+02  0.85244283840E+02  0.00000000000E+00 0.  1.
          1   -1    0    0  501    0  0.00000000000E+00 -0.00000000000E+00 -0.35253091198E+03  0.35253091198E+03  0.00000000000E+00 0. -1.
         25    2    1    2    0    0  0.51536081084E+02  0.12442674605E+03 -0.12469088153E+03  0.22210970090E+03  0.12508765131E+03 0.  0.
          5    1    3    3  502    0 -0.34338753198E+02  0.63531905378E+02 -0.79453306775E+02  0.10745116719E+03  0.41800000000E+01 0.  1.
         -5    1    3    3    0  502  0.85874834281E+02  0.60894840668E+02 -0.45237574760E+02  0.11465853371E+03  0.41800000000E+01 0.  1.
        -11    1    1    2    0    0  0.14195325047E+02  0.60017293123E+01 -0.17899153241E+02  0.23620069743E+02  0.00000000000E+00 0.  1.
         11    1    1    2    0    0 -0.65731406131E+02 -0.13042847536E+03 -0.12469659337E+03  0.19204542518E+03  0.00000000000E+00 0. -1.
</event>
<event>
 7    1  0.2688177E-009  0.8107515E+02  0.7561462E-02  0.1326028E+00
         -1   -1    0    0    0  501 -0.00000000000E+00  0.00000000000E+00  0.57153961475E+03  0.57153961475E+03  0.00000000000E+00 0.  1.
          1   -1    0    0  501    0  0.00000000000E+00 -0.00000000000E+00 -0.17921490753E+02  0.17921490753E+02  0.00000000000E+00 0. -1.
         25    2    1    2    0    0  0.93117279714E+01  0.16271652752E+01  0.38256155896E+03  0.40260320383E+03  0.12508651964E+03 0.  0.
          5    1    3    3  502    0  0.41795148825E+02  0.30064644636E+02  0.33196511233E+03  0.33595985702E+03  0.41800000000E+01 0.  1.
         -5    1    3    3    0  502 -0.32483420853E+02 -0.28437479360E+02  0.50596446627E+02  0.66643346810E+02  0.41800000000E+01 0.  1.
        -11    1    1    2    0    0  0.93704528398E+01 -0.30958585766E+02  0.12517412963E+03  0.12928573838E+03  0.00000000000E+00 0.  1.
         11    1    1    2    0    0 -0.18682180811E+02  0.29331420491E+02  0.45882435412E+02  0.57572163302E+02  0.00000000000E+00 0. -1.
</event>
<event>
 7    1  0.2688177E-009  0.1008112E+03  0.7561462E-02  0.1278599E+00
         -2   -1    0    0    0  501 -0.00000000000E+00  0.00000000000E+00  0.45372993850E+03  0.45372993850E+03  0.00000000000E+00 0.  1.
          2   -1    0    0  501    0  0.00000000000E+00 -0.00000000000E+00 -0.45950240530E+02  0.45950240530E+02  0.00000000000E+00 0. -1.
         25    2    1    2    0    0  0.47441194526E+02 -0.71833268613E+02  0.28587622297E+03  0.32370171906E+03  0.12508757992E+03 0.  0.
          5    1    3    3  502    0  0.21437126583E+02 -0.23700451917E+02  0.26181314628E+03  0.26378941939E+03  0.41800000000E+01 0. -1.
         -5    1    3    3    0  502  0.26004067943E+02 -0.48132816696E+02  0.24063076689E+02  0.59912299676E+02  0.41800000000E+01 0. -1.
        -11    1    1    2    0    0 -0.49937919273E+02  0.86374442054E+02  0.12595061132E+03  0.16067948380E+03  0.00000000000E+00 0.  1.
         11    1    1    2    0    0  0.24967247475E+01 -0.14541173441E+02 -0.40471363145E+01  0.15298976170E+02  0.00000000000E+00 0. -1.
</event>
<event>
 7    1  0.2688177E-009  0.1955571E+03  0.7561462E-02  0.1153543E+00
          2   -1    0    0  501    0  0.00000000000E+00  0.00000000000E+00  0.84499977731E+02  0.84499977731E+02  0.00000000000E+00 0. -1.
         -2   -1    0    0    0  501 -0.00000000000E+00 -0.00000000000E+00 -0.46430392381E+03  0.46430392381E+03  0.00000000000E+00 0.  1.
         25    2    1    2    0    0  0.12437561655E+03 -0.10618719995E+03 -0.24034538681E+03  0.31648599970E+03  0.12510982225E+03 0.  0.
          5    1    3    3  502    0  0.65998846942E+02 -0.12714210080E+03 -0.17682388585E+03  0.22760738257E+03  0.41800000000E+01 0. -1.
         -5    1    3    3    0  502  0.58376769604E+02  0.20954900853E+02 -0.63521500959E+02  0.88878617131E+02  0.41800000000E+01 0. -1.
        -11    1    1    2    0    0  0.11320565880E+02  0.25162083421E+02 -0.17318962562E+02  0.32576557801E+02  0.00000000000E+00 0. -1.
         11    1    1    2    0    0 -0.13569618243E+03  0.81025116526E+02 -0.12213959670E+03  0.19974134403E+03  0.00000000000E+00 0.  1.
</event>
<event>
 7    1  0.2688177E-009  0.1167173E+03  0.7561462E-02  0.1248613E+00
         -1   -1    0    0    0  501 -0.00000000000E+00  0.00000000000E+00  0.71957328755E+02  0.71957328755E+02  0.00000000000E+00 0.  1.
          1   -1    0    0  501    0  0.00000000000E+00 -0.00000000000E+00 -0.45552569967E+03  0.45552569967E+03  0.00000000000E+00 0. -1.
         25    2    1    2    0    0 -0.37291522248E+02 -0.89184814063E+02 -0.35840151627E+03  0.39171944522E+03  0.12509151931E+03 0.  0.
          5    1    3    3  502    0 -0.25233384106E+02  0.34243134404E+01 -0.51589900380E+01  0.26316101044E+02  0.41800000000E+01 0. -1.
         -5    1    3    3    0  502 -0.12058138143E+02 -0.92609127503E+02 -0.35324252623E+03  0.36540334417E+03  0.41800000000E+01 0. -1.
        -11    1    1    2    0    0 -0.76540641758E+01  0.60153699241E+02 -0.48247942673E+02  0.77491394380E+02  0.00000000000E+00 0. -1.
         11    1    1    2    0    0  0.44945586424E+02  0.29031114822E+02  0.23081088026E+02  0.58272188832E+02  0.00000000000E+00 0.  1.
</event>
<event>
 7    1  0.2688177E-009  0.1460907E+03  0.7561462E-02  0.1205361E+00
         -3   -1    0    0    0  501 -0.00000000000E+00  0.00000000000E+00  0.25612218481E+03  0.25612218481E+03  0.00000000000E+00 0.  1.
          3   -1    0    0  501    0  0.00000000000E+00 -0.00000000000E+00 -0.11295071144E+03  0.11295071144E+03  0.00000000000E+00 0. -1.
         25    2    1    2    0    0  0.17712651193E+02 -0.95237128724E+02  0.15270764173E+02  0.15894551323E+03  0.12508649502E+03 0.  0.
          5    1    3    3  502    0  0.69545846991E+02 -0.34051885480E+02  0.12894005815E+02  0.78612235208E+02  0.41800000000E+01 0.  1.
         -5    1    3    3    0  502 -0.51833195798E+02 -0.61185243244E+02  0.23767583578E+01  0.80333278022E+02  0.41800000000E+01 0.  1.
        -11    1    1    2    0    0 -0.53142191073E+02  0.32519384054E+02  0.12305920378E+03  0.13793176011E+03  0.00000000000E+00 0.  1.
         11    1    1    2    0    0  0.35429539881E+02  0.62717744670E+02  0.48415054100E+01  0.72195622909E+02  0.00000000000E+00 0. -1.
</event>
<event>
 7    1  0.2688177E-009  0.9445370E+02  0.7561462E-02  0.1292411E+00
          1   -1    0    0  501    0  0.00000000000E+00  0.00000000000E+00  0.43539099074E+03  0.43539099074E+03  0.00000000000E+00 0. -1.
         -1   -1    0    0    0  501 -0.00000000000E+00 -0.00000000000E+00 -0.36299625857E+02  0.36299625857E+02  0.00000000000E+00 0.  1.
         25    2    1    2    0    0 -0.51692286881E+02 -0.34212224442E+02  0.19297135578E+03  0.23818047051E+03  0.12509765608E+03 0.  0.
          5    1    3    3  502    0 -0.70907053075E+02 -0.13250273946E+02  0.19636716786E+03  0.20923889923E+03  0.41800000000E+01 0. -1.
         -5    1    3    3    0  502  0.19214766194E+02 -0.20961950496E+02 -0.33958120835E+01  0.28941571280E+02  0.41800000000E+01 0. -1.
        -11    1    1    2    0    0  0.15875367163E+02 -0.18375751119E+02  0.13869077101E+03  0.14080065865E+03  0.00000000000E+00 0. -1.
         11    1    1    2    0    0  0.35816919718E+02  0.52587975561E+02  0.67429238089E+02  0.92709487438E+02  0.00000000000E+00 0.  1.
</event>
<event>
 7    1  0.2688177E-009  0.1021928E+03  0.7561462E-02  0.1275751E+00
          2   -1    0    0  501    0  0.00000000000E+00  0.00000000000E+00  0.61124585759E+03  0.61124585759E+03  0.00000000000E+00 0. -1.
         -2   -1    0    0    0  501 -0.00000000000E+00 -0.00000000000E+00 -0.37594001234E+02  0.37594001234E+02  0.00000000000E+00 0.  1.
         25    2    1    2    0    0  0.70947739619E+02 -0.17773675367E+01  0.47581377743E+03  0.49707202470E+03  0.12508039875E+03 0.  0.
          5    1    3    3  502    0  0.16531134496E+02  0.42207804170E+02  0.35085619156E+03  0.35379699928E+03  0.41800000000E+01 0. -1.
         -5    1    3    3    0  502  0.54416605122E+02 -0.43985171707E+02  0.12495758587E+03  0.14327502542E+03  0.41800000000E+01 0. -1.
        -11    1    1    2    0    0 -0.78292653662E+02 -0.54263711711E+01  0.11044930262E+03  0.13549255910E+03  0.00000000000E+00 0. -1.
         11    1    1    2    0    0  0.73449140433E+01  0.72037387078E+01 -0.12611223704E+02  0.16275275020E+02  0.00000000000E+00 0.  1.
</event>
<event>
 7    1  0.2688177E-009  0.1004501E+03  0.7561462E-02  0.1279352E+00
          2   -1    0    0  501    0  0.00000000000E+00  0.00000000000E+00  0.46862710717E+03  0.46862710717E+03  0.00000000000E+00 0. -1.
         -2   -1    0    0    0  501 -0.00000000000E+00 -0.00000000000E+00 -0.70981867520E+02  0.70981867520E+02  0.00000000000E+00 0.  1.
         25    2    1    2    0    0 -0.15951661389E+02 -0.31909834981E+02  0.41691234502E+03  0.43673415408E+03  0.12509246517E+03 0.  0.
          5    1    3    3  502    0  0.33588903500E+02 -0.44284590304E+02  0.33856339672E+03  0.34312094861E+03  0.41800000000E+01 0.  1.
         -5    1    3    3    0  502 -0.49540564889E+02  0.12374755323E+02  0.78348948294E+02  0.93613205466E+02  0.41800000000E+01 0.  1.
        -11    1    1    2    0    0  0.51739015349E+02  0.12549134717E+02  0.80816632166E+01  0.53849046154E+02  0.00000000000E+00 0.  1.
         11    1    1    2    0    0 -0.35787353960E+02  0.19360700264E+02 -0.27348768583E+02  0.49025774457E+02  0.00000000000E+00 0. -1.
</event>
<event>
 7    1  0.2688177E-009  0.2295297E+03  0.7561462E-02  0.1126971E+00
         -2   -1    0    0    0  501 -0.00000000000E+00  0.00000000000E+00  0.46766226073E+02  0.46766226073E+02  0.00000000000E+00 0.  1.
          2   -1    0    0  501    0  0.00000000000E+00 -0.00000000000E+00 -0.12285239598E+04  0.12285239598E+04  0.00000000000E+00 0. -1.
         25    2    1    2    0    0  0.42014780516E+02 -0.20401011420E+03 -0.46657554398E+03  0.52604757886E+03  0.12509176035E+03 0.  0.
          5    1    3    3  502    0 -0.37894549100E+02 -0.58439741091E+02 -0.20134226108E+03  0.21309007177E+03  0.41800000000E+01 0. -1.
         -5    1    3    3    0  502  0.79909329617E+02 -0.14557037311E+03 -0.26523328290E+03  0.31295750709E+03  0.41800000000E+01 0. -1.
        -11    1    1    2    0    0 -0.56767746328E+02  0.78937256987E+02 -0.32597683720E+03  0.34016843762E+03  0.00000000000E+00 0.  1.
         11    1    1    2    0    0  0.14752965812E+02  0.12507285721E+03 -0.38920535254E+03  0.40907416938E+03  0.00000000000E+00 0. -1.
</event>
<event>
 7    1  0.2688177E-009  0.1044668E+03  0.7561462E-02  0.1271174E+00
         -1   -1    0    0    0  501 -0.00000000000E+00  0.00000000000E+00  0.41466889161E+02  0.41466889161E+02  0.00000000000E+00 0.  1.
          1   -1    0    0  501    0  0.00000000000E+00 -0.00000000000E+00 -0.41265289218E+03  0.41265289218E+03  0.00000000000E+00 0. -1.
         25    2    1    2    0    0  0.35421822963E+02 -0.63430842576E+02 -0.21295863425E+03  0.25744807593E+03  0.12509977844E+03 0.  0.
          5    1    3    3  502    0  0.19111300345E+02 -0.73824279498E+02 -0.45654573855E+02  0.88977966700E+02  0.41800000000E+01 0. -1.
         -5    1    3    3    0  502  0.16310522618E+02  0.10393436922E+02 -0.16730406040E+03  0.16847010923E+03  0.41800000000E+01 0. -1.
        -11    1    1    2    0    0  0.61855928586E+01  0.70327556918E+02 -0.12254665915E+03  0.14142811067E+03  0.00000000000E+00 0.  1.
         11    1    1    2    0    0 -0.41607415822E+02 -0.68967143421E+01 -0.35680709618E+02  0.55243594732E+02  0.00000000000E+00 0. -1.
</event>
<event>
 7    1  0.2688177E-009  0.9649954E+02  0.7561462E-02  0.1287834E+00
          3   -1    0    0  501    0  0.00000000000E+00  0.00000000000E+00  0.25999426638E+03  0.25999426638E+03  0.00000000000E+00 0. -1.
         -3   -1    0    0    0  501 -0.00000000000E+00 -0.00000000000E+00 -0.58049653134E+02  0.58049653134E+02  0.00000000000E+00 0.  1.
         25    2    1    2    0    0  0.40653512023E+02 -0.35777265847E+02  0.91116652079E+02  0.16396050772E+03  0.12509229798E+03 0.  0.
          5    1    3    3  502    0  0.27984740900E+01  0.34035742100E+02 -0.95167932733E+01  0.35697408193E+02  0.41800000000E+01 0.  1.
         -5    1    3    3    0  502  0.37855037933E+02 -0.69813007947E+02  0.10063344535E+03  0.12826309952E+03  0.41800000000E+01 0.  1.
        -11    1    1    2    0    0  0.13844855158E+02 -0.55193810378E-01 -0.97925667955E+01  0.16958107947E+02  0.00000000000E+00 0.  1.
         11    1    1    2    0    0 -0.54498367182E+02  0.35832459658E+02  0.12062052797E+03  0.13712530386E+03  0.00000000000E+00 0. -1.
</event>
<event>
 7    1  0.2688177E-009  0.1314681E+03  0.7561462E-02  0.1225293E+00
          1   -1    0    0  501    0  0.00000000000E+00  0.00000000000E+00  0.34794768980E+02  0.34794768980E+02  0.00000000000E+00 0. -1.
         -1   -1    0    0    0  501 -0.00000000000E+00 -0.00000000000E+00 -0.58203006123E+03  0.58203006123E+03  0.00000000000E+00 0.  1.
         25    2    1    2    0    0 -0.79924600631E+02 -0.57409999590E+00 -0.39616663529E+03  0.42306508213E+03  0.12509112448E+03 0.  0.
          5    1    3    3  502    0  0.32923069164E+02 -0.51067434778E+01 -0.65269213806E+02  0.73399931764E+02  0.41800000000E+01 0.  1.
         -5    1    3    3    0  502 -0.11284766979E+03  0.45326434819E+01 -0.33089742148E+03  0.34966515036E+03  0.41800000000E+01 0.  1.
        -11    1    1    2    0    0  0.41880813768E+01 -0.33166621468E+02 -0.71098446007E+02  0.78565602078E+02  0.00000000000E+00 0.  1.
         11    1    1    2    0    0  0.75736519254E+02  0.33740721464E+02 -0.79970210955E+02  0.11519414600E+03  0.00000000000E+00 0. -1.
</event>
<event>
 7    1  0.2688177E-009  0.1991757E+03  0.7561462E-02  0.1150436E+00
         -2   -1    0    0    0  501 -0.00000000000E+00  0.00000000000E+00  0.27117672142E+03  0.27117672142E+03  0.00000000000E+00 0.  1.
          2   -1    0    0  501    0  0.00000000000E+00 -0.00000000000E+00 -0.16349768350E+03  0.16349768350E+03  0.00000000000E+00 0. -1.
         25    2    1    2    0    0  0.10604827560E+03 -0.14519875835E+03  0.72245976787E+02  0.23063994056E+03  0.12508551009E+03 0.  0.
          5    1    3    3  502    0  0.12004777209E+03 -0.15844231016E+03  0.70009243519E+02  0.21079421200E+03  0.41800000000E+01 0.  1.
         -5    1    3    3    0  502 -0.13999496492E+02  0.13243551809E+02  0.22367332679E+01  0.19845728564E+02  0.41800000000E+01 0.  1.
        -11    1    1    2    0    0 -0.70891684536E+02  0.96610617273E+02 -0.21033156811E+02  0.12166197430E+03  0.00000000000E+00 0.  1.
         11    1    1    2    0    0 -0.35156591060E+02  0.48588141081E+02  0.56466217948E+02  0.82372490056E+02  0.00000000000E+00 0. -1.
</event>
<event>
 7    1  0.2688177E-009  0.1447048E+03  0.7561462E-02  0.1207135E+00
          3   -1    0    0  501    0  0.00000000000E+00  0.00000000000E+00  0.13004359601E+03  0.13004359601E+03  0.00000000000E+00 0. -1.
         -3   -1    0    0    0  501 -0.00000000000E+00 -0.00000000000E+00 -0.20594463106E+03  0.20594463106E+03  0.00000000000E+00 0.  1.
         25    2    1    2    0    0  0.85085249531E+02  0.82593358382E+02 -0.95758718906E+01  0.17262823083E+03  0.12509055208E+03 0.  0.
          5    1    3    3  502    0  0.56012680167E+02  0.96194920339E+02  0.35698663280E+02  0.11697328754E+03  0.41800000000E+01 0.  1.
         -5    1    3    3    0  502  0.29072569364E+02 -0.13601561958E+02 -0.45274535171E+02  0.55654943285E+02  0.41800000000E+01 0.  1.
        -11    1    1    2    0    0 -0.28112714931E+02  0.15580197738E+02 -0.30561716824E+02  0.44351841423E+02  0.00000000000E+00 0. -1.
         11    1    1    2    0    0 -0.56972534600E+02 -0.98173556120E+02 -0.35763446340E+02  0.11900815482E+03  0.00000000000E+00 0.  1.
</event>
<event>
 7    1  0.2688177E-009  0.1250455E+03  0.7561462E-02  0.1234998E+00
          3   -1    0    0  501    0  0.00000000000E+00  0.00000000000E+00  0.35996992060E+03  0.35996992060E+03  0.00000000000E+00 0. -1.
         -3   -1    0    0    0  501 -0.00000000000E+00 -0.00000000000E+00 -0.52537276229E+02  0.52537276229E+02  0.00000000000E+00 0.  1.
         25    2    1    2    0    0 -0.67319063466E+02  0.49394283513E+02  0.20135158930E+03  0.25131911896E+03  0.12508871048E+03 0.  0.
          5    1    3    3  502    0 -0.95912196257E+02  0.50495910800E+02  0.10594864851E+03  0.15162972967E+03  0.41800000000E+01 0. -1.
         -5    1    3    3    0  502  0.28593132792E+02 -0.11016272876E+01  0.95402940788E+02  0.99689389287E+02  0.41800000000E+01 0. -1.
        -11    1    1    2    0    0  0.41101999086E+01  0.19076206540E+02  0.46900840200E+02  0.50798466618E+02  0.00000000000E+00 0. -1.
         11    1    1    2    0    0  0.63208863557E+02 -0.68470490053E+02  0.59180214868E+02  0.11038961125E+03  0.00000000000E+00 0.  1.
</event>
<event>
 6    1  0.2688177E-009  0.7895101E+02  0.7561462E-02  0.1332055E+00
          2   -1    0    0  501    0  0.00000000000E+00  0.00000000000E+00  0.27002515061E+03  0.27002515061E+03  0.00000000000E+00 0. -1.
         -2   -1    0    0    0  501 -0.00000000000E+00 -0.00000000000E+00 -0.47883923620E+02  0.47883923620E+02  0.00000000000E+00 0.  1.
          5    1    1    2  502    0 -0.42353511825E+02 -0.46147685961E+02  0.12656664047E+03  0.14127991988E+03  0.41800000000E+01 0. -1.
         -5    1    1    2    0  502  0.54421238145E+01  0.50768136353E+02  0.19803226942E+02  0.54924134747E+02  0.41800000000E+01 0. -1.
        -11    1    1    2    0    0  0.14612921044E+02 -0.13499804076E+02  0.91086441560E+02  0.93233695666E+02  0.00000000000E+00 0. -1.
         11    1    1    2    0    0  0.22298466966E+02  0.88793536843E+01 -0.15315081974E+02  0.28471323937E+02  0.00000000000E+00 0.  1.
</event>
<event>
 7    1  0.2688177E-009  0.1242401E+03  0.7561462E-02  0.1236262E+00
          2   -1    0    0  501    0  0.00000000000E+00  0.00000000000E+00  0.16879422850E+03  0.16879422850E+03  0.00000000000E+00 0. -1.
         -2   -1    0    0    0  501 -0.00000000000E+00 -0.00000000000E+00 -0.11504308234E+03  0.11504308234E+03  0.00000000000E+00 0.  1.
         25    2    1    2    0    0 -0.31540347870E+02 -0.59697239276E+02 -0.27530827393E+02  0.14478783479E+03  0.12508803590E+03 0.  0.
          5    1    3    3  502    0 -0.71825990529E+02 -0.97325650214E+01 -0.33952558357E+02  0.80149512515E+02  0.41800000000E+01 0.  1.
         -5    1    3    3    0  502  0.40285642659E+02 -0.49964674254E+02  0.64217309645E+01  0.64638322274E+02  0.41800000000E+01 0.  1.
        -11    1    1    2    0    0 -0.28646841538E+02  0.28822495033E+01  0.30511488571E+02  0.41951160021E+02  0.00000000000E+00 0.  1.
         11    1    1    2    0    0  0.60187189408E+02  0.56814989773E+02  0.50770484981E+02  0.97098316035E+02  0.00000000000E+00 0. -1.
</event>
<event>
 7    1  0.2688177E-009  0.1793578E+03  0.7561462E-02  0.1168426E+00
          2   -1    0    0  501    0  0.00000000000E+00  0.00000000000E+00  0.16960043377E+04  0.16960043377E+04  0.00000000000E+00 0. -1.
         -2   -1    0    0    0  501 -0.00000000000E+00 -0.00000000000E+00 -0.27021956474E+02  0.27021956474E+02  0.00000000000E+00 0.  1.
         25    2    1    2    0    0 -0.10209641536E+03 -0.13971810326E+03  0.11187911738E+04  0.11389847581E+04  0.12509101544E+03 0.  0.
          5    1    3    3  502    0 -0.64942534014E+02 -0.86816357982E+02  0.32662662227E+03  0.34417587875E+03  0.41800000000E+01 0.  1.
         -5    1    3    3    0  502 -0.37153881350E+02 -0.52901745280E+02  0.79216455154E+03  0.79480887933E+03  0.41800000000E+01 0.  1.
        -11    1    1    2    0    0  0.32692977793E+02  0.39156306042E+01  0.19094967419E+03  0.19376775024E+03  0.00000000000E+00 0. -1.
         11    1    1    2    0    0  0.69403437571E+02  0.13580247266E+03  0.35924153324E+03  0.39027378586E+03  0.00000000000E+00 0.  1.
</event>
<event>
 7    1  0.2688177E-009  0.3834085E+03  0.7561462E-02  0.1049681E+00
         -1   -1    0    0    0  501 -0.00000000000E+00  0.00000000000E+00  0.10133660126E+03  0.10133660126E+03  0.00000000000E+00 0.  1.
          1   -1    0    0  501    0  0.00000000000E+00 -0.00000000000E+00 -0.16072731311E+04  0.16072731311E+04  0.00000000000E+00 0. -1.
         25    2    1    2    0    0  0.60831040117E+02 -0.36446727500E+03 -0.10178570909E+04  0.10900550912E+04  0.12510089681E+03 0.  0.
          5    1    3    3  502    0  0.65966532866E+02 -0.75539847536E+02 -0.23409303180E+03  0.25470546119E+03  0.41800000000E+01 0. -1.
         -5    1    3    3    0  502 -0.51354927491E+01 -0.28892742747E+03 -0.78376405908E+03  0.83534963000E+03  0.41800000000E+01 0. -1.
        -11    1    1    2    0    0 -0.72874354586E+02  0.20593712075E+03 -0.31728103434E+03  0.38521166131E+03  0.00000000000E+00 0.  1.
         11    1    1    2    0    0  0.12043314469E+02  0.15853015425E+03 -0.17079840461E+03  0.23334297985E+03  0.00000000000E+00 0. -1.
</event>
<event>
 7    1  0.2688177E-009  0.1410312E+03  0.7561462E-02  0.1211948E+00
         -3   -1    0    0    0  501 -0.00000000000E+00  0.00000000000E+00  0.16853928123E+03  0.16853928123E+03  0.00000000000E+00 0.  1.
          3   -1    0    0  501    0  0.00000000000E+00 -0.00000000000E+00 -0.13793610355E+03  0.13793610355E+03  0.00000000000E+00 0. -1.
         25    2    1    2    0    0  0.85177128941E+02  0.29796145670E+02  0.74516768672E+02  0.17131253760E+03  0.12510908494E+03 0.  0.
          5    1    3    3  502    0  0.68950857547E+02  0.77426679037E+02  0.49623618293E+02  0.11501776939E+03  0.41800000000E+01 0. -1.
         -5    1    3    3    0  502  0.16226271395E+02 -0.47630533367E+02  0.24893150378E+02  0.56294768211E+02  0.41800000000E+01 0. -1.
        -11    1    1    2    0    0 -0.95430285527E+02 -0.48070899610E+02 -0.35782766866E+02  0.11268610025E+03  0.00000000000E+00 0.  1.
         11    1    1    2    0    0  0.10253156586E+02  0.18274753940E+02 -0.81308241235E+01  0.22476746928E+02  0.00000000000E+00 0. -1.
</event>
<event>
 7    1  0.2688177E-009  0.6689828E+02  0.7561462E-02  0.1370970E+00
          2   -1    0    0  501    0  0.00000000000E+00  0.00000000000E+00  0.23023406405E+03  0.23023406405E+03  0.00000000000E+00 0. -1.
         -2   -1    0    0    0  501 -0.00000000000E+00 -0.00000000000E+00 -0.63595782136E+02  0.63595782136E+02  0.00000000000E+00 0.  1.
         25    2    1    2    0    0  0.10342327542E+02 -0.31367595694E+02  0.42629208174E+02  0.13621737808E+03  0.12508810856E+03 0.  0.
          5    1    3    3  502    0  0.14308890664E+02  0.35841488755E+01 -0.41872498986E+02  0.44591131926E+02  0.41800000000E+01 0.  1.
         -5    1    3    3    0  502 -0.39665631215E+01 -0.34951744569E+02  0.84501707159E+02  0.91626246154E+02  0.41800000000E+01 0.  1.
        -11    1    1    2    0    0  0.92645855544E+01  0.53024218460E+02  0.11510961576E+03  0.12707330140E+03  0.00000000000E+00 0. -1.
         11    1    1    2    0    0 -0.19606913097E+02 -0.21656622766E+02  0.88994579849E+01  0.30539166708E+02  0.00000000000E+00 0.  1.
</event>
<event>
 7    1  0.2688177E-009  0.1286059E+03  0.7561462E-02  0.1229539E+00
         -2   -1    0    0    0  501 -0.00000000000E+00  0.00000000000E+00  0.26834993003E+02  0.26834993003E+02  0.00000000000E+00 0.  1.
          2   -1    0    0  501    0  0.00000000000E+00 -0.00000000000E+00 -0.83845391139E+03  0.83845391139E+03  0.00000000000E+00 0. -1.
         25    2    1    2    0    0 -0.70948162949E+02 -0.74920889679E+02 -0.41611168168E+03  0.44659111512E+03  0.12509161019E+03 0.  0.
          5    1    3    3  502    0 -0.50541067650E+02 -0.90986901842E+01 -0.42893839788E+02  0.67041327359E+02  0.41800000000E+01 0. -1.
         -5    1    3    3    0  502 -0.20407095298E+02 -0.65822199495E+02 -0.37321784189E+03  0.37954978776E+03  0.41800000000E+01 0. -1.
        -11    1    1    2    0    0  0.26404826434E+02  0.86652512757E+02 -0.24063600670E+03  0.25712168432E+03  0.00000000000E+00 0. -1.
         11    1    1    2    0    0  0.44543336515E+02 -0.11731623078E+02 -0.15487123001E+03  0.16157610496E+03  0.00000000000E+00 0.  1.
</event>
<event>
 7    1  0.2688177E-009  0.9847167E+02  0.7561462E-02  0.1283543E+00
         -1   -1    0    0    0  501 -0.00000000000E+00  0.00000000000E+00  0.11603131403E+03  0.11603131403E+03  0.00000000000E+00 0.  1.
          1   -1    0    0  501    0  0.00000000000E+00 -0.00000000000E+00 -0.14977517171E+03  0.14977517171E+03  0.00000000000E+00 0. -1.
         25    2    1    2    0    0 -0.31809013923E+01 -0.75157914422E+02 -0.26596944108E+02  0.14837410024E+03  0.12509454805E+03 0.  0.
          5    1    3    3  502    0 -0.36379484355E+02 -0.67051778604E+02  0.30040592821E+02  0.82093346338E+02  0.41800000000E+01 0. -1.
         -5    1    3    3    0  502  0.33198582963E+02 -0.81061358180E+01 -0.56637536928E+02  0.66280753903E+02  0.41800000000E+01 0. -1.
        -11    1    1    2    0    0  0.14699463089E+02  0.57918494441E+01 -0.37615682300E+02  0.40799010894E+02  0.00000000000E+00 0. -1.
         11    1    1    2    0    0 -0.11518561697E+02  0.69366064978E+02  0.30468768728E+02  0.76633374596E+02  0.00000000000E+00 0.  1.
</event>
<event>
 7    1  0.2688177E-009  0.9734509E+02  0.7561462E-02  0.1285980E+00
         -1   -1    0    0    0  501 -0.00000000000E+00  0.00000000000E+00  0.33464572533E+02  0.33464572533E+02  0.00000000000E+00 0.  1.
          1   -1    0    0  501    0  0.00000000000E+00 -0.00000000000E+00 -0.38433466768E+03  0.38433466768E+03  0.00000000000E+00 0. -1.
         25    2    1    2    0    0 -0.45060148929E+01  0.26839546299E+02 -0.25015639413E+03  0.28100795121E+03  0.12508629702E+03 0.  0.
          5    1    3    3  502    0 -0.62729385713E+02  0.10068343626E+01 -0.14414204228E+03  0.15725899116E+03  0.41800000000E+01 0.  1.
         -5    1    3    3    0  502  0.58223370820E+02  0.25832711937E+02 -0.10601435185E+03  0.12374896005E+03  0.41800000000E+01 0.  1.
        -11    1    1    2    0    0 -0.23964047797E+01 -0.46799088920E+02 -0.16049362544E+02  0.49532610649E+02  0.00000000000E+00 0.  1.
         11    1    1    2    0    0  0.69024196726E+01  0.19959542621E+02 -0.84664338472E+02  0.87258678353E+02  0.00000000000E+00 0. -1.
</event>
<event>
 7    1  0.2688177E-009  0.1014769E+03  0.7561462E-02  0.1277220E+00
         -1   -1    0    0    0  501 -0.00000000000E+00  0.00000000000E+00  0.76902290461E+02  0.76902290461E+02  0.00000000000E+00 0.  1.
          1   -1    0    0  501    0  0.00000000000E+00 -0.00000000000E+00 -0.23242706588E+03  0.23242706588E+03  0.00000000000E+00 0. -1.
         25    2    1    2    0    0  0.22666779950E+02 -0.61272119082E+02 -0.39325986983E+02  0.14649807407E+03  0.12508835663E+03 0.  0.
          5    1    3    3  502    0  0.69892160546E+02 -0.39583714542E+02  0.12377028157E+01  0.80441213758E+02  0.41800000000E+01 0.  1.
         -5    1    3    3    0  502 -0.47225380596E+02 -0.21688404541E+02 -0.40563689799E+02  0.66056860311E+02  0.41800000000E+01 0.  1.
        -11    1    1    2    0    0  0.47625834964E+01  0.21837269435E+02 -0.11244925569E+03  0.11464895832E+03  0.00000000000E+00 0. -1.
         11    1    1    2    0    0 -0.27429363446E+02  0.39434849647E+02 -0.37495327443E+01  0.48182323954E+02  0.00000000000E+00 0.  1.
</event>
<event>
 7    1  0.2688177E-009  0.2313612E+03  0.7561462E-02  0.1125685E+00
         -1   -1    0    0    0  501 -0.00000000000E+00  0.00000000000E+00  0.35883442935E+03  0.35883442935E+03  0.00000000000E+00 0.  1.
          1   -1    0    0  501    0  0.00000000000E+00 -0.00000000000E+00 -0.18129834395E+03  0.18129834395E+03  0.00000000000E+00 0. -1.
         25    2    1    2    0    0  0.16468816612E+03 -0.12192167163E+03 -0.20943359742E+02  0.24098502912E+03  0.12509226144E+03 0.  0.
          5    1    3    3  502    0  0.49510663692E+02 -0.11417486041E+03 -0.13118536770E+02  0.12520692064E+03  0.41800000000E+01 0. -1.
         -5    1    3    3    0  502  0.11517750243E+03 -0.77468112189E+01 -0.78248229718E+01  0.11577810848E+03  0.41800000000E+01 0. -1.
        -11    1    1    2    0    0 -0.85124042663E+02  0.10487166650E+02  0.62068209450E+02  0.10587042046E+03  0.00000000000E+00 0.  1.
         11    1    1    2    0    0 -0.79564123454E+02  0.11143450498E+03  0.13641123569E+03  0.19327732372E+03  0.00000000000E+00 0. -1.
</event>
<event>
 7    1  0.2688177E-009  0.1002836E+03  0.7561462E-02  0.1279701E+00
          2   -1    0    0  501    0  0.00000000000E+00  0.00000000000E+00  0.12324862677E+03  0.12324862677E+03  0.00000000000E+00 0. -1.
         -2   -1    0    0    0  501 -0.00000000000E+00 -0.00000000000E+00 -0.14646420673E+03  0.14646420673E+03  0.00000000000E+00 0.  1.
         25    2    1    2    0    0  0.36542852789E+02 -0.10465051027E+02 -0.84673358578E+02  0.15575108520E+03  0.12507567911E+03 0.  0.
          5    1    3    3  502    0 -0.22371681059E+02 -0.38810841995E+02  0.43710199364E+01  0.45203448818E+02  0.41800000000E+01 0.  1.
         -5    1    3    3    0  502  0.58914533848E+02  0.28345790968E+02 -0.89044378514E+02  0.11054763638E+03  0.41800000000E+01 0.  1.
        -11    1    1    2    0    0 -0.29891299286E+02 -0.33903425815E+02  0.50511101119E+02  0.67781290865E+02  0.00000000000E+00 0. -1.
         11    1    1    2    0    0 -0.66515535032E+01  0.44368476842E+02  0.10946677495E+02  0.46180457441E+02  0.00000000000E+00 0.  1.
</event>
<event>
 7    1  0.2688177E-009  0.1648627E+03  0.7561462E-02  0.1183314E+00
          2   -1    0    0  501    0  0.00000000000E+00  0.00000000000E+00  0.94881110050E+03  0.94881110050E+03  0.00000000000E+00 0.  1.
         -2   -1    0    0    0  501 -0.00000000000E+00 -0.00000000000E+00 -0.46247915068E+02  0.46247915068E+02  0.00000000000E+00 0. -1.
         25    2    1    2    0    0  0.11624484269E+03  0.80522905073E+02  0.73332310549E+03  0.75723576619E+03  0.12508567806E+03 0.  0.
          5    1    3    3  502    0  0.12519169584E+03  0.34204300152E+02  0.63450504802E+03  0.64765501868E+03  0.41800000000E+01 0.  1.
         -5    1    3    3    0  502 -0.89468531443E+01  0.46318604921E+02  0.98818057469E+02  0.10958074751E+03  0.41800000000E+01 0.  1.
        -11    1    1    2    0    0  0.12360096356E+01 -0.20601133201E+02  0.69427413381E+02  0.72429967125E+02  0.00000000000E+00 0.  1.
         11    1    1    2    0    0 -0.11748085233E+03 -0.59921771872E+02  0.99812666560E+02  0.16539328225E+03  0.00000000000E+00 0. -1.
</event>
<event>
 7    1  0.2963467E-009  0.8734910E+02  0.7561462E-02  0.1309401E+00
         -1   -1    0    0    0  501 -0.00000000000E+00  0.00000000000E+00  0.94775639356E+02  0.94775639356E+02  0.00000000000E+00 0.  1.
          1   -1    0    0  501    0  0.00000000000E+00 -0.00000000000E+00 -0.24216352021E+03  0.24216352021E+03  0.00000000000E+00 0. -1.
         25    2    1    2    0    0  0.64167757989E+02  0.11142292620E+02 -0.17149292373E+03  0.22203223193E+03  0.12508731860E+03 0.  0.
          5    1    3    3  502    0  0.45408029648E+02  0.41664831908E+01 -0.18939765056E+03  0.19485428190E+03  0.41800000000E+01 0. -1.
         -5    1    3    3    0  502  0.18759728341E+02  0.69758094294E+01  0.17904726830E+02  0.27177950023E+02  0.41800000000E+01 0. -1.
        -11    1    1    2    0    0 -0.24068864067E+02 -0.48191123646E+02  0.26961403309E+02  0.60237960492E+02  0.00000000000E+00 0.  1.
         11    1    1    2    0    0 -0.40098893922E+02  0.37048831026E+02 -0.28563604340E+01  0.54668967149E+02  0.00000000000E+00 0. -1.
</event>
<event>
 7    1  0.2688177E-009  0.1176356E+03  0.7561462E-02  0.1247049E+00
          1   -1    0    0  501    0  0.00000000000E+00  0.00000000000E+00  0.11925588639E+03  0.11925588639E+03  0.00000000000E+00 0. -1.
         -1   -1    0    0    0  501 -0.00000000000E+00 -0.00000000000E+00 -0.17553120028E+03  0.17553120028E+03  0.00000000000E+00 0.  1.
         25    2    1    2    0    0  0.49666293552E+02 -0.58437449912E+02 -0.88694751833E+02  0.17142779576E+03  0.12505620292E+03 0.  0.
          5    1    3    3  502    0  0.68200712895E+02 -0.43145453743E+01 -0.91168239640E+02  0.11401347666E+03  0.41800000000E+01 0. -1.
         -5    1    3    3    0  502 -0.18534419343E+02 -0.54122904538E+02  0.24734878063E+01  0.57414319102E+02  0.41800000000E+01 0. -1.
        -11    1    1    2    0    0 -0.46150155334E+02 -0.45372208986E+01  0.38119738172E+02  0.60029473170E+02  0.00000000000E+00 0. -1.
         11    1    1    2    0    0 -0.35161382187E+01  0.62974670811E+02 -0.57003002292E+01  0.63329817736E+02  0.00000000000E+00 0.  1.
</event>
<event>
 7    1  0.2688177E-009  0.1652879E+03  0.7561462E-02  0.1182853E+00
         -1   -1    0    0    0  501 -0.00000000000E+00  0.00000000000E+00  0.25753341329E+03  0.25753341329E+03  0.00000000000E+00 0.  1.
          1   -1    0    0  501    0  0.00000000000E+00 -0.00000000000E+00 -0.24502213346E+03  0.24502213346E+03  0.00000000000E+00 0. -1.
         25    2    1    2    0    0  0.12091050267E+03  0.74737577804E+02 -0.16944205549E+03  0.25409332215E+03  0.12509097090E+03 0.  0.
          5    1    3    3  502    0  0.15861299857E+02 -0.17212320290E+02  0.10762897922E+02  0.26098988000E+02  0.41800000000E+01 0.  1.
         -5    1    3    3    0  502  0.10504920282E+03  0.91949898094E+02 -0.18020495341E+03  0.22799433415E+03  0.41800000000E+01 0.  1.
        -11    1    1    2    0    0 -0.12416972938E+03 -0.37441835195E+02  0.12376186396E+03  0.17926798847E+03  0.00000000000E+00 0. -1.
         11    1    1    2    0    0  0.32592267079E+01 -0.37295742609E+02  0.58191471352E+02  0.69194236130E+02  0.00000000000E+00 0.  1.
</event>
<event>
 7    1  0.2688177E-009  0.1259573E+03  0.7561462E-02  0.1233581E+00
          4   -1    0    0  501    0  0.00000000000E+00  0.00000000000E+00  0.35352595776E+02  0.35352595776E+02  0.00000000000E+00 0. -1.
         -4   -1    0    0    0  501 -0.00000000000E+00 -0.00000000000E+00 -0.76228998882E+03  0.76228998882E+03  0.00000000000E+00 0.  1.
         25    2    1    2    0    0  0.89161030993E+02 -0.68042362696E+02 -0.56527416436E+03  0.58971356967E+03  0.12509101001E+03 0.  0.
          5    1    3    3  502    0  0.58612264096E+02 -0.36737710948E+01 -0.45207381693E+03  0.45589154681E+03  0.41800000000E+01 0.  1.
         -5    1    3    3    0  502  0.30548766896E+02 -0.64368591601E+02 -0.11320034743E+03  0.13382202286E+03  0.41800000000E+01 0.  1.
        -11    1    1    2    0    0 -0.62313198165E+02  0.71218990549E+02 -0.87091759952E+02  0.12860814100E+03  0.00000000000E+00 0. -1.
         11    1    1    2    0    0 -0.26847832828E+02 -0.31766278525E+01 -0.74571468731E+02  0.79320873928E+02  0.00000000000E+00 0.  1.
</event>
<event>
 7    1  0.2688177E-009  0.1274925E+03  0.7561462E-02  0.1231225E+00
          2   -1    0    0  501    0  0.00000000000E+00  0.00000000000E+00  0.36793825153E+03  0.36793825153E+03  0.00000000000E+00 0. -1.
         -2   -1    0    0    0  501 -0.00000000000E+00 -0.00000000000E+00 -0.12966835718E+03  0.12966835718E+03  0.00000000000E+00 0.  1.
         25    2    1    2    0    0  0.10222165555E+03 -0.51034313959E+02  0.29626353264E+03  0.34128114303E+03  0.12508784816E+03 0.  0.
          5    1    3    3  502    0  0.19989587180E+02 -0.54253342771E+02  0.35891430883E+02  0.68181199816E+02  0.41800000000E+01 0. -1.
         -5    1    3    3    0  502  0.82232068367E+02  0.32190288121E+01  0.26037210175E+03  0.27309994322E+03  0.41800000000E+01 0. -1.
        -11    1    1    2    0    0 -0.28128141674E+02  0.95945443578E+01  0.24075309607E+02  0.38247459630E+02  0.00000000000E+00 0. -1.
         11    1    1    2    0    0 -0.74093513874E+02  0.41439769601E+02 -0.82068947901E+02  0.11807800605E+03  0.00000000000E+00 0.  1.
</event>
<event>
 7    1  0.2688177E-009  0.1499487E+03  0.7561462E-02  0.1200536E+00
          3   -1    0    0  501    0  0.00000000000E+00  0.00000000000E+00  0.31602377451E+03  0.31602377451E+03  0.00000000000E+00 0. -1.
         -3   -1    0    0    0  501 -0.00000000000E+00 -0.00000000000E+00 -0.97413053153E+02  0.97413053153E+02  0.00000000000E+00 0.  1.
         25    2    1    2    0    0  0.69973087935E+02  0.10169969017E+03  0.19255196796E+03  0.26069630512E+03  0.12508894085E+03 0.  0.
          5    1    3    3  502    0  0.47172277235E+02 -0.20192431410E+02  0.51090807148E+02  0.72530690062E+02  0.41800000000E+01 0.  1.
         -5    1    3    3    0  502  0.22800810699E+02  0.12189212158E+03  0.14146116082E+03  0.18816561506E+03  0.41800000000E+01 0.  1.
        -11    1    1    2    0    0 -0.43425012283E+02 -0.75138554288E+02  0.57212841524E+02  0.10394634802E+03  0.00000000000E+00 0. -1.
         11    1    1    2    0    0 -0.26548075652E+02 -0.26561135881E+02 -0.31154088128E+02  0.48794174521E+02  0.00000000000E+00 0.  1.
</event>
<event>
 7    1  0.2688177E-009  0.7576890E+02  0.7561462E-02  0.1341506E+00
          1   -1    0    0  501    0  0.00000000000E+00  0.00000000000E+00  0.10102234311E+03  0.10102234311E+03  0.00000000000E+00 0. -1.
         -1   -1    0    0    0  501 -0.00000000000E+00 -0.00000000000E+00 -0.11713359007E+03  0.11713359007E+03  0.00000000000E+00 0.  1.
         25    2    1    2    0    0  0.37377492320E-01 -0.10394016731E+02  0.91327324024E+01  0.12585328674E+03  0.12509039132E+03 0.  0.
          5    1    3    3  502    0  0.55291636934E+02  0.13131244946E+02  0.27003446292E+02  0.63057538965E+02  0.41800000000E+01 0. -1.
         -5    1    3    3    0  502 -0.55254259442E+02 -0.23525261677E+02 -0.17870713889E+02  0.62795747773E+02  0.41800000000E+01 0. -1.
        -11    1    1    2    0    0  0.14952337518E+02 -0.17626985746E+01 -0.54895889092E+02  0.56923089715E+02  0.00000000000E+00 0.  1.
         11    1    1    2    0    0 -0.14989715010E+02  0.12156715306E+02  0.29651909728E+02  0.35379556719E+02  0.00000000000E+00 0. -1.
</event>
<event>
 7    1  0.2688177E-009  0.6637993E+02  0.7561462E-02  0.1372855E+00
          2   -1    0    0  501    0  0.00000000000E+00  0.00000000000E+00  0.11728910135E+03  0.11728910135E+03  0.00000000000E+00 0.  1.
         -2   -1    0    0    0  501 -0.00000000000E+00 -0.00000000000E+00 -0.11941958976E+03  0.11941958976E+03  0.00000000000E+00 0. -1.
         25    2    1    2    0    0  0.17288569172E+01 -0.35298075530E+02 -0.32360780627E+02  0.13395361782E+03  0.12508960198E+03 0.  0.
          5    1    3    3  502    0  0.54355822924E+01 -0.19809777634E+02  0.47760241259E+02  0.52158277290E+02  0.41800000000E+01 0. -1.
         -5    1    3    3    0  502 -0.37067253752E+01 -0.15488297895E+02 -0.80121021885E+02  0.81795340532E+02  0.41800000000E+01 0. -1.
        -11    1    1    2    0    0 -0.31009874604E+02  0.52789860137E+02  0.31028800255E+02  0.68637949427E+02  0.00000000000E+00 0.  1.
         11    1    1    2    0    0  0.29281017687E+02 -0.17491784607E+02 -0.79850804317E+00  0.34117123862E+02  0.00000000000E+00 0. -1.
</event>
<event>
 7    1  0.2688177E-009  0.9488250E+02  0.7561462E-02  0.1291441E+00
          2   -1    0    0  501    0  0.00000000000E+00  0.00000000000E+00  0.11255241181E+03  0.11255241181E+03  0.00000000000E+00 0. -1.
         -2   -1    0    0    0  501 -0.00000000000E+00 -0.00000000000E+00 -0.13622488781E+03  0.13622488781E+03  0.00000000000E+00 0.  1.
         25    2    1    2    0    0  0.47206392305E+02 -0.30536114973E+00  0.21768323135E+02  0.13546241990E+03  0.12509064950E+03 0.  0.
          5    1    3    3  502    0  0.39890488687E+02  0.48144836006E+02  0.48728654427E+02  0.79379660392E+02  0.41800000000E+01 0.  1.
         -5    1    3    3    0  502  0.73159036181E+01 -0.48450197155E+02 -0.26960331292E+02  0.56082759503E+02  0.41800000000E+01 0.  1.
        -11    1    1    2    0    0  0.15349030303E+02  0.75487059306E+00  0.18373087872E+02  0.23952722576E+02  0.00000000000E+00 0. -1.
         11    1    1    2    0    0 -0.62555422608E+02 -0.44950944332E+00 -0.63813887006E+02  0.89362157154E+02  0.00000000000E+00 0.  1.
</event>
<event>
 7    1  0.2688177E-009  0.1042018E+03  0.7561462E-02  0.1271700E+00
          2   -1    0    0  501    0  0.00000000000E+00  0.00000000000E+00  0.39633693241E+03  0.39633693241E+03  0.00000000000E+00 0. -1.
         -2   -1    0    0    0  501 -0.00000000000E+00 -0.00000000000E+00 -0.49986951716E+02  0.49986951716E+02  0.00000000000E+00 0.  1.
         25    2    1    2    0    0  0.25063965814E+02 -0.23212904809E+02  0.31385477164E+03  0.33958561488E+03  0.12508609362E+03 0.  0.
          5    1    3    3  502    0  0.37045409799E+02 -0.67676193539E+02  0.14246880385E+03  0.16207178049E+03  0.41800000000E+01 0.  1.
         -5    1    3    3    0  502 -0.11981443985E+02  0.44463288731E+02  0.17138596779E+03  0.17751383439E+03  0.41800000000E+01 0.  1.
        -11    1    1    2    0    0  0.19520775930E+00 -0.27892342643E+02 -0.15771023609E+02  0.32042878614E+02  0.00000000000E+00 0.  1.
         11    1    1    2    0    0 -0.25259173573E+02  0.51105247452E+02  0.48266232660E+02  0.74695390634E+02  0.00000000000E+00 0. -1.
</event>
<event>
 7    1  0.2688177E-009  0.9490058E+02  0.7561462E-02  0.1291400E+00
         -2   -1    0    0    0  501 -0.00000000000E+00  0.00000000000E+00  0.15350751747E+03  0.15350751747E+03  0.00000000000E+00 0. -1.
          2   -1    0    0  501    0  0.00000000000E+00 -0.00000000000E+00 -0.12676900400E+03  0.12676900400E+03  0.00000000000E+00 0.  1.
         25    2    1    2    0    0 -0.45007779954E+02  0.75188849958E+02  0.24176169811E+02  0.15463213206E+03  0.12509015014E+03 0.  0.
          5    1    3    3  502    0 -0.49079081321E+02  0.45517363938E+02  0.71779367399E+02  0.98236126896E+02  0.41800000000E+01 0. -1.
         -5    1    3    3    0  502  0.40713013677E+01  0.29671486020E+02 -0.47603197588E+02  0.56396005160E+02  0.41800000000E+01 0. -1.
        -11    1    1    2    0    0  0.24092087551E+02 -0.14080234175E+02 -0.39649743902E+02  0.48484882886E+02  0.00000000000E+00 0.  1.
         11    1    1    2    0    0  0.20915692403E+02 -0.61108615782E+02  0.42212087563E+02  0.77159506530E+02  0.00000000000E+00 0. -1.
</event>
<event>
 7    1  0.2688177E-009  0.1063551E+03  0.7561462E-02  0.1267473E+00
         -1   -1    0    0    0  501 -0.00000000000E+00  0.00000000000E+00  0.65982452833E+02  0.65982452833E+02  0.00000000000E+00 0.  1.
          1   -1    0    0  501    0  0.00000000000E+00 -0.00000000000E+00 -0.29453534357E+03  0.29453534357E+03  0.00000000000E+00 0. -1.
         25    2    1    2    0    0  0.43485067370E+02 -0.72445148980E+02 -0.94720393126E+02  0.17821183406E+03  0.12509298234E+03 0.  0.
          5    1    3    3  502    0 -0.80550919963E+01 -0.25600659973E+02  0.26753962987E+02  0.38125126015E+02  0.41800000000E+01 0. -1.
         -5    1    3    3    0  502  0.51540159367E+02 -0.46844489007E+02 -0.12147435611E+03  0.14008670805E+03  0.41800000000E+01 0. -1.
        -11    1    1    2    0    0 -0.59849732191E+02  0.23725175641E+02 -0.41391562142E+02  0.76538459738E+02  0.00000000000E+00 0.  1.
         11    1    1    2    0    0  0.16364664820E+02  0.48719973339E+02 -0.92440935469E+02  0.10576750260E+03  0.00000000000E+00 0. -1.
</event>
<event>
 7    1  0.2688177E-009  0.6470274E+02  0.7561462E-02  0.1379093E+00
          2   -1    0    0  501    0  0.00000000000E+00  0.00000000000E+00  0.34815921724E+03  0.34815921724E+03  0.00000000000E+00 0. -1.
         -2   -1    0    0    0  501 -0.00000000000E+00 -0.00000000000E+00 -0.49509816695E+02  0.49509816695E+02  0.00000000000E+00 0.  1.
         25    2    1    2    0    0  0.29457582067E+02  0.51617611134E+02  0.23139811095E+03  0.26967605702E+03  0.12509181849E+03 0.  0.
          5    1    3    3  502    0  0.12640977408E+02  0.41114809318E+02  0.24267062600E+03  0.24648879686E+03  0.41800000000E+01 0. -1.
         -5    1    3    3    0  502  0.16816604659E+02  0.10502801816E+02 -0.11272515042E+02  0.23187260158E+02  0.41800000000E+01 0. -1.
        -11    1    1    2    0    0  0.57170019754E+01 -0.90677485490E+01 -0.21183389949E+02  0.23741191737E+02  0.00000000000E+00 0.  1.
         11    1    1    2    0    0 -0.35174584042E+02 -0.42549862585E+02  0.88434679545E+02  0.10425178519E+03  0.00000000000E+00 0. -1.
</event>
<event>
 7    1  0.2688177E-009  0.7508813E+02  0.7561462E-02  0.1343598E+00
         -2   -1    0    0    0  501 -0.00000000000E+00  0.00000000000E+00  0.44827030601E+02  0.44827030601E+02  0.00000000000E+00 0.  1.
          2   -1    0    0  501    0  0.00000000000E+00 -0.00000000000E+00 -0.26843389085E+03  0.26843389085E+03  0.00000000000E+00 0. -1.
         25    2    1    2    0    0  0.90924488228E+01 -0.10905087816E+02 -0.13961723386E+03  0.18799692510E+03  0.12509307851E+03 0.  0.
          5    1    3    3  502    0  0.12010851881E+02  0.45013073230E+02 -0.11953960740E+03  0.12836521126E+03  0.41800000000E+01 0.  1.
         -5    1    3    3    0  502 -0.29184030583E+01 -0.55918161046E+02 -0.20077626461E+02  0.59631713839E+02  0.41800000000E+01 0.  1.
        -11    1    1    2    0    0 -0.27217638531E+02  0.26873380110E+01 -0.97465120371E+02  0.10122979463E+03  0.00000000000E+00 0. -1.
         11    1    1    2    0    0  0.18125189708E+02  0.82177498048E+01  0.13475493987E+02  0.24034201713E+02  0.00000000000E+00 0.  1.
</event>
<event>
 7    1  0.2688177E-009  0.1298033E+03  0.7561462E-02  0.1227748E+00
         -2   -1    0    0    0  501 -0.00000000000E+00  0.00000000000E+00  0.69837363157E+02  0.69837363157E+02  0.00000000000E+00 0.  1.
          2   -1    0    0  501    0  0.00000000000E+00 -0.00000000000E+00 -0.29430172514E+03  0.29430172514E+03  0.00000000000E+00 0. -1.
         25    2    1    2    0    0  0.82421379022E+02 -0.30092387940E+02 -0.80617550771E+02  0.17274647343E+03  0.12507325477E+03 0.  0.
          5    1    3    3  502    0 -0.21617351896E+02 -0.34786939498E+02 -0.31399105841E+00  0.41170524080E+02  0.41800000000E+01 0. -1.
         -5    1    3    3    0  502  0.10403873092E+03  0.46945515580E+01 -0.80303559712E+02  0.13157594935E+03  0.41800000000E+01 0. -1.
        -11    1    1    2    0    0 -0.51070341439E+01 -0.20951127425E+02 -0.69001680589E+02  0.72292900496E+02  0.00000000000E+00 0. -1.
         11    1    1    2    0    0 -0.77314344878E+02  0.51043515366E+02 -0.74845130628E+02  0.11909971437E+03  0.00000000000E+00 0.  1.
</event>
<event>
 7    1  0.2688177E-009  0.1010614E+03  0.7561462E-02  0.1278080E+00
         -2   -1    0    0    0  501 -0.00000000000E+00  0.00000000000E+00  0.11133399586E+03  0.11133399586E+03  0.00000000000E+00 0.  1.
          2   -1    0    0  501    0  0.00000000000E+00 -0.00000000000E+00 -0.15639578022E+03  0.15639578022E+03  0.00000000000E+00 0. -1.
         25    2    1    2    0    0 -0.13034336540E+02  0.67062826972E+02  0.52427600651E+01  0.14262377092E+03  0.12508691702E+03 0.  0.
          5    1    3    3  502    0  0.82464007219E+01 -0.80526455417E+01  0.50716513221E+02  0.52177440896E+02  0.41800000000E+01 0. -1.
         -5    1    3    3    0  502 -0.21280737261E+02  0.75115472514E+02 -0.45473753156E+02  0.90446330028E+02  0.41800000000E+01 0. -1.
        -11    1    1    2    0    0  0.31338760388E+02 -0.82171200943E+02 -0.50417781008E+02  0.10137147927E+03  0.00000000000E+00 0.  1.
         11    1    1    2    0    0 -0.18304423849E+02  0.15108373971E+02  0.11323658051E+00  0.23734525885E+02  0.00000000000E+00 0. -1.
</event>
<event>
 7    1  0.2982682E-009  0.1932492E+03  0.7561462E-02  0.1155563E+00
         -2   -1    0    0    0  501 -0.00000000000E+00  0.00000000000E+00  0.87091138699E+02  0.87091138699E+02  0.00000000000E+00 0.  1.
          2   -1    0    0  501    0  0.00000000000E+00 -0.00000000000E+00 -0.53724579674E+03  0.53724579674E+03  0.00000000000E+00 0. -1.
         25    2    1    2    0    0  0.13793600089E+03 -0.84363369211E+02 -0.98664923474E+02  0.22699027160E+03  0.12508516248E+03 0.  0.
          5    1    3    3  502    0  0.15437268237E+03 -0.95523192608E+02 -0.76814417187E+02  0.19716371998E+03  0.41800000000E+01 0. -1.
         -5    1    3    3    0  502 -0.16436681488E+02  0.11159823397E+02 -0.21850506287E+02  0.29826551621E+02  0.41800000000E+01 0. -1.
        -11    1    1    2    0    0 -0.37705204777E+02  0.74999542084E+02 -0.17709458333E+03  0.19598241050E+03  0.00000000000E+00 0.  1.
         11    1    1    2    0    0 -0.10023079611E+03  0.93638271268E+01 -0.17439515123E+03  0.20136425333E+03  0.00000000000E+00 0. -1.
</event>
<event>
 7    1  0.2688177E-009  0.9708195E+02  0.7561462E-02  0.1286555E+00
          2   -1    0    0  501    0  0.00000000000E+00  0.00000000000E+00  0.37757238078E+02  0.37757238078E+02  0.00000000000E+00 0.  1.
         -2   -1    0    0    0  501 -0.00000000000E+00 -0.00000000000E+00 -0.70877365948E+03  0.70877365948E+03  0.00000000000E+00 0. -1.
         25    2    1    2    0    0 -0.71025071353E+02  0.61586406295E+02 -0.53552653303E+03  0.55791946983E+03  0.12509205024E+03 0.  0.
          5    1    3    3  502    0 -0.19671549085E+02  0.20511093226E+02 -0.44513206120E+03  0.44605795486E+03  0.41800000000E+01 0. -1.
         -5    1    3    3    0  502 -0.51353522267E+02  0.41075313069E+02 -0.90394471829E+02  0.11186151496E+03  0.41800000000E+01 0. -1.
        -11    1    1    2    0    0  0.51143341552E+02 -0.22871911126E+02 -0.13380176020E+03  0.14505749458E+03  0.00000000000E+00 0. -1.
         11    1    1    2    0    0  0.19881729800E+02 -0.38714495168E+02 -0.16881281809E+01  0.43553933149E+02  0.00000000000E+00 0.  1.
</event>
<event>
 7    1  0.2688177E-009  0.1823688E+03  0.7561462E-02  0.1165530E+00
          2   -1    0    0  501    0  0.00000000000E+00  0.00000000000E+00  0.94241006781E+03  0.94241006781E+03  0.00000000000E+00 0. -1.
         -2   -1    0    0    0  501 -0.00000000000E+00 -0.00000000000E+00 -0.39787461562E+02  0.39787461562E+02  0.00000000000E+00 0.  1.
         25    2    1    2    0    0  0.11134166463E+03  0.11429858678E+03  0.49263159414E+03  0.53272308608E+03  0.12508743209E+03 0.  0.
          5    1    3    3  502    0 -0.23933416517E+02 -0.17285336184E+01  0.65588886448E+02  0.69965496355E+02  0.41800000000E+01 0.  1.
         -5    1    3    3    0  502  0.13527508115E+03  0.11602712040E+03  0.42704270770E+03  0.46275758972E+03  0.41800000000E+01 0.  1.
        -11    1    1    2    0    0 -0.45682544790E+02 -0.27652745526E+02  0.25263295335E+03  0.25821498475E+03  0.00000000000E+00 0. -1.
         11    1    1    2    0    0 -0.65659119845E+02 -0.86645841258E+02  0.15735805876E+03  0.19125945854E+03  0.00000000000E+00 0.  1.
</event>
<event>
 7    1  0.2688177E-009  0.6738336E+02  0.7561462E-02  0.1369224E+00
         -2   -1    0    0    0  501 -0.00000000000E+00  0.00000000000E+00  0.13105554681E+03  0.13105554681E+03  0.00000000000E+00 0.  1.
          2   -1    0    0  501    0  0.00000000000E+00 -0.00000000000E+00 -0.90974839036E+02  0.90974839036E+02  0.00000000000E+00 0. -1.
         25    2    1    2    0    0 -0.20332212113E+02  0.12313819684E+02  0.19418815520E+02  0.12880210202E+03  0.12509141491E+03 0.  0.
          5    1    3    3  502    0 -0.38268217793E+02  0.25100677405E+01  0.66739112683E+02  0.77086564944E+02  0.41800000000E+01 0.  1.
         -5    1    3    3    0  502  0.17936005680E+02  0.98037519430E+01 -0.47320297163E+02  0.51715537080E+02  0.41800000000E+01 0.  1.
        -11    1    1    2    0    0 -0.19119222971E+02  0.17466226561E+02  0.33323737655E+02  0.42202905689E+02  0.00000000000E+00 0.  1.
         11    1    1    2    0    0  0.39451435084E+02 -0.29780046245E+02 -0.12661845403E+02  0.51025378132E+02  0.00000000000E+00 0. -1.
</event>
<event>
 7    1  0.2999618E-009  0.1422359E+03  0.7561462E-02  0.1210352E+00
          1   -1    0    0  501    0  0.00000000000E+00  0.00000000000E+00  0.20211166497E+03  0.20211166497E+03  0.00000000000E+00 0. -1.
         -1   -1    0    0    0  501 -0.00000000000E+00 -0.00000000000E+00 -0.11422868374E+03  0.11422868374E+03  0.00000000000E+00 0.  1.
         25    2    1    2    0    0 -0.10144661392E+03 -0.16833703234E+02  0.20673933031E+02  0.16325170600E+03  0.12509563927E+03 0.  0.
          5    1    3    3  502    0 -0.13032793607E+03 -0.10069931660E+02  0.89693604060E+01  0.13109041257E+03  0.41800000000E+01 0. -1.
         -5    1    3    3    0  502  0.28881322142E+02 -0.67637715736E+01  0.11704572625E+02  0.32161293427E+02  0.41800000000E+01 0. -1.
        -11    1    1    2    0    0  0.17360652114E+02  0.33758007239E+02 -0.82514886393E+01  0.38846909264E+02  0.00000000000E+00 0.  1.
         11    1    1    2    0    0  0.84085961810E+02 -0.16924304005E+02  0.75460536841E+02  0.11424173344E+03  0.00000000000E+00 0. -1.
</event>
<event>
 7    1  0.2688177E-009  0.1020205E+03  0.7561462E-02  0.1276104E+00
         -1   -1    0    0    0  501 -0.00000000000E+00  0.00000000000E+00  0.14160887710E+02  0.14160887710E+02  0.00000000000E+00 0.  1.
          1   -1    0    0  501    0  0.00000000000E+00 -0.00000000000E+00 -0.92773746836E+03  0.92773746836E+03  0.00000000000E+00 0. -1.
         25    2    1    2    0    0  0.34021072872E+02 -0.12196279137E+02 -0.48335120193E+03  0.50058116073E+03  0.12508769503E+03 0.  0.
          5    1    3    3  502    0  0.69812935903E+02 -0.15661749001E+02 -0.43108473180E+03  0.43700189335E+03  0.41800000000E+01 0. -1.
         -5    1    3    3    0  502 -0.35791863032E+02  0.34654698632E+01 -0.52266470129E+02  0.63579267379E+02  0.41800000000E+01 0. -1.
        -11    1    1    2    0    0 -0.64286780435E+02  0.23038485495E+01 -0.24130429851E+03  0.24973158058E+03  0.00000000000E+00 0.  1.
         11    1    1    2    0    0  0.30265707563E+02  0.98924305879E+01 -0.18892108021E+03  0.19158561476E+03  0.00000000000E+00 0. -1.
</event>
<event>
 7    1  0.2688177E-009  0.1052402E+03  0.7561462E-02  0.1269647E+00
         -1   -1    0    0    0  501 -0.00000000000E+00  0.00000000000E+00  0.10037934905E+03  0.10037934905E+03  0.00000000000E+00 0.  1.
          1   -1    0    0  501    0  0.00000000000E+00 -0.00000000000E+00 -0.20529986031E+03  0.20529986031E+03  0.00000000000E+00 0. -1.
         25    2    1    2    0    0  0.43272018953E+02  0.68289824633E+02 -0.86842739273E+01  0.14918927051E+03  0.12508418784E+03 0.  0.
          5    1    3    3  502    0  0.28126418736E+02  0.10268261733E+02  0.54284287292E+02  0.62135246653E+02  0.41800000000E+01 0. -1.
         -5    1    3    3    0  502  0.15145600217E+02  0.58021562900E+02 -0.62968561219E+02  0.87054023855E+02  0.41800000000E+01 0. -1.
        -11    1    1    2    0    0 -0.20109235935E+02 -0.87663063676E+02 -0.55155802276E+02  0.10550524455E+03  0.00000000000E+00 0.  1.
         11    1    1    2    0    0 -0.23162783018E+02  0.19373239043E+02 -0.41080435058E+02  0.50984694299E+02  0.00000000000E+00 0. -1.
</event>
<event>
 7    1  0.2688177E-009  0.9778957E+02  0.7561462E-02  0.1285014E+00
         -1   -1    0    0    0  501 -0.00000000000E+00  0.00000000000E+00  0.40321969652E+03  0.40321969652E+03  0.00000000000E+00 0.  1.
          1   -1    0    0  501    0  0.00000000000E+00 -0.00000000000E+00 -0.34751331459E+02  0.34751331459E+02  0.00000000000E+00 0. -1.
         25    2    1    2    0    0  0.43469938788E+01  0.18872313291E+02  0.29303845805E+03  0.31921155955E+03  0.12509764702E+03 0.  0.
          5    1    3    3  502    0  0.50789328005E+02 -0.11730502374E+02  0.59995433563E+02  0.79586964847E+02  0.41800000000E+01 0. -1.
         -5    1    3    3    0  502 -0.46442334126E+02  0.30602815665E+02  0.23304302449E+03  0.23962459470E+03  0.41800000000E+01 0. -1.
        -11    1    1    2    0    0  0.25728048419E+02  0.23970976936E+02  0.13490166152E+02  0.37663308319E+02  0.00000000000E+00 0.  1.
         11    1    1    2    0    0 -0.30075042298E+02 -0.42843290227E+02  0.61939740864E+02  0.81096160112E+02  0.00000000000E+00 0. -1.
</event>
<event>
 7    1  0.2688177E-009  0.6990359E+02  0.7561462E-02  0.1360421E+00
          1   -1    0    0  501    0  0.00000000000E+00  0.00000000000E+00  0.48219767851E+03  0.48219767851E+03  0.00000000000E+00 0. -1.
         -1   -1    0    0    0  501 -0.00000000000E+00 -0.00000000000E+00 -0.28625157038E+02  0.28625157038E+02  0.00000000000E+00 0.  1.
         25    2    1    2    0    0 -0.58455325544E+01 -0.30405743683E+02  0.18263487698E+03  0.22352108932E+03  0.12508996595E+03 0.  0.
          5    1    3    3  502    0 -0.17924863828E+02 -0.65823108405E+01 -0.14627631630E+02  0.24414495005E+02  0.41800000000E+01 0.  1.
         -5    1    3    3    0  502  0.12079331273E+02 -0.23823432842E+02  0.19726250861E+03  0.19910659432E+03  0.41800000000E+01 0.  1.
        -11    1    1    2    0    0  0.32200905246E+02 -0.18884540859E+02  0.14088472746E+03  0.14574646004E+03  0.00000000000E+00 0. -1.
         11    1    1    2    0    0 -0.26355372691E+02  0.49290284541E+02  0.13005291703E+03  0.14155528619E+03  0.00000000000E+00 0.  1.
</event>
<event>
 7    1  0.2688177E-009  0.2068012E+03  0.7561462E-02  0.1144124E+00
         -2   -1    0    0    0  501 -0.00000000000E+00  0.00000000000E+00  0.11141491889E+03  0.11141491889E+03  0.00000000000E+00 0. -1.
          2   -1    0    0  501    0  0.00000000000E+00 -0.00000000000E+00 -0.44478162843E+03  0.44478162843E+03  0.00000000000E+00 0.  1.
         25    2    1    2    0    0  0.18629970280E+03  0.21522237565E+02 -0.25552997749E+03  0.34074326527E+03  0.12505845617E+03 0.  0.
          5    1    3    3  502    0  0.81621003078E+02 -0.52249485287E+02 -0.11853511493E+03  0.15316671547E+03  0.41800000000E+01 0. -1.
         -5    1    3    3    0  502  0.10467869972E+03  0.73771722852E+02 -0.13699486256E+03  0.18757654980E+03  0.41800000000E+01 0. -1.
        -11    1    1    2    0    0 -0.14651447202E+03 -0.24600964635E+02 -0.90045041884E+02  0.17372336498E+03  0.00000000000E+00 0.  1.
         11    1    1    2    0    0 -0.39785230781E+02  0.30787270709E+01  0.12208309838E+02  0.41729917059E+02  0.00000000000E+00 0. -1.
</event>
<event>
 7    1  0.2688177E-009  0.1371798E+03  0.7561462E-02  0.1217175E+00
         -1   -1    0    0    0  501 -0.00000000000E+00  0.00000000000E+00  0.10556177392E+03  0.10556177392E+03  0.00000000000E+00 0.  1.
          1   -1    0    0  501    0  0.00000000000E+00 -0.00000000000E+00 -0.20241498745E+03  0.20241498745E+03  0.00000000000E+00 0. -1.
         25    2    1    2    0    0  0.92630022425E+02 -0.12273745752E+02 -0.83765927359E+02  0.17718535580E+03  0.12508778452E+03 0.  0.
          5    1    3    3  502    0  0.71195305124E+02  0.49466875691E+02 -0.28084829374E+02  0.91224850251E+02  0.41800000000E+01 0. -1.
         -5    1    3    3    0  502  0.21434717301E+02 -0.61740621444E+02 -0.55681097986E+02  0.85960505553E+02  0.41800000000E+01 0. -1.
        -11    1    1    2    0    0 -0.16798611611E+02  0.38365276499E+02  0.16914612519E+02  0.45168483587E+02  0.00000000000E+00 0.  1.
         11    1    1    2    0    0 -0.75831410815E+02 -0.26091530747E+02 -0.30001898694E+02  0.85622921978E+02  0.00000000000E+00 0. -1.
</event>
<event>
 7    1  0.2688177E-009  0.1234173E+03  0.7561462E-02  0.1237564E+00
         -1   -1    0    0    0  501 -0.00000000000E+00  0.00000000000E+00  0.39310339009E+02  0.39310339009E+02  0.00000000000E+00 0.  1.
          1   -1    0    0  501    0  0.00000000000E+00 -0.00000000000E+00 -0.66555847411E+03  0.66555847411E+03  0.00000000000E+00 0. -1.
         25    2    1    2    0    0 -0.51824253561E+02 -0.73508515701E+02 -0.50666304824E+03  0.52957024370E+03  0.12509174005E+03 0.  0.
          5    1    3    3  502    0 -0.24003741987E+02 -0.10238416884E+03 -0.43289937632E+03  0.44550874298E+03  0.41800000000E+01 0.  1.
         -5    1    3    3    0  502 -0.27820511575E+02  0.28875653135E+02 -0.73763671919E+02  0.84061500720E+02  0.41800000000E+01 0.  1.
        -11    1    1    2    0    0  0.24821422181E+02  0.20729175619E+01  0.83781549127E+01  0.26279145078E+02  0.00000000000E+00 0.  1.
         11    1    1    2    0    0  0.27002831381E+02  0.71435598139E+02 -0.12796324178E+03  0.14901942434E+03  0.00000000000E+00 0. -1.
</event>
<event>
 7    1  0.2688177E-009  0.1006167E+03  0.7561462E-02  0.1279004E+00
          2   -1    0    0  501    0  0.00000000000E+00  0.00000000000E+00  0.59290741028E+02  0.59290741028E+02  0.00000000000E+00 0. -1.
         -2   -1    0    0    0  501 -0.00000000000E+00 -0.00000000000E+00 -0.30314508416E+03  0.30314508416E+03  0.00000000000E+00 0.  1.
         25    2    1    2    0    0  0.34288115990E+02  0.44675652792E+02 -0.20947136591E+03  0.25039684259E+03  0.12509491114E+03 0.  0.
          5    1    3    3  502    0 -0.37439530274E+02 -0.15804402372E+02 -0.86522042227E+02  0.95681940577E+02  0.41800000000E+01 0. -1.
         -5    1    3    3    0  502  0.71727646265E+02  0.60480055164E+02 -0.12294932368E+03  0.15471490201E+03  0.41800000000E+01 0. -1.
        -11    1    1    2    0    0  0.52166850467E+00 -0.27755627590E+02 -0.59666552180E+02  0.65808391942E+02  0.00000000000E+00 0.  1.
         11    1    1    2    0    0 -0.34809784495E+02 -0.16920025202E+02  0.25283574958E+02  0.46230590652E+02  0.00000000000E+00 0. -1.
</event>
<event>
 7    1  0.2688177E-009  0.9414697E+02  0.7561462E-02  0.1293109E+00
         -1   -1    0    0    0  501 -0.00000000000E+00  0.00000000000E+00  0.50965053735E+02  0.50965053735E+02  0.00000000000E+00 0.  1.
          1   -1    0    0  501    0  0.00000000000E+00 -0.00000000000E+00 -0.26416755276E+03  0.26416755276E+03  0.00000000000E+00 0. -1.
         25    2    1    2    0    0 -0.22136088674E+02 -0.33109131488E+02 -0.11293399995E+03  0.17316926121E+03  0.12508910294E+03 0.  0.
          5    1    3    3  502    0 -0.59310151394E+02 -0.42076098331E+02 -0.11330652889E+03  0.13469942093E+03  0.41800000000E+01 0.  1.
         -5    1    3    3    0  502  0.37174062721E+02  0.89669668422E+01  0.37252894029E+00  0.38469840282E+02  0.41800000000E+01 0.  1.
        -11    1    1    2    0    0  0.29833349228E+01  0.50815621330E+02 -0.10383131520E+03  0.11563766547E+03  0.00000000000E+00 0. -1.
         11    1    1    2    0    0  0.19152753751E+02 -0.17706489842E+02  0.35628161316E+01  0.26325679812E+02  0.00000000000E+00 0.  1.
</event>
<event>
 7    1  0.2688177E-009  0.1024172E+03  0.7561462E-02  0.1275293E+00
         -1   -1    0    0    0  501 -0.00000000000E+00  0.00000000000E+00  0.55110381590E+03  0.55110381590E+03  0.00000000000E+00 0.  1.
          1   -1    0    0  501    0  0.00000000000E+00 -0.00000000000E+00 -0.30242029786E+02  0.30242029786E+02  0.00000000000E+00 0. -1.
         25    2    1    2    0    0 -0.34101339030E+02 -0.94221046172E+01  0.15106707714E+03  0.19930003867E+03  0.12509023239E+03 0.  0.
          5    1    3    3  502    0  0.31762661078E+02  0.27613694256E+02  0.98383946827E+02  0.10708994417E+03  0.41800000000E+01 0.  1.
         -5    1    3    3    0  502 -0.65864000109E+02 -0.37035798873E+02  0.52683130317E+02  0.92210094504E+02  0.41800000000E+01 0.  1.
        -11    1    1    2    0    0  0.16072951559E+02 -0.35221219328E+02  0.87606894549E+02  0.95780175587E+02  0.00000000000E+00 0. -1.
         11    1    1    2    0    0  0.18028387471E+02  0.44643323945E+02  0.28218781442E+03  0.28626563143E+03  0.00000000000E+00 0.  1.
</event>
<event>
 7    1  0.2688177E-009  0.1696716E+03  0.7561462E-02  0.1178191E+00
         -2   -1    0    0    0  501 -0.00000000000E+00  0.00000000000E+00  0.61780040389E+02  0.61780040389E+02  0.00000000000E+00 0.  1.
          2   -1    0    0  501    0  0.00000000000E+00 -0.00000000000E+00 -0.56894862529E+03  0.56894862529E+03  0.00000000000E+00 0. -1.
         25    2    1    2    0    0  0.81376637416E+02 -0.11335353835E+03 -0.37322355420E+03  0.41762429356E+03  0.12507216874E+03 0.  0.
          5    1    3    3  502    0  0.31395505285E+02 -0.12986175779E+03 -0.24813573251E+03  0.28184848418E+03  0.41800000000E+01 0.  1.
         -5    1    3    3    0  502  0.49981132130E+02  0.16508219441E+02 -0.12508782169E+03  0.13577580938E+03  0.41800000000E+01 0.  1.
        -11    1    1    2    0    0  0.22567603156E+01  0.44459298370E+02 -0.81179027839E+02  0.92583782271E+02  0.00000000000E+00 0. -1.
         11    1    1    2    0    0 -0.83633397731E+02  0.68894239980E+02 -0.52766002866E+02  0.12052058985E+03  0.00000000000E+00 0.  1.
</event>
<event>
 7    1  0.2688177E-009  0.1248152E+03  0.7561462E-02  0.1235358E+00
         -2   -1    0    0    0  501 -0.00000000000E+00  0.00000000000E+00  0.31955817316E+02  0.31955817316E+02  0.00000000000E+00 0. -1.
          2   -1    0    0  501    0  0.00000000000E+00 -0.00000000000E+00 -0.85757546922E+03  0.85757546922E+03  0.00000000000E+00 0.  1.
         25    2    1    2    0    0  0.56260505150E+02 -0.71158143029E+02 -0.67187773387E+03  0.68941598669E+03  0.12508392255E+03 0.  0.
          5    1    3    3  502    0  0.67263248019E+02 -0.87768835047E+02 -0.65069205983E+03  0.66003434916E+03  0.41800000000E+01 0.  1.
         -5    1    3    3    0  502 -0.11002742869E+02  0.16610692017E+02 -0.21185674040E+02  0.29381637539E+02  0.41800000000E+01 0.  1.
        -11    1    1    2    0    0 -0.42604659717E+02 -0.34713812997E+01 -0.21965721050E+02  0.48059342682E+02  0.00000000000E+00 0. -1.
         11    1    1    2    0    0 -0.13655845433E+02  0.74629524329E+02 -0.13177619698E+03  0.15205595716E+03  0.00000000000E+00 0.  1.
</event>
<event>
 7    1  0.2688177E-009  0.2266666E+03  0.7561462E-02  0.1129008E+00
         -1   -1    0    0    0  501 -0.00000000000E+00  0.00000000000E+00  0.76586361153E+02  0.76586361153E+02  0.00000000000E+00 0.  1.
          1   -1    0    0  501    0  0.00000000000E+00 -0.00000000000E+00 -0.10779638058E+04  0.10779638058E+04  0.00000000000E+00 0. -1.
         25    2    1    2    0    0  0.19621766797E+03 -0.30618595129E+02 -0.86586068887E+03  0.89710735598E+03  0.12509198232E+03 0.  0.
          5    1    3    3  502    0  0.56456963698E+02 -0.69389772871E+02 -0.32118702666E+03  0.33343801197E+03  0.41800000000E+01 0.  1.
         -5    1    3    3    0  502  0.13976070428E+03  0.38771177742E+02 -0.54467366220E+03  0.56366934401E+03  0.41800000000E+01 0.  1.
        -11    1    1    2    0    0 -0.13782172220E+03  0.63408825451E+02 -0.99127445313E+02  0.18122294741E+03  0.00000000000E+00 0. -1.
         11    1    1    2    0    0 -0.58395945778E+02 -0.32790230322E+02 -0.36389310508E+02  0.76219863600E+02  0.00000000000E+00 0.  1.
</event>
<event>
 7    1  0.2688177E-009  0.1006821E+03  0.7561462E-02  0.1278868E+00
         -1   -1    0    0    0  501 -0.00000000000E+00  0.00000000000E+00  0.64202386347E+03  0.64202386347E+03  0.00000000000E+00 0.  1.
          1   -1    0    0  501    0  0.00000000000E+00 -0.00000000000E+00 -0.27732373583E+02  0.27732373583E+02  0.00000000000E+00 0. -1.
         25    2    1    2    0    0  0.18629196843E+02  0.53128121843E+02  0.50337157104E+03  0.52172768359E+03  0.12508874049E+03 0.  0.
          5    1    3    3  502    0  0.10401031944E+02  0.77023069549E+02  0.16552912357E+03  0.18291554843E+03  0.41800000000E+01 0. -1.
         -5    1    3    3    0  502  0.82281648989E+01 -0.23894947707E+02  0.33784244747E+03  0.33881213517E+03  0.41800000000E+01 0. -1.
        -11    1    1    2    0    0  0.31661448302E+02 -0.24606195947E+02  0.41965611912E+02  0.58043300825E+02  0.00000000000E+00 0.  1.
         11    1    1    2    0    0 -0.50290645145E+02 -0.28521925895E+02  0.68954306938E+02  0.89985252631E+02  0.00000000000E+00 0. -1.
</event>
<event>
 7    1  0.2688177E-009  0.1076530E+03  0.7561462E-02  0.1264979E+00
         -1   -1    0    0    0  501 -0.00000000000E+00  0.00000000000E+00  0.17417445632E+03  0.17417445632E+03  0.00000000000E+00 0.  1.
          1   -1    0    0  501    0  0.00000000000E+00 -0.00000000000E+00 -0.83723157524E+02  0.83723157524E+02  0.00000000000E+00 0. -1.
         25    2    1    2    0    0  0.38261249229E+02 -0.37508261058E+02  0.44729270288E+02  0.14324337677E+03  0.12508862669E+03 0.  0.
          5    1    3    3  502    0  0.89640818584E+01  0.34746467005E+02  0.53623852245E+02  0.64658036333E+02  0.41800000000E+01 0. -1.
         -5    1    3    3    0  502  0.29297167370E+02 -0.72254728063E+02 -0.88945819564E+01  0.78585340437E+02  0.41800000000E+01 0. -1.
        -11    1    1    2    0    0  0.19735298207E+02 -0.13460514558E+02  0.25285022252E+02  0.34785051355E+02  0.00000000000E+00 0.  1.
         11    1    1    2    0    0 -0.57996547436E+02  0.50968775616E+02  0.20437006251E+02  0.79869185715E+02  0.00000000000E+00 0. -1.
</event>
<event>
 7    1  0.3937230E-009  0.9896281E+02  0.7561462E-02  0.1282492E+00
         -1   -1    0    0    0  501 -0.00000000000E+00  0.00000000000E+00  0.42302523025E+02  0.42302523025E+02  0.00000000000E+00 0.  1.
          1   -1    0    0  501    0  0.00000000000E+00 -0.00000000000E+00 -0.41537605433E+03  0.41537605433E+03  0.00000000000E+00 0. -1.
         25    2    1    2    0    0  0.54289381470E+02 -0.28223700248E+02 -0.28371589625E+03  0.31604963107E+03  0.12509494521E+03 0.  0.
          5    1    3    3  502    0  0.56689677678E+02  0.35906454862E+02 -0.92824020770E+02  0.11461572444E+03  0.41800000000E+01 0.  1.
         -5    1    3    3    0  502 -0.24002962078E+01 -0.64130155110E+02 -0.19089187548E+03  0.20143390663E+03  0.41800000000E+01 0.  1.
        -11    1    1    2    0    0 -0.24971958330E+02 -0.99103402977E+00  0.15149320758E+02  0.29224694536E+02  0.00000000000E+00 0.  1.
         11    1    1    2    0    0 -0.29317423141E+02  0.29214734278E+02 -0.10450695581E+03  0.11240425175E+03  0.00000000000E+00 0. -1.
</event>
<event>
 7    1  0.2688177E-009  0.1644696E+03  0.7561462E-02  0.1183741E+00
          4   -1    0    0  501    0  0.00000000000E+00  0.00000000000E+00  0.15531075277E+03  0.15531075277E+03  0.00000000000E+00 0.  1.
         -4   -1    0    0    0  501 -0.00000000000E+00 -0.00000000000E+00 -0.23758569971E+03  0.23758569971E+03  0.00000000000E+00 0. -1.
         25    2    1    2    0    0 -0.37827701131E+02 -0.12964107773E+03  0.36308593215E+02  0.18762460024E+03  0.12508769990E+03 0.  0.
          5    1    3    3  502    0 -0.84059871558E+02 -0.82578271573E+02  0.25630869670E+02  0.12066336156E+03  0.41800000000E+01 0. -1.
         -5    1    3    3    0  502  0.46232170426E+02 -0.47062806152E+02  0.10677723545E+02  0.66961238678E+02  0.41800000000E+01 0. -1.
        -11    1    1    2    0    0 -0.19629261469E+01  0.85399708490E+02 -0.16335302205E+02  0.86970140780E+02  0.00000000000E+00 0.  1.
         11    1    1    2    0    0  0.39790627278E+02  0.44241369235E+02 -0.10224823796E+03  0.11830171147E+03  0.00000000000E+00 0. -1.
</event>
<event>
 7    1  0.2688177E-009  0.1431504E+03  0.7561462E-02  0.1209152E+00
          2   -1    0    0  501    0  0.00000000000E+00  0.00000000000E+00  0.10403404024E+04  0.10403404024E+04  0.00000000000E+00 0. -1.
         -2   -1    0    0    0  501 -0.00000000000E+00 -0.00000000000E+00 -0.27553889508E+02  0.27553889508E+02  0.00000000000E+00 0.  1.
         25    2    1    2    0    0  0.87156186445E+02  0.60169496082E+02  0.29910797189E+03  0.34107094236E+03  0.12508892749E+03 0.  0.
          5    1    3    3  502    0  0.11041213321E+03  0.58573025372E+02  0.28978840452E+03  0.31562070631E+03  0.41800000000E+01 0.  1.
         -5    1    3    3    0  502 -0.23255946770E+02  0.15964707099E+01  0.93195673773E+01  0.25450236050E+02  0.41800000000E+01 0.  1.
        -11    1    1    2    0    0 -0.69806957700E+02  0.51316311967E+01  0.37223125352E+03  0.37875513340E+03  0.00000000000E+00 0. -1.
         11    1    1    2    0    0 -0.17349228745E+02 -0.65301127278E+02  0.34144728753E+03  0.34806821619E+03  0.00000000000E+00 0.  1.
</event>
<event>
 7    1  0.2688177E-009  0.1655706E+03  0.7561462E-02  0.1182547E+00
          1   -1    0    0  501    0  0.00000000000E+00  0.00000000000E+00  0.47848707862E+02  0.47848707862E+02  0.00000000000E+00 0. -1.
         -1   -1    0    0    0  501 -0.00000000000E+00 -0.00000000000E+00 -0.70893687656E+03  0.70893687656E+03  0.00000000000E+00 0.  1.
         25    2    1    2    0    0 -0.46959737847E+02  0.14091089673E+03 -0.36542160440E+03  0.41381300097E+03  0.12508858066E+03 0.  0.
          5    1    3    3  502    0 -0.44964953659E+02  0.54331996731E+02 -0.29130235827E+03  0.29974714220E+03  0.41800000000E+01 0. -1.
         -5    1    3    3    0  502 -0.19947841878E+01  0.86578899995E+02 -0.74119246135E+02  0.11406585877E+03  0.41800000000E+01 0. -1.
        -11    1    1    2    0    0  0.14563674792E+02  0.11133679868E+02 -0.33008165717E+02  0.37757098072E+02  0.00000000000E+00 0.  1.
         11    1    1    2    0    0  0.32396063056E+02 -0.15204457659E+03 -0.26265839858E+03  0.30521548538E+03  0.00000000000E+00 0. -1.
</event>
<event>
 7    1  0.2688177E-009  0.1571312E+03  0.7561462E-02  0.1191974E+00
          2   -1    0    0  501    0  0.00000000000E+00  0.00000000000E+00  0.28934320257E+03  0.28934320257E+03  0.00000000000E+00 0. -1.
         -2   -1    0    0    0  501 -0.00000000000E+00 -0.00000000000E+00 -0.10184591525E+03  0.10184591525E+03  0.00000000000E+00 0.  1.
         25    2    1    2    0    0  0.64127253634E+02  0.11399103106E+03  0.69078373798E+02  0.19371826254E+03  0.12509469891E+03 0.  0.
          5    1    3    3  502    0 -0.24809716953E+02  0.80625120877E+02  0.20346504943E+02  0.86875686099E+02  0.41800000000E+01 0.  1.
         -5    1    3    3    0  502  0.88936970587E+02  0.33365910183E+02  0.48731868855E+02  0.10684257645E+03  0.41800000000E+01 0.  1.
        -11    1    1    2    0    0 -0.36394834229E+02 -0.93219689146E+02  0.33132238934E+02  0.10541460838E+03  0.00000000000E+00 0.  1.
         11    1    1    2    0    0 -0.27732419405E+02 -0.20771341914E+02  0.85286674582E+02  0.92056246894E+02  0.00000000000E+00 0. -1.
</event>
<event>
 7    1  0.2688177E-009  0.1078671E+03  0.7561462E-02  0.1264571E+00
         -2   -1    0    0    0  501 -0.00000000000E+00  0.00000000000E+00  0.20964007355E+02  0.20964007355E+02  0.00000000000E+00 0. -1.
          2   -1    0    0  501    0  0.00000000000E+00 -0.00000000000E+00 -0.65420214154E+03  0.65420214154E+03  0.00000000000E+00 0.  1.
         25    2    1    2    0    0  0.20482641002E+02 -0.99239328506E+01 -0.42738648248E+03  0.44589795076E+03  0.12509098313E+03 0.  0.
          5    1    3    3  502    0 -0.42692441315E+02 -0.32376540245E+02 -0.26074089871E+03  0.26622203808E+03  0.41800000000E+01 0. -1.
         -5    1    3    3    0  502  0.63175082317E+02  0.22452607394E+02 -0.16664558378E+03  0.17967591268E+03  0.41800000000E+01 0. -1.
        -11    1    1    2    0    0  0.22955480511E+02 -0.28656240957E+02 -0.44012238130E+02  0.57316763137E+02  0.00000000000E+00 0. -1.
         11    1    1    2    0    0 -0.43438121513E+02  0.38580173807E+02 -0.16183941357E+03  0.17195143500E+03  0.00000000000E+00 0.  1.
</event>
<event>
 7    1  0.2688177E-009  0.1243850E+03  0.7561462E-02  0.1236034E+00
         -2   -1    0    0    0  501 -0.00000000000E+00  0.00000000000E+00  0.63490359332E+02  0.63490359332E+02  0.00000000000E+00 0. -1.
          2   -1    0    0  501    0  0.00000000000E+00 -0.00000000000E+00 -0.37239582577E+03  0.37239582577E+03  0.00000000000E+00 0.  1.
         25    2    1    2    0    0 -0.85785718360E+02 -0.45032373753E+02 -0.22511304738E+03  0.27515254377E+03  0.12508370830E+03 0.  0.
          5    1    3    3  502    0 -0.23974454728E+02  0.39559245423E+02 -0.11022745313E+03  0.11961301017E+03  0.41800000000E+01 0.  1.
         -5    1    3    3    0  502 -0.61811263632E+02 -0.84591619176E+02 -0.11488559425E+03  0.15553953360E+03  0.41800000000E+01 0.  1.
        -11    1    1    2    0    0  0.51413948729E+02  0.32819440548E+02 -0.10285103397E+03  0.11957777799E+03  0.00000000000E+00 0.  1.
         11    1    1    2    0    0  0.34371769631E+02  0.12212933205E+02  0.19058614909E+02  0.41155863340E+02  0.00000000000E+00 0. -1.
</event>
<event>
 7    1  0.2688177E-009  0.1075830E+03  0.7561462E-02  0.1265112E+00
          4   -1    0    0  501    0  0.00000000000E+00  0.00000000000E+00  0.14263192413E+02  0.14263192413E+02  0.00000000000E+00 0. -1.
         -4   -1    0    0    0  501 -0.00000000000E+00 -0.00000000000E+00 -0.11213484580E+04  0.11213484580E+04  0.00000000000E+00 0.  1.
         25    2    1    2    0    0  0.36635243115E+02  0.50340811521E+02 -0.67107609739E+03  0.68546873724E+03  0.12509165802E+03 0.  0.
          5    1    3    3  502    0 -0.25896641434E+02  0.58179320904E+02 -0.48001148626E+03  0.48423544765E+03  0.41800000000E+01 0.  1.
         -5    1    3    3    0  502  0.62531884549E+02 -0.78385093826E+01 -0.19106461113E+03  0.20123328960E+03  0.41800000000E+01 0.  1.
        -11    1    1    2    0    0 -0.25829481265E+02 -0.65018042533E+02 -0.42029519656E+03  0.42607811515E+03  0.00000000000E+00 0.  1.
         11    1    1    2    0    0 -0.10805761850E+02  0.14677231012E+02 -0.15713971643E+02  0.24064798028E+02  0.00000000000E+00 0. -1.
</event>
<event>
 7    1  0.2688177E-009  0.3299259E+03  0.7561462E-02  0.1071170E+00
          2   -1    0    0  501    0  0.00000000000E+00  0.00000000000E+00  0.14486169102E+04  0.14486169102E+04  0.00000000000E+00 0. -1.
         -2   -1    0    0    0  501 -0.00000000000E+00 -0.00000000000E+00 -0.77846148642E+02  0.77846148642E+02  0.00000000000E+00 0.  1.
         25    2    1    2    0    0 -0.90691013124E+02  0.30384476972E+03  0.67077172212E+03  0.75241593098E+03  0.12509406878E+03 0.  0.
          5    1    3    3  502    0  0.25292029863E+02  0.11619280820E+03  0.20506998351E+03  0.23708991119E+03  0.41800000000E+01 0.  1.
         -5    1    3    3    0  502 -0.11598304299E+03  0.18765196151E+03  0.46570173861E+03  0.51532601979E+03  0.41800000000E+01 0.  1.
        -11    1    1    2    0    0  0.57866086335E+02 -0.25423190910E+03  0.48112412861E+03  0.54723192037E+03  0.00000000000E+00 0.  1.
         11    1    1    2    0    0  0.32824926789E+02 -0.49612860623E+02  0.21887491087E+03  0.22681520753E+03  0.00000000000E+00 0. -1.
</event>
<event>
 7    1  0.2688177E-009  0.7069001E+02  0.7561462E-02  0.1357762E+00
         -3   -1    0    0    0  501 -0.00000000000E+00  0.00000000000E+00  0.80223575973E+02  0.80223575973E+02  0.00000000000E+00 0.  1.
          3   -1    0    0  501    0  0.00000000000E+00 -0.00000000000E+00 -0.21828945527E+03  0.21828945527E+03  0.00000000000E+00 0. -1.
         25    2    1    2    0    0 -0.27886589859E+02 -0.58909292496E+02 -0.33207722011E+02  0.14490711874E+03  0.12508938254E+03 0.  0.
          5    1    3    3  502    0 -0.21404042096E+02 -0.38528512141E+02  0.45353410913E+02  0.63379677716E+02  0.41800000000E+01 0.  1.
         -5    1    3    3    0  502 -0.64825477632E+01 -0.20380780355E+02 -0.78561132924E+02  0.81527441023E+02  0.41800000000E+01 0.  1.
        -11    1    1    2    0    0  0.14122017201E+02  0.59874730324E+02 -0.11892963561E+03  0.13389799448E+03  0.00000000000E+00 0. -1.
         11    1    1    2    0    0  0.13764572658E+02 -0.96543782708E+00  0.14071478320E+02  0.19707918022E+02  0.00000000000E+00 0.  1.
</event>
<event>
 7    1  0.2688177E-009  0.1028380E+03  0.7561462E-02  0.1274439E+00
         -2   -1    0    0    0  501 -0.00000000000E+00  0.00000000000E+00  0.78570329494E+02  0.78570329494E+02  0.00000000000E+00 0.  1.
          2   -1    0    0  501    0  0.00000000000E+00 -0.00000000000E+00 -0.16806487913E+03  0.16806487913E+03  0.00000000000E+00 0. -1.
         25    2    1    2    0    0 -0.36420807331E+02  0.28959008225E+02 -0.60873702343E+02  0.14669169619E+03  0.12509095383E+03 0.  0.
          5    1    3    3  502    0 -0.58317984540E+02  0.51745575880E+02 -0.78119671328E+02  0.11044793974E+03  0.41800000000E+01 0. -1.
         -5    1    3    3    0  502  0.21897177210E+02 -0.22786567655E+02  0.17245968986E+02  0.36243756448E+02  0.41800000000E+01 0. -1.
        -11    1    1    2    0    0  0.13366803315E+02 -0.57499335428E+02 -0.16300875624E+02  0.61241844777E+02  0.00000000000E+00 0.  1.
         11    1    1    2    0    0  0.23054004016E+02  0.28540327203E+02 -0.12319971673E+02  0.38701667665E+02  0.00000000000E+00 0. -1.
</event>
<event>
 7    1  0.2688177E-009  0.1202538E+03  0.7561462E-02  0.1242679E+00
         -4   -1    0    0    0  501 -0.00000000000E+00  0.00000000000E+00  0.95270011824E+02  0.95270011824E+02  0.00000000000E+00 0.  1.
          4   -1    0    0  501    0  0.00000000000E+00 -0.00000000000E+00 -0.15777924296E+03  0.15777924296E+03  0.00000000000E+00 0. -1.
         25    2    1    2    0    0 -0.55512420218E+02  0.25060215317E-01 -0.23041345704E+02  0.13878086899E+03  0.12509035358E+03 0.  0.
          5    1    3    3  502    0  0.15071380412E+02 -0.46872863061E+02 -0.21583825274E+02  0.53921662739E+02  0.41800000000E+01 0. -1.
         -5    1    3    3    0  502 -0.70583800631E+02  0.46897923277E+02 -0.14575204296E+01  0.84859206247E+02  0.41800000000E+01 0. -1.
        -11    1    1    2    0    0 -0.68084434283E+00 -0.38268826290E+02 -0.68821760596E+01  0.38888699669E+02  0.00000000000E+00 0. -1.
         11    1    1    2    0    0  0.56193264561E+02  0.38243766075E+02 -0.32585709376E+02  0.75379686131E+02  0.00000000000E+00 0.  1.
</event>
<event>
 7    1  0.2688177E-009  0.7639500E+02  0.7561462E-02  0.1339605E+00
         -2   -1    0    0    0  501 -0.00000000000E+00  0.00000000000E+00  0.21732508535E+03  0.21732508535E+03  0.00000000000E+00 0.  1.
          2   -1    0    0  501    0  0.00000000000E+00 -0.00000000000E+00 -0.12377177134E+03  0.12377177134E+03  0.00000000000E+00 0. -1.
         25    2    1    2    0    0 -0.36617449923E+02  0.48043726667E+02  0.16056413133E+03  0.21231530243E+03  0.12509160668E+03 0.  0.
          5    1    3    3  502    0 -0.56559651820E+02  0.38219109927E+02  0.17333487804E+03  0.18633879608E+03  0.41800000000E+01 0. -1.
         -5    1    3    3    0  502  0.19942201897E+02  0.98246167407E+01 -0.12770746707E+02  0.25976506349E+02  0.41800000000E+01 0. -1.
        -11    1    1    2    0    0  0.15228598675E+02 -0.10261169741E+02  0.22651990531E+02  0.29160152556E+02  0.00000000000E+00 0.  1.
         11    1    1    2    0    0  0.21388851248E+02 -0.37782556926E+02 -0.89662807859E+02  0.99621401711E+02  0.00000000000E+00 0. -1.
</event>
<event>
 7    1  0.2688177E-009  0.1094275E+03  0.7561462E-02  0.1261634E+00
          2   -1    0    0  501    0  0.00000000000E+00  0.00000000000E+00  0.34168690401E+03  0.34168690401E+03  0.00000000000E+00 0. -1.
         -2   -1    0    0    0  501 -0.00000000000E+00 -0.00000000000E+00 -0.49311266707E+02  0.49311266707E+02  0.00000000000E+00 0.  1.
         25    2    1    2    0    0 -0.15822842968E+02  0.34708729676E+02  0.70809308408E+02  0.14871681447E+03  0.12509066501E+03 0.  0.
          5    1    3    3  502    0 -0.61262648620E+02 -0.11647655799E+02  0.18311042985E+02  0.65127157905E+02  0.41800000000E+01 0. -1.
         -5    1    3    3    0  502  0.45439805652E+02  0.46356385475E+02  0.52498265423E+02  0.83589656564E+02  0.41800000000E+01 0. -1.
        -11    1    1    2    0    0 -0.53158413672E+01 -0.58924307758E+02  0.96866854292E+02  0.11350559314E+03  0.00000000000E+00 0.  1.
         11    1    1    2    0    0  0.21138684335E+02  0.24215578082E+02  0.12469947461E+03  0.12877576311E+03  0.00000000000E+00 0. -1.
</event>
<event>
 7    1  0.2688177E-009  0.9056153E+02  0.7561462E-02  0.1301498E+00
          2   -1    0    0  501    0  0.00000000000E+00  0.00000000000E+00  0.11984664828E+03  0.11984664828E+03  0.00000000000E+00 0. -1.
         -2   -1    0    0    0  501 -0.00000000000E+00 -0.00000000000E+00 -0.15307210607E+03  0.15307210607E+03  0.00000000000E+00 0.  1.
         25    2    1    2    0    0 -0.63314409355E+02 -0.88468706682E+01  0.31944871997E+02  0.14406490351E+03  0.12508892846E+03 0.  0.
          5    1    3    3  502    0 -0.37023880415E+02  0.15944829685E+02 -0.44022562180E+02  0.59836975989E+02  0.41800000000E+01 0. -1.
         -5    1    3    3    0  502 -0.26290528940E+02 -0.24791700353E+02  0.75967434177E+02  0.84227927517E+02  0.41800000000E+01 0. -1.
        -11    1    1    2    0    0  0.51923097127E+02 -0.32550457043E+02 -0.59727859461E+02  0.85574280393E+02  0.00000000000E+00 0.  1.
         11    1    1    2    0    0  0.11391312228E+02  0.41397327711E+02 -0.54424703273E+01  0.43279570459E+02  0.00000000000E+00 0. -1.
</event>
<event>
 7    1  0.2688177E-009  0.1580121E+03  0.7561462E-02  0.1190960E+00
          3   -1    0    0  501    0  0.00000000000E+00  0.00000000000E+00  0.13178792157E+03  0.13178792157E+03  0.00000000000E+00 0. -1.
         -3   -1    0    0    0  501 -0.00000000000E+00 -0.00000000000E+00 -0.21074716168E+03  0.21074716168E+03  0.00000000000E+00 0.  1.
         25    2    1    2    0    0  0.12378323916E+03 -0.26045780633E+02 -0.47048723288E+02  0.18401939046E+03  0.12509548640E+03 0.  0.
          5    1    3    3  502    0 -0.20348060117E+02  0.17055343242E+02 -0.12329669296E+02  0.29570617656E+02  0.41800000000E+01 0.  1.
         -5    1    3    3    0  502  0.14413129928E+03 -0.43101123875E+02 -0.34719053993E+02  0.15444877281E+03  0.41800000000E+01 0.  1.
        -11    1    1    2    0    0 -0.32811849136E+02 -0.18166072904E+02 -0.42657617183E+02  0.56800492535E+02  0.00000000000E+00 0.  1.
         11    1    1    2    0    0 -0.90971390027E+02  0.44211853537E+02  0.10747100357E+02  0.10171520025E+03  0.00000000000E+00 0. -1.
</event>
<event>
 7    1  0.2688177E-009  0.9495588E+02  0.7561462E-02  0.1291275E+00
         -2   -1    0    0    0  501 -0.00000000000E+00  0.00000000000E+00  0.10782356752E+02  0.10782356752E+02  0.00000000000E+00 0.  1.
          2   -1    0    0  501    0  0.00000000000E+00 -0.00000000000E+00 -0.10843222238E+04  0.10843222238E+04  0.00000000000E+00 0. -1.
         25    2    1    2    0    0  0.46227435961E+01  0.71844790961E+01 -0.64091031022E+03  0.65305947343E+03  0.12509062151E+03 0.  0.
          5    1    3    3  502    0  0.43803343048E+02  0.30357384969E+02 -0.13669593079E+03  0.14677722432E+03  0.41800000000E+01 0.  1.
         -5    1    3    3    0  502 -0.39180599452E+02 -0.23172905873E+02 -0.50421437943E+03  0.50628224911E+03  0.41800000000E+01 0.  1.
        -11    1    1    2    0    0 -0.40165290607E+02 -0.28543994013E+02 -0.23788070788E+03  0.24293052782E+03  0.00000000000E+00 0.  1.
         11    1    1    2    0    0  0.35542547011E+02  0.21359514917E+02 -0.19474884892E+03  0.19911457928E+03  0.00000000000E+00 0. -1.
</event>
<event>
 7    1  0.2688177E-009  0.6815387E+02  0.7561462E-02  0.1366486E+00
         -1   -1    0    0    0  501 -0.00000000000E+00  0.00000000000E+00  0.38144396272E+03  0.38144396272E+03  0.00000000000E+00 0.  1.
          1   -1    0    0  501    0  0.00000000000E+00 -0.00000000000E+00 -0.39803792540E+02  0.39803792540E+02  0.00000000000E+00 0. -1.
         25    2    1    2    0    0 -0.17059554352E+02  0.41025182941E+02  0.11120878294E+03  0.17317168004E+03  0.12508774254E+03 0.  0.
          5    1    3    3  502    0 -0.16978405004E+02  0.40584340653E+02  0.13859246767E+03  0.14546717650E+03  0.41800000000E+01 0. -1.
         -5    1    3    3    0  502 -0.81149348599E-01  0.44084228827E+00 -0.27383684731E+02  0.27704503544E+02  0.41800000000E+01 0. -1.
        -11    1    1    2    0    0  0.47395403155E+02 -0.23983568899E+02  0.17255423399E+03  0.18054500682E+03  0.00000000000E+00 0.  1.
         11    1    1    2    0    0 -0.30335848802E+02 -0.17041614042E+02  0.57877153248E+02  0.67531068404E+02  0.00000000000E+00 0. -1.
</event>
<event>
 7    1  0.2688177E-009  0.8724284E+02  0.7561462E-02  0.1309669E+00
          2   -1    0    0  501    0  0.00000000000E+00  0.00000000000E+00  0.62892792363E+03  0.62892792363E+03  0.00000000000E+00 0. -1.
         -2   -1    0    0    0  501 -0.00000000000E+00 -0.00000000000E+00 -0.20734211462E+02  0.20734211462E+02  0.00000000000E+00 0.  1.
         25    2    1    2    0    0 -0.19936783721E+02  0.27465703981E+02  0.39337581373E+03  0.41417862476E+03  0.12509021599E+03 0.  0.
          5    1    3    3  502    0  0.91676847421E+01 -0.24626591409E+02  0.13905361118E+02  0.30022440203E+02  0.41800000000E+01 0.  1.
         -5    1    3    3    0  502 -0.29104468463E+02  0.52092295390E+02  0.37947045261E+03  0.38415618455E+03  0.41800000000E+01 0.  1.
        -11    1    1    2    0    0  0.36316040005E+02 -0.49008619638E+02  0.18689960353E+03  0.19660152940E+03  0.00000000000E+00 0. -1.
         11    1    1    2    0    0 -0.16379256284E+02  0.21542915656E+02  0.27918294904E+02  0.38881980939E+02  0.00000000000E+00 0.  1.
</event>
<event>
 7    1  0.2688177E-009  0.1090109E+03  0.7561462E-02  0.1262413E+00
         -1   -1    0    0    0  501 -0.00000000000E+00  0.00000000000E+00  0.10575030997E+03  0.10575030997E+03  0.00000000000E+00 0.  1.
          1   -1    0    0  501    0  0.00000000000E+00 -0.00000000000E+00 -0.23901954827E+03  0.23901954827E+03  0.00000000000E+00 0. -1.
         25    2    1    2    0    0  0.21930068153E+02  0.69908413685E+02 -0.16846692635E+03  0.22225312998E+03  0.12508890566E+03 0.  0.
          5    1    3    3  502    0  0.10099121368E+02 -0.20518628242E+02 -0.11313844951E+03  0.11550232688E+03  0.41800000000E+01 0.  1.
         -5    1    3    3    0  502  0.11830946786E+02  0.90427041927E+02 -0.55328476840E+02  0.10675080310E+03  0.41800000000E+01 0.  1.
        -11    1    1    2    0    0  0.24954469729E+02 -0.42182317597E+02 -0.11983295403E+02  0.50454661291E+02  0.00000000000E+00 0. -1.
         11    1    1    2    0    0 -0.46884537882E+02 -0.27726096088E+02  0.47180983446E+02  0.72062066967E+02  0.00000000000E+00 0.  1.
</event>
<event>
 7    1  0.2688177E-009  0.1086126E+03  0.7561462E-02  0.1263161E+00
         -2   -1    0    0    0  501 -0.00000000000E+00  0.00000000000E+00  0.28345360461E+02  0.28345360461E+02  0.00000000000E+00 0.  1.
          2   -1    0    0  501    0  0.00000000000E+00 -0.00000000000E+00 -0.46044586424E+03  0.46044586424E+03  0.00000000000E+00 0. -1.
         25    2    1    2    0    0 -0.37890283453E+02 -0.90754425888E+00 -0.24549063304E+03  0.27812056733E+03  0.12509557084E+03 0.  0.
          5    1    3    3  502    0 -0.40226407039E+02  0.53587491447E+02 -0.18375177655E+03  0.19563223366E+03  0.41800000000E+01 0.  1.
         -5    1    3    3    0  502  0.23361235856E+01 -0.54495035706E+02 -0.61738856493E+02  0.82488333666E+02  0.41800000000E+01 0.  1.
        -11    1    1    2    0    0  0.26184336866E+02  0.43741242494E+02 -0.12250105464E+03  0.13268543319E+03  0.00000000000E+00 0. -1.
         11    1    1    2    0    0  0.11705946588E+02 -0.42833698235E+02 -0.64108816097E+02  0.77985224186E+02  0.00000000000E+00 0.  1.
</event>
<event>
 7    1  0.2688177E-009  0.1759833E+03  0.7561462E-02  0.1171748E+00
          1   -1    0    0  501    0  0.00000000000E+00  0.00000000000E+00  0.15950562966E+03  0.15950562966E+03  0.00000000000E+00 0. -1.
         -1   -1    0    0    0  501 -0.00000000000E+00 -0.00000000000E+00 -0.22743289326E+03  0.22743289326E+03  0.00000000000E+00 0.  1.
         25    2    1    2    0    0 -0.14410243679E+03 -0.19981888120E+02 -0.10937823669E+03  0.22085393773E+03  0.12509226597E+03 0.  0.
          5    1    3    3  502    0 -0.97827533043E+02  0.48002060170E+02 -0.69948547309E+02  0.12955576279E+03  0.41800000000E+01 0.  1.
         -5    1    3    3    0  502 -0.46274903742E+02 -0.67983948289E+02 -0.39429689386E+02  0.91298174935E+02  0.41800000000E+01 0.  1.
        -11    1    1    2    0    0  0.39991285933E+02  0.37704572142E+02  0.97560595169E+01  0.55822203542E+02  0.00000000000E+00 0.  1.
         11    1    1    2    0    0  0.10411115085E+03 -0.17722684023E+02  0.31694913578E+02  0.11026238165E+03  0.00000000000E+00 0. -1.
</event>
<event>
 7    1  0.2688177E-009  0.1059977E+03  0.7561462E-02  0.1268166E+00
         -1   -1    0    0    0  501 -0.00000000000E+00  0.00000000000E+00  0.56396063909E+03  0.56396063909E+03  0.00000000000E+00 0.  1.
          1   -1    0    0  501    0  0.00000000000E+00 -0.00000000000E+00 -0.39960179351E+02  0.39960179351E+02  0.00000000000E+00 0. -1.
         25    2    1    2    0    0  0.17435810458E+02 -0.66215141606E+02  0.10945371773E+03  0.17976841914E+03  0.12509242876E+03 0.  0.
          5    1    3    3  502    0 -0.14618949119E+02 -0.90588583274E+02  0.41784235523E+02  0.10091283284E+03  0.41800000000E+01 0.  1.
         -5    1    3    3    0  502  0.32054759577E+02  0.24373441668E+02  0.67669482202E+02  0.78855586307E+02  0.41800000000E+01 0.  1.
        -11    1    1    2    0    0 -0.29205756827E+02  0.59043305327E+02  0.39362558366E+03  0.39909922105E+03  0.00000000000E+00 0.  1.
         11    1    1    2    0    0  0.11769946369E+02  0.71718362788E+01  0.20921158358E+02  0.25053178245E+02  0.00000000000E+00 0. -1.
</event>
<event>
 7    1  0.3330010E-009  0.1499689E+03  0.7561462E-02  0.1200511E+00
         -2   -1    0    0    0  501 -0.00000000000E+00  0.00000000000E+00  0.19687876869E+02  0.19687876869E+02  0.00000000000E+00 0.  1.
          2   -1    0    0  501    0  0.00000000000E+00 -0.00000000000E+00 -0.15255396986E+04  0.15255396986E+04  0.00000000000E+00 0. -1.
         25    2    1    2    0    0 -0.40577392687E+02 -0.11434695683E+03 -0.10620791981E+04  0.10762791363E+04  0.12507119916E+03 0.  0.
          5    1    3    3  502    0 -0.27369225526E+02  0.10879325377E+02 -0.47014934131E+03  0.47108949231E+03  0.41800000000E+01 0. -1.
         -5    1    3    3    0  502 -0.13208167161E+02 -0.12522628221E+03 -0.59192985678E+03  0.60518964399E+03  0.41800000000E+01 0. -1.
        -11    1    1    2    0    0 -0.23090905053E+02  0.41164260192E+02 -0.22082482660E+03  0.22581251130E+03  0.00000000000E+00 0.  1.
         11    1    1    2    0    0  0.63668297740E+02  0.73182696637E+02 -0.22294779702E+03  0.24313592787E+03  0.00000000000E+00 0. -1.
</event>
<event>
 7    1  0.2688177E-009  0.1370420E+03  0.7561462E-02  0.1217366E+00
         -2   -1    0    0    0  501 -0.00000000000E+00  0.00000000000E+00  0.26216428117E+02  0.26216428117E+02  0.00000000000E+00 0.  1.
          2   -1    0    0  501    0  0.00000000000E+00 -0.00000000000E+00 -0.92123721073E+03  0.92123721073E+03  0.00000000000E+00 0. -1.
         25    2    1    2    0    0  0.99453627287E+02 -0.47231070749E+02 -0.48668366203E+03  0.51442212807E+03  0.12508933182E+03 0.  0.
          5    1    3    3  502    0  0.14164390705E+02  0.24971547609E+02 -0.21830582681E+02  0.36307780078E+02  0.41800000000E+01 0.  1.
         -5    1    3    3    0  502  0.85289236583E+02 -0.72202618358E+02 -0.46485307935E+03  0.47811434799E+03  0.41800000000E+01 0.  1.
        -11    1    1    2    0    0 -0.28306801206E+02 -0.20551094521E+02 -0.19549841216E+03  0.19860325183E+03  0.00000000000E+00 0. -1.
         11    1    1    2    0    0 -0.71146826081E+02  0.67782165270E+02 -0.21283870842E+03  0.23442825895E+03  0.00000000000E+00 0.  1.
</event>
<event>
 7    1  0.2688177E-009  0.1027648E+03  0.7561462E-02  0.1274587E+00
         -1   -1    0    0    0  501 -0.00000000000E+00  0.00000000000E+00  0.16727461069E+03  0.16727461069E+03  0.00000000000E+00 0.  1.
          1   -1    0    0  501    0  0.00000000000E+00 -0.00000000000E+00 -0.21141793474E+03  0.21141793474E+03  0.00000000000E+00 0. -1.
         25    2    1    2    0    0 -0.13838777171E+01 -0.63498367967E+02  0.11694590906E+03  0.18264196295E+03  0.12509109933E+03 0.  0.
          5    1    3    3  502    0  0.39582700898E+02 -0.84059581464E+02  0.89374330159E+02  0.12898855274E+03  0.41800000000E+01 0. -1.
         -5    1    3    3    0  502 -0.40966578615E+02  0.20561213497E+02  0.27571578902E+02  0.53653410209E+02  0.41800000000E+01 0. -1.
        -11    1    1    2    0    0  0.10001745026E+02  0.22839281502E+02  0.44903339540E+01  0.25334379450E+02  0.00000000000E+00 0.  1.
         11    1    1    2    0    0 -0.86178673091E+01  0.40659086466E+02 -0.16557956706E+03  0.17071620303E+03  0.00000000000E+00 0. -1.
</event>
<event>
 7    1  0.2688177E-009  0.2173887E+03  0.7561462E-02  0.1135845E+00
          2   -1    0    0  501    0  0.00000000000E+00  0.00000000000E+00  0.99764391349E+03  0.99764391349E+03  0.00000000000E+00 0.  1.
         -2   -1    0    0    0  501 -0.00000000000E+00 -0.00000000000E+00 -0.51567908439E+02  0.51567908439E+02  0.00000000000E+00 0. -1.
         25    2    1    2    0    0  0.10902765941E+03  0.16105756046E+03  0.39564750467E+03  0.45827001890E+03  0.12509154239E+03 0.  0.
          5    1    3    3  502    0 -0.27752063680E+02  0.18914105113E+02  0.62625621526E+02  0.71185400767E+02  0.41800000000E+01 0.  1.
         -5    1    3    3    0  502  0.13677972309E+03  0.14214345535E+03  0.33302188314E+03  0.38708461814E+03  0.41800000000E+01 0.  1.
        -11    1    1    2    0    0 -0.96268640524E+02 -0.16433035115E+03  0.54381963408E+03  0.57620474648E+03  0.00000000000E+00 0.  1.
         11    1    1    2    0    0 -0.12759018883E+02  0.32727906816E+01  0.66088662991E+01  0.14737056540E+02  0.00000000000E+00 0. -1.
</event>
<event>
 7    1  0.2688177E-009  0.1156823E+03  0.7561462E-02  0.1250395E+00
          1   -1    0    0  501    0  0.00000000000E+00  0.00000000000E+00  0.12958418189E+03  0.12958418189E+03  0.00000000000E+00 0. -1.
         -1   -1    0    0    0  501 -0.00000000000E+00 -0.00000000000E+00 -0.11550534217E+03  0.11550534217E+03  0.00000000000E+00 0.  1.
         25    2    1    2    0    0 -0.42552890363E+02  0.30486371364E+02 -0.22222661259E+02  0.13741017005E+03  0.12509013087E+03 0.  0.
          5    1    3    3  502    0 -0.78749715677E+02 -0.11589671072E+02 -0.91140656562E+01  0.80227032773E+02  0.41800000000E+01 0.  1.
         -5    1    3    3    0  502  0.36196825314E+02  0.42076042436E+02 -0.13108595603E+02  0.57183137275E+02  0.41800000000E+01 0.  1.
        -11    1    1    2    0    0  0.53077210934E+02  0.10133110227E+02  0.37379750296E+02  0.65704763721E+02  0.00000000000E+00 0.  1.
         11    1    1    2    0    0 -0.10524320571E+02 -0.40619481591E+02 -0.10782493127E+01  0.41974590287E+02  0.00000000000E+00 0. -1.
</event>
<event>
 7    1  0.2688177E-009  0.5328151E+02  0.7561462E-02  0.1428405E+00
          4   -1    0    0  501    0  0.00000000000E+00  0.00000000000E+00  0.19563466483E+02  0.19563466483E+02  0.00000000000E+00 0. -1.
         -4   -1    0    0    0  501 -0.00000000000E+00 -0.00000000000E+00 -0.49793633523E+03  0.49793633523E+03  0.00000000000E+00 0.  1.
         25    2    1    2    0    0 -0.46926340114E+01  0.25952210855E+02 -0.37926843580E+03  0.40023476859E+03  0.12509110893E+03 0.  0.
          5    1    3    3  502    0  0.15072337489E+02  0.21221750005E+02 -0.68495303266E+01  0.27238327709E+02  0.41800000000E+01 0.  1.
         -5    1    3    3    0  502 -0.19764971501E+02  0.47304608496E+01 -0.37241890547E+03  0.37299644088E+03  0.41800000000E+01 0.  1.
        -11    1    1    2    0    0 -0.19936187644E+02  0.43473827481E+01 -0.17828771819E+02  0.27096428161E+02  0.00000000000E+00 0. -1.
         11    1    1    2    0    0  0.24628821655E+02 -0.30299593603E+02 -0.81275661136E+02  0.90168604967E+02  0.00000000000E+00 0.  1.
</event>
<event>
 7    1  0.2688177E-009  0.9130486E+02  0.7561462E-02  0.1299722E+00
          2   -1    0    0  501    0  0.00000000000E+00  0.00000000000E+00  0.37806036932E+03  0.37806036932E+03  0.00000000000E+00 0. -1.
         -2   -1    0    0    0  501 -0.00000000000E+00 -0.00000000000E+00 -0.44498941130E+02  0.44498941130E+02  0.00000000000E+00 0.  1.
         25    2    1    2    0    0  0.53108809097E+02 -0.52591994665E+01  0.10728174178E+03  0.17322045099E+03  0.12509095787E+03 0.  0.
          5    1    3    3  502    0  0.68032848074E+02 -0.19244226286E+02  0.74350969646E+01  0.71214898226E+02  0.41800000000E+01 0. -1.
         -5    1    3    3    0  502 -0.14924038978E+02  0.13985026819E+02  0.99846644811E+02  0.10200555276E+03  0.41800000000E+01 0. -1.
        -11    1    1    2    0    0 -0.10677216763E+02  0.36620502663E+02  0.38145240516E+02  0.53945560959E+02  0.00000000000E+00 0.  1.
         11    1    1    2    0    0 -0.42431592334E+02 -0.31361303197E+02  0.18813444590E+03  0.19539329850E+03  0.00000000000E+00 0. -1.
</event>
<event>
 7    1  0.2688177E-009  0.1270660E+03  0.7561462E-02  0.1231875E+00
          1   -1    0    0  501    0  0.00000000000E+00  0.00000000000E+00  0.70267524819E+02  0.70267524819E+02  0.00000000000E+00 0. -1.
         -1   -1    0    0    0  501 -0.00000000000E+00 -0.00000000000E+00 -0.26089760874E+03  0.26089760874E+03  0.00000000000E+00 0.  1.
         25    2    1    2    0    0  0.39580321929E+02  0.65939363626E+02 -0.69090811061E+02  0.16229298038E+03  0.12510343620E+03 0.  0.
          5    1    3    3  502    0  0.70086274539E+02  0.54202815565E+01 -0.78533680348E+01  0.70856284975E+02  0.41800000000E+01 0. -1.
         -5    1    3    3    0  502 -0.30505952610E+02  0.60519082069E+02 -0.61237443026E+02  0.91436695410E+02  0.41800000000E+01 0. -1.
        -11    1    1    2    0    0 -0.51436439994E+02 -0.81423040731E+02 -0.90150975621E+02  0.13191898016E+03  0.00000000000E+00 0. -1.
         11    1    1    2    0    0  0.11856118065E+02  0.15483677106E+02 -0.31388297243E+02  0.36953173018E+02  0.00000000000E+00 0.  1.
</event>
<event>
 7    1  0.2688177E-009  0.8888685E+02  0.7561462E-02  0.1305570E+00
          2   -1    0    0  501    0  0.00000000000E+00  0.00000000000E+00  0.20290216207E+03  0.20290216207E+03  0.00000000000E+00 0.  1.
         -2   -1    0    0    0  501 -0.00000000000E+00 -0.00000000000E+00 -0.72942809250E+02  0.72942809250E+02  0.00000000000E+00 0. -1.
         25    2    1    2    0    0 -0.45259600946E+02  0.31659380705E+02  0.80081226022E+02  0.15846670415E+03  0.12509174913E+03 0.  0.
          5    1    3    3  502    0  0.38846704967E+01  0.39680022580E+02 -0.21332260577E+02  0.45410710170E+02  0.41800000000E+01 0. -1.
         -5    1    3    3    0  502 -0.49144271443E+02 -0.80206418743E+01  0.10141348660E+03  0.11305599398E+03  0.41800000000E+01 0. -1.
        -11    1    1    2    0    0 -0.18271741299E+02 -0.71084692427E+01  0.45009755830E+02  0.49094449635E+02  0.00000000000E+00 0.  1.
         11    1    1    2    0    0  0.63531342246E+02 -0.24550911463E+02  0.48683709730E+01  0.68283817535E+02  0.00000000000E+00 0. -1.
</event>
<event>
 7    1  0.2688177E-009  0.1226433E+03  0.7561462E-02  0.1238799E+00
          2   -1    0    0  501    0  0.00000000000E+00  0.00000000000E+00  0.11765074144E+03  0.11765074144E+03  0.00000000000E+00 0. -1.
         -2   -1    0    0    0  501 -0.00000000000E+00 -0.00000000000E+00 -0.17074540702E+03  0.17074540702E+03  0.00000000000E+00 0.  1.
         25    2    1    2    0    0 -0.11229193562E+02 -0.87541375602E+02 -0.69989356986E+01  0.15325131100E+03  0.12508953590E+03 0.  0.
          5    1    3    3  502    0 -0.17679015757E+02  0.27977373971E+02 -0.16255155363E+02  0.37107728687E+02  0.41800000000E+01 0. -1.
         -5    1    3    3    0  502  0.64498221953E+01 -0.11551874957E+03  0.92562196647E+01  0.11614358231E+03  0.41800000000E+01 0. -1.
        -11    1    1    2    0    0  0.24339787805E+02  0.70947153760E+02 -0.70440508330E+02  0.10289698300E+03  0.00000000000E+00 0.  1.
         11    1    1    2    0    0 -0.13110594243E+02  0.16594221842E+02  0.24344778447E+02  0.32247854465E+02  0.00000000000E+00 0. -1.
</event>
<event>
 7    1  0.2688177E-009  0.6641105E+02  0.7561462E-02  0.1372741E+00
         -2   -1    0    0    0  501 -0.00000000000E+00  0.00000000000E+00  0.58393958362E+03  0.58393958362E+03  0.00000000000E+00 0.  1.
          2   -1    0    0  501    0  0.00000000000E+00 -0.00000000000E+00 -0.28627260398E+02  0.28627260398E+02  0.00000000000E+00 0. -1.
         25    2    1    2    0    0 -0.39660579446E+02  0.32423561380E+02  0.44403148721E+03  0.46415056718E+03  0.12509012146E+03 0.  0.
          5    1    3    3  502    0 -0.27881858688E+02  0.32480125057E+02  0.44873858806E+03  0.45079501925E+03  0.41800000000E+01 0.  1.
         -5    1    3    3    0  502 -0.11778720758E+02 -0.56563676506E-01 -0.47071008500E+01  0.13355547932E+02  0.41800000000E+01 0.  1.
        -11    1    1    2    0    0  0.53853175314E+02 -0.17276202775E+02  0.11421663545E+03  0.12745223217E+03  0.00000000000E+00 0.  1.
         11    1    1    2    0    0 -0.14192595868E+02 -0.15147358605E+02 -0.29357994353E+01  0.20964044660E+02  0.00000000000E+00 0. -1.
</event>
<event>
 7    1  0.2688177E-009  0.1414154E+03  0.7561462E-02  0.1211437E+00
         -2   -1    0    0    0  501 -0.00000000000E+00  0.00000000000E+00  0.68905240090E+02  0.68905240090E+02  0.00000000000E+00 0.  1.
          2   -1    0    0  501    0  0.00000000000E+00 -0.00000000000E+00 -0.30595765966E+03  0.30595765966E+03  0.00000000000E+00 0. -1.
         25    2    1    2    0    0 -0.89466243781E+02  0.23021727623E+02 -0.16054918076E+03  0.22351230263E+03  0.12508997269E+03 0.  0.
          5    1    3    3  502    0 -0.53806391165E+01 -0.45990326775E+02 -0.52640089261E+02  0.70231850549E+02  0.41800000000E+01 0. -1.
         -5    1    3    3    0  502 -0.84085604665E+02  0.69012054398E+02 -0.10790909150E+03  0.15328045209E+03  0.41800000000E+01 0. -1.
        -11    1    1    2    0    0  0.10598126990E+03 -0.29061495957E+02 -0.53025805989E+02  0.12201777009E+03  0.00000000000E+00 0. -1.
         11    1    1    2    0    0 -0.16515026119E+02  0.60397683338E+01 -0.23477432825E+02  0.29332827025E+02  0.00000000000E+00 0.  1.
</event>
<event>
 7    1  0.2688177E-009  0.9944586E+02  0.7561462E-02  0.1281466E+00
         -1   -1    0    0    0  501 -0.00000000000E+00  0.00000000000E+00  0.32163377628E+02  0.32163377628E+02  0.00000000000E+00 0.  1.
          1   -1    0    0  501    0  0.00000000000E+00 -0.00000000000E+00 -0.36316146079E+03  0.36316146079E+03  0.00000000000E+00 0. -1.
         25    2    1    2    0    0 -0.62128647939E+01 -0.20893849921E+02 -0.16418765255E+03  0.20755902401E+03  0.12509200831E+03 0.  0.
          5    1    3    3  502    0 -0.49300483698E+02  0.26118944929E+02 -0.43038429943E+02  0.70586938090E+02  0.41800000000E+01 0. -1.
         -5    1    3    3    0  502  0.43087618904E+02 -0.47012794850E+02 -0.12114922261E+03  0.13697208592E+03  0.41800000000E+01 0. -1.
        -11    1    1    2    0    0  0.30853701986E+02 -0.15933493083E+02 -0.37662362547E+02  0.51227733512E+02  0.00000000000E+00 0.  1.
         11    1    1    2    0    0 -0.24640837193E+02  0.36827343005E+02 -0.12914806806E+03  0.13653808089E+03  0.00000000000E+00 0. -1.
</event>
<event>
 7    1  0.2688177E-009  0.3450338E+03  0.7561462E-02  0.1064672E+00
          1   -1    0    0  501    0  0.00000000000E+00  0.00000000000E+00  0.19367302713E+04  0.19367302713E+04  0.00000000000E+00 0. -1.
         -1   -1    0    0    0  501 -0.00000000000E+00 -0.00000000000E+00 -0.68807957736E+02  0.68807957736E+02  0.00000000000E+00 0.  1.
         25    2    1    2    0    0  0.33012942108E+03  0.37202316047E+01  0.12527801328E+04  0.13015777949E+04  0.12508964897E+03 0.  0.
          5    1    3    3  502    0  0.32134242569E+02  0.41412056763E+02  0.19611332568E+03  0.20304057944E+03  0.41800000000E+01 0. -1.
         -5    1    3    3    0  502  0.29799517851E+03 -0.37691825159E+02  0.10566668071E+04  0.10985372154E+04  0.41800000000E+01 0. -1.
        -11    1    1    2    0    0 -0.10854913528E+03 -0.33293855258E+02  0.15233900757E+03  0.18999623363E+03  0.00000000000E+00 0.  1.
         11    1    1    2    0    0 -0.22158028580E+03  0.29573623654E+02  0.46280317321E+03  0.51396420051E+03  0.00000000000E+00 0. -1.
</event>
<event>
 7    1  0.2688177E-009  0.1085921E+03  0.7561462E-02  0.1263199E+00
          1   -1    0    0  501    0  0.00000000000E+00  0.00000000000E+00  0.56799195113E+02  0.56799195113E+02  0.00000000000E+00 0. -1.
         -1   -1    0    0    0  501 -0.00000000000E+00 -0.00000000000E+00 -0.28132976855E+03  0.28132976855E+03  0.00000000000E+00 0.  1.
         25    2    1    2    0    0  0.59112695434E+02 -0.12648004477E+02 -0.16010523059E+03  0.21198353586E+03  0.12509617034E+03 0.  0.
          5    1    3    3  502    0  0.89261992926E+02 -0.13794163105E+02 -0.15724852791E+03  0.18139061234E+03  0.41800000000E+01 0. -1.
         -5    1    3    3    0  502 -0.30149297492E+02  0.11461586282E+01 -0.28567026805E+01  0.30592923513E+02  0.41800000000E+01 0. -1.
        -11    1    1    2    0    0 -0.47270099666E+02  0.42890450219E+02 -0.68246133649E+02  0.93442965495E+02  0.00000000000E+00 0.  1.
         11    1    1    2    0    0 -0.11842595768E+02 -0.30242445742E+02  0.38207908010E+01  0.32702462313E+02  0.00000000000E+00 0. -1.
</event>
<event>
 7    1  0.2688177E-009  0.1275832E+03  0.7561462E-02  0.1231087E+00
          1   -1    0    0  501    0  0.00000000000E+00  0.00000000000E+00  0.13451547840E+03  0.13451547840E+03  0.00000000000E+00 0. -1.
         -1   -1    0    0    0  501 -0.00000000000E+00 -0.00000000000E+00 -0.21634673260E+03  0.21634673260E+03  0.00000000000E+00 0.  1.
         25    2    1    2    0    0  0.77478970505E+02 -0.16570352296E+02 -0.15127805402E+03  0.21168408476E+03  0.12509010619E+03 0.  0.
          5    1    3    3  502    0 -0.20240326109E+02  0.26376638043E+02 -0.69487978700E+02  0.77145637720E+02  0.41800000000E+01 0.  1.
         -5    1    3    3    0  502  0.97719296614E+02 -0.42946990340E+02 -0.81790075318E+02  0.13453844703E+03  0.41800000000E+01 0.  1.
        -11    1    1    2    0    0 -0.72466126555E+01  0.40112586381E+02  0.46047193151E+02  0.61496967228E+02  0.00000000000E+00 0. -1.
         11    1    1    2    0    0 -0.70232357849E+02 -0.23542234085E+02  0.23399606661E+02  0.77681159020E+02  0.00000000000E+00 0.  1.
</event>
<event>
 7    1  0.2688177E-009  0.7750243E+02  0.7561462E-02  0.1336292E+00
         -3   -1    0    0    0  501 -0.00000000000E+00  0.00000000000E+00  0.14432067346E+02  0.14432067346E+02  0.00000000000E+00 0.  1.
          3   -1    0    0  501    0  0.00000000000E+00 -0.00000000000E+00 -0.91142742061E+03  0.91142742061E+03  0.00000000000E+00 0. -1.
         25    2    1    2    0    0 -0.15095089216E+02  0.17040787288E+02 -0.62342300774E+03  0.63625608927E+03  0.12508922577E+03 0.  0.
          5    1    3    3  502    0 -0.35772678574E+02  0.26551367043E+02 -0.74917127741E+02  0.87262294568E+02  0.41800000000E+01 0.  1.
         -5    1    3    3    0  502  0.20677589359E+02 -0.95105797550E+01 -0.54850588000E+03  0.54899379470E+03  0.41800000000E+01 0.  1.
        -11    1    1    2    0    0  0.46380689384E+02 -0.27753510392E+02 -0.10810579923E+03  0.12086475712E+03  0.00000000000E+00 0.  1.
         11    1    1    2    0    0 -0.31285600168E+02  0.10712723103E+02 -0.16546654630E+03  0.16873864157E+03  0.00000000000E+00 0. -1.
</event>
<event>
 7    1  0.2688177E-009  0.1826654E+03  0.7561462E-02  0.1165248E+00
          2   -1    0    0  501    0  0.00000000000E+00  0.00000000000E+00  0.52021911104E+03  0.52021911104E+03  0.00000000000E+00 0. -1.
         -2   -1    0    0    0  501 -0.00000000000E+00 -0.00000000000E+00 -0.90972664395E+02  0.90972664395E+02  0.00000000000E+00 0.  1.
         25    2    1    2    0    0  0.15235571144E+03  0.87910012811E+02  0.12849825545E+03  0.25119557230E+03  0.12508789202E+03 0.  0.
          5    1    3    3  502    0  0.79836251295E+02  0.44861710765E+02  0.13858089259E+03  0.16615816653E+03  0.41800000000E+01 0. -1.
         -5    1    3    3    0  502  0.72519460142E+02  0.43048302046E+02 -0.10082637141E+02  0.85037405770E+02  0.41800000000E+01 0. -1.
        -11    1    1    2    0    0 -0.65897574520E+02 -0.78132491292E+02  0.21387021084E+03  0.23703932925E+03  0.00000000000E+00 0.  1.
         11    1    1    2    0    0 -0.86458136918E+02 -0.97775215192E+01  0.86877980356E+02  0.12295687389E+03  0.00000000000E+00 0. -1.
</event>
<event>
 7    1  0.2688177E-009  0.1817337E+03  0.7561462E-02  0.1166136E+00
          2   -1    0    0  501    0  0.00000000000E+00  0.00000000000E+00  0.24908766042E+03  0.24908766042E+03  0.00000000000E+00 0. -1.
         -2   -1    0    0    0  501 -0.00000000000E+00 -0.00000000000E+00 -0.14352790810E+03  0.14352790810E+03  0.00000000000E+00 0.  1.
         25    2    1    2    0    0  0.15129862292E+03 -0.61998731060E+02  0.78363668910E+02  0.22028100996E+03  0.12509093811E+03 0.  0.
          5    1    3    3  502    0  0.88910588890E+02  0.19064534026E+02 -0.53530585431E+00  0.91029161408E+02  0.41800000000E+01 0. -1.
         -5    1    3    3    0  502  0.62388034028E+02 -0.81063265086E+02  0.78898974765E+02  0.12925184856E+03  0.41800000000E+01 0. -1.
        -11    1    1    2    0    0 -0.82349726723E+02  0.84885205176E+01  0.16363413170E+02  0.84387758368E+02  0.00000000000E+00 0.  1.
         11    1    1    2    0    0 -0.68948896195E+02  0.53510210542E+02  0.10832670245E+02  0.87946800188E+02  0.00000000000E+00 0. -1.
</event>
<event>
 7    1  0.2688177E-009  0.7442866E+02  0.7561462E-02  0.1345649E+00
          1   -1    0    0  501    0  0.00000000000E+00  0.00000000000E+00  0.87280978292E+02  0.87280978292E+02  0.00000000000E+00 0. -1.
         -1   -1    0    0    0  501 -0.00000000000E+00 -0.00000000000E+00 -0.15721271692E+03  0.15721271692E+03  0.00000000000E+00 0.  1.
         25    2    1    2    0    0 -0.35294621563E+02  0.14814508720E+01 -0.29391151464E+02  0.13328658789E+03  0.12511422668E+03 0.  0.
          5    1    3    3  502    0 -0.48395769603E+02  0.43101803617E+02 -0.52706333121E+02  0.83638184710E+02  0.41800000000E+01 0.  1.
         -5    1    3    3    0  502  0.13101148040E+02 -0.41620352745E+02  0.23315181657E+02  0.49648403180E+02  0.41800000000E+01 0.  1.
        -11    1    1    2    0    0  0.27294201768E+02  0.72493069295E+01 -0.72135168681E+02  0.77466176244E+02  0.00000000000E+00 0.  1.
         11    1    1    2    0    0  0.80004197949E+01 -0.87307578015E+01  0.31594581518E+02  0.33740931078E+02  0.00000000000E+00 0. -1.
</event>
<event>
 7    1  0.2688177E-009  0.2624650E+03  0.7561462E-02  0.1105671E+00
         -1   -1    0    0    0  501 -0.00000000000E+00  0.00000000000E+00  0.54799717731E+03  0.54799717731E+03  0.00000000000E+00 0.  1.
          1   -1    0    0  501    0  0.00000000000E+00 -0.00000000000E+00 -0.14657289670E+03  0.14657289670E+03  0.00000000000E+00 0. -1.
         25    2    1    2    0    0  0.75350917770E+02  0.25056891168E+03  0.20120203194E+03  0.35297715770E+03  0.12509226950E+03 0.  0.
          5    1    3    3  502    0 -0.10120881765E+01  0.14652960000E+02 -0.16854831221E+02  0.22744038664E+02  0.41800000000E+01 0. -1.
         -5    1    3    3    0  502  0.76363005947E+02  0.23591595168E+03  0.21805686316E+03  0.33023311903E+03  0.41800000000E+01 0. -1.
        -11    1    1    2    0    0 -0.51881835898E+02 -0.17455985963E+03  0.83492813040E+02  0.20033451854E+03  0.00000000000E+00 0. -1.
         11    1    1    2    0    0 -0.23469081872E+02 -0.76009052057E+02  0.11672943563E+03  0.14125839777E+03  0.00000000000E+00 0.  1.
</event>
<event>
 7    1  0.2688177E-009  0.1210996E+03  0.7561462E-02  0.1241294E+00
          3   -1    0    0  501    0  0.00000000000E+00  0.00000000000E+00  0.59160787955E+02  0.59160787955E+02  0.00000000000E+00 0. -1.
         -3   -1    0    0    0  501 -0.00000000000E+00 -0.00000000000E+00 -0.31126640058E+03  0.31126640058E+03  0.00000000000E+00 0.  1.
         25    2    1    2    0    0 -0.62961876530E+02 -0.25312421660E+02 -0.20049802715E+03  0.24586917092E+03  0.12508906320E+03 0.  0.
          5    1    3    3  502    0 -0.40004600066E+01  0.42263110826E+02 -0.11181112029E+03  0.11967194006E+03  0.41800000000E+01 0. -1.
         -5    1    3    3    0  502 -0.58961416524E+02 -0.67575532485E+02 -0.88686906855E+02  0.12619723086E+03  0.41800000000E+01 0. -1.
        -11    1    1    2    0    0  0.55071178734E+01  0.47761207936E+02 -0.73441270952E+01  0.48635352713E+02  0.00000000000E+00 0. -1.
         11    1    1    2    0    0  0.57454758657E+02 -0.22448786276E+02 -0.44263458382E+02  0.75922664900E+02  0.00000000000E+00 0.  1.
</event>
<event>
 6    1  0.2688177E-009  0.9486495E+02  0.7561462E-02  0.1291481E+00
         -1   -1    0    0    0  501 -0.00000000000E+00  0.00000000000E+00  0.24026725991E+03  0.24026725991E+03  0.00000000000E+00 0.  1.
          1   -1    0    0  501    0  0.00000000000E+00 -0.00000000000E+00 -0.59952611607E+02  0.59952611607E+02  0.00000000000E+00 0. -1.
          5    1    1    2  502    0 -0.64886816449E+02 -0.17479564313E+02  0.12162739440E+03  0.13901988917E+03  0.41800000000E+01 0. -1.
         -5    1    1    2    0  502  0.32583890992E+02 -0.20559634289E+02 -0.57915774166E+01  0.39184477580E+02  0.41800000000E+01 0. -1.
        -11    1    1    2    0    0  0.32602450143E+02 -0.11149596612E+02 -0.70844052081E+01  0.35177010349E+02  0.00000000000E+00 0. -1.
         11    1    1    2    0    0 -0.29952468569E+00  0.49188795214E+02  0.71563236528E+02  0.86838494414E+02  0.00000000000E+00 0.  1.
</event>
<event>
 7    1  0.2688177E-009  0.1150178E+03  0.7561462E-02  0.1251550E+00
         -1   -1    0    0    0  501 -0.00000000000E+00  0.00000000000E+00  0.38187829067E+02  0.38187829067E+02  0.00000000000E+00 0.  1.
          1   -1    0    0  501    0  0.00000000000E+00 -0.00000000000E+00 -0.41113953363E+03  0.41113953363E+03  0.00000000000E+00 0. -1.
         25    2    1    2    0    0  0.34030240636E+02  0.46783255717E+02 -0.25578974270E+03  0.29055608073E+03  0.12509082014E+03 0.  0.
          5    1    3    3  502    0 -0.21888643146E+02  0.72409895334E+02 -0.15203005604E+03  0.16986146114E+03  0.41800000000E+01 0.  1.
         -5    1    3    3    0  502  0.55918883783E+02 -0.25626639616E+02 -0.10375968665E+03  0.12069461958E+03  0.41800000000E+01 0.  1.
        -11    1    1    2    0    0 -0.43945476971E+02  0.86314046427E+00 -0.16476206080E+02  0.46940550960E+02  0.00000000000E+00 0.  1.
         11    1    1    2    0    0  0.99152363350E+01 -0.47646396182E+02 -0.10068575579E+03  0.11183073101E+03  0.00000000000E+00 0. -1.
</event>
<event>
 7    1  0.2688177E-009  0.8289229E+02  0.7561462E-02  0.1321038E+00
          2   -1    0    0  501    0  0.00000000000E+00  0.00000000000E+00  0.67988581475E+03  0.67988581475E+03  0.00000000000E+00 0. -1.
         -2   -1    0    0    0  501 -0.00000000000E+00 -0.00000000000E+00 -0.42260591793E+02  0.42260591793E+02  0.00000000000E+00 0.  1.
         25    2    1    2    0    0  0.20262481906E+02 -0.19662658755E+02  0.60039294464E+03  0.61393507878E+03  0.12508958653E+03 0.  0.
          5    1    3    3  502    0  0.26420747092E+02 -0.47107844561E+02  0.10899653416E+03  0.12171656319E+03  0.41800000000E+01 0. -1.
         -5    1    3    3    0  502 -0.61582651856E+01  0.27445185806E+02  0.49139641047E+03  0.49221851558E+03  0.41800000000E+01 0. -1.
        -11    1    1    2    0    0 -0.24159089123E+02 -0.27068693427E+02  0.47929334757E+02  0.60113200558E+02  0.00000000000E+00 0. -1.
         11    1    1    2    0    0  0.38966072164E+01  0.46731352183E+02 -0.10697056438E+02  0.48098127210E+02  0.00000000000E+00 0.  1.
</event>
<event>
 7    1  0.2688177E-009  0.1039461E+03  0.7561462E-02  0.1272210E+00
          1   -1    0    0  501    0  0.00000000000E+00  0.00000000000E+00  0.38902861447E+03  0.38902861447E+03  0.00000000000E+00 0.  1.
         -1   -1    0    0    0  501 -0.00000000000E+00 -0.00000000000E+00 -0.32197049062E+02  0.32197049062E+02  0.00000000000E+00 0. -1.
         25    2    1    2    0    0 -0.39475771664E+01  0.28120842856E+02  0.18863577547E+03  0.22811512359E+03  0.12508672453E+03 0.  0.
          5    1    3    3  502    0  0.48750157731E+02 -0.20853307086E+02  0.10510024046E+03  0.11779206782E+03  0.41800000000E+01 0.  1.
         -5    1    3    3    0  502 -0.52697734898E+02  0.48974149943E+02  0.83535535009E+02  0.11032305577E+03  0.41800000000E+01 0.  1.
        -11    1    1    2    0    0 -0.20203060694E+02 -0.47538605292E+02  0.14634362715E+03  0.15519194522E+03  0.00000000000E+00 0.  1.
         11    1    1    2    0    0  0.24150637860E+02  0.19417762436E+02  0.21852162789E+02  0.37918594721E+02  0.00000000000E+00 0. -1.
</event>
<event>
 7    1  0.2688177E-009  0.9241074E+02  0.7561462E-02  0.1297117E+00
         -1   -1    0    0    0  501 -0.00000000000E+00  0.00000000000E+00  0.99052894200E+02  0.99052894200E+02  0.00000000000E+00 0. -1.
          1   -1    0    0  501    0  0.00000000000E+00 -0.00000000000E+00 -0.16493620731E+03  0.16493620731E+03  0.00000000000E+00 0.  1.
         25    2    1    2    0    0  0.63557322937E+02  0.18301120265E+02 -0.56080468705E+02  0.15221193829E+03  0.12509592673E+03 0.  0.
          5    1    3    3  502    0 -0.23289515556E+02  0.11614064607E+02 -0.59357025606E+02  0.64946261789E+02  0.41800000000E+01 0.  1.
         -5    1    3    3    0  502  0.86846838493E+02  0.66870556578E+01  0.32765569007E+01  0.87265676498E+02  0.41800000000E+01 0.  1.
        -11    1    1    2    0    0 -0.30184989995E+02 -0.22465950632E+02  0.37902835578E+02  0.53408590167E+02  0.00000000000E+00 0. -1.
         11    1    1    2    0    0 -0.33372332942E+02  0.41648303667E+01 -0.47705679981E+02  0.58368573054E+02  0.00000000000E+00 0.  1.
</event>
<event>
 7    1  0.2688177E-009  0.1103391E+03  0.7561462E-02  0.1259943E+00
          2   -1    0    0  501    0  0.00000000000E+00  0.00000000000E+00  0.78009069561E+02  0.78009069561E+02  0.00000000000E+00 0.  1.
         -2   -1    0    0    0  501 -0.00000000000E+00 -0.00000000000E+00 -0.17976123319E+03  0.17976123319E+03  0.00000000000E+00 0. -1.
         25    2    1    2    0    0 -0.27280176964E+02  0.23567416192E+02 -0.92547208534E+02  0.15972470439E+03  0.12508942491E+03 0.  0.
          5    1    3    3  502    0 -0.17471918179E+02  0.74169077759E+02 -0.69081169308E+02  0.10293687567E+03  0.41800000000E+01 0. -1.
         -5    1    3    3    0  502 -0.98082587848E+01 -0.50601661566E+02 -0.23466039227E+02  0.56787828719E+02  0.41800000000E+01 0. -1.
        -11    1    1    2    0    0  0.17805511535E+02 -0.56052830156E+02 -0.20635884988E+02  0.62328129755E+02  0.00000000000E+00 0. -1.
         11    1    1    2    0    0  0.94746654290E+01  0.32485413963E+02  0.11430929892E+02  0.35717468605E+02  0.00000000000E+00 0.  1.
</event>
<event>
 7    1  0.2688177E-009  0.4898215E+03  0.7561462E-02  0.1016470E+00
         -2   -1    0    0    0  501 -0.00000000000E+00  0.00000000000E+00  0.85961538086E+03  0.85961538086E+03  0.00000000000E+00 0.  1.
          2   -1    0    0  501    0  0.00000000000E+00 -0.00000000000E+00 -0.38880068624E+03  0.38880068624E+03  0.00000000000E+00 0. -1.
         25    2    1    2    0    0  0.46703340643E+03 -0.12078691971E+03 -0.86281851123E+02  0.50577021030E+03  0.12509702273E+03 0.  0.
          5    1    3    3  502    0  0.13050670650E+03 -0.91299701848E+02 -0.11436664370E+02  0.15973698911E+03  0.41800000000E+01 0.  1.
         -5    1    3    3    0  502  0.33652669993E+03 -0.29487217864E+02 -0.74845186753E+02  0.34603322119E+03  0.41800000000E+01 0.  1.
        -11    1    1    2    0    0 -0.39104451543E+03  0.97899021948E+02  0.51102428502E+03  0.65088082736E+03  0.00000000000E+00 0. -1.
         11    1    1    2    0    0 -0.75988890999E+02  0.22887897763E+02  0.46072260731E+02  0.91765029440E+02  0.00000000000E+00 0.  1.
</event>
<event>
 7    1  0.2688177E-009  0.1041579E+03  0.7561462E-02  0.1271788E+00
         -1   -1    0    0    0  501 -0.00000000000E+00  0.00000000000E+00  0.19803226391E+03  0.19803226391E+03  0.00000000000E+00 0.  1.
          1   -1    0    0  501    0  0.00000000000E+00 -0.00000000000E+00 -0.84274014593E+02  0.84274014593E+02  0.00000000000E+00 0. -1.
         25    2    1    2    0    0  0.65102168421E+01 -0.32559311011E+02  0.13114198754E+03  0.18423704287E+03  0.12507028189E+03 0.  0.
          5    1    3    3  502    0  0.37039875373E+02 -0.61489973931E+02  0.36616726628E+02  0.80692170194E+02  0.41800000000E+01 0.  1.
         -5    1    3    3    0  502 -0.30529658531E+02  0.28930662920E+02  0.94525260909E+02  0.10354487267E+03  0.41800000000E+01 0.  1.
        -11    1    1    2    0    0 -0.41214425378E+02  0.41308762531E+02 -0.21181472774E+02  0.62078156464E+02  0.00000000000E+00 0. -1.
         11    1    1    2    0    0  0.34704208536E+02 -0.87494515199E+01  0.37977345488E+01  0.35991079169E+02  0.00000000000E+00 0.  1.
</event>
<event>
 7    1  0.2688177E-009  0.1238479E+03  0.7561462E-02  0.1236881E+00
          2   -1    0    0  501    0  0.00000000000E+00  0.00000000000E+00  0.75483418701E+03  0.75483418701E+03  0.00000000000E+00 0. -1.
         -2   -1    0    0    0  501 -0.00000000000E+00 -0.00000000000E+00 -0.29651418820E+02  0.29651418820E+02  0.00000000000E+00 0.  1.
         25    2    1    2    0    0 -0.17247991594E+02 -0.96099095904E+02  0.47043846649E+03  0.49648162299E+03  0.12509644986E+03 0.  0.
          5    1    3    3  502    0  0.25193039859E+02 -0.30237943609E+02  0.35319465422E+03  0.35540534416E+03  0.41800000000E+01 0.  1.
         -5    1    3    3    0  502 -0.42441031453E+02 -0.65861152295E+02  0.11724381227E+03  0.14107627883E+03  0.41800000000E+01 0.  1.
        -11    1    1    2    0    0  0.50823648879E+02  0.41763247369E+02  0.91358822097E+02  0.11257729119E+03  0.00000000000E+00 0.  1.
         11    1    1    2    0    0 -0.33575657285E+02  0.54335848535E+02  0.16338547960E+03  0.17542669165E+03  0.00000000000E+00 0. -1.
</event>
<event>
 7    1  0.2688177E-009  0.7263361E+02  0.7561462E-02  0.1351360E+00
          2   -1    0    0  501    0  0.00000000000E+00  0.00000000000E+00  0.74208525900E+03  0.74208525900E+03  0.00000000000E+00 0. -1.
         -2   -1    0    0    0  501 -0.00000000000E+00 -0.00000000000E+00 -0.18170864007E+02  0.18170864007E+02  0.00000000000E+00 0.  1.
         25    2    1    2    0    0 -0.55105634174E+01 -0.42025136604E+00  0.55381121215E+03  0.56778948592E+03  0.12508996238E+03 0.  0.
          5    1    3    3  502    0 -0.30283413752E+02  0.61700620634E+01  0.29801528452E+02  0.43136507884E+02  0.41800000000E+01 0.  1.
         -5    1    3    3    0  502  0.24772850335E+02 -0.65903134294E+01  0.52400968370E+03  0.52465297803E+03  0.41800000000E+01 0.  1.
        -11    1    1    2    0    0  0.35438047296E+02  0.29700707029E+02  0.69250410320E+02  0.83268280417E+02  0.00000000000E+00 0.  1.
         11    1    1    2    0    0 -0.29927483879E+02 -0.29280455663E+02  0.10085277252E+03  0.10919835667E+03  0.00000000000E+00 0. -1.
</event>
<event>
 7    1  0.2688177E-009  0.1120198E+03  0.7561462E-02  0.1256875E+00
         -1   -1    0    0    0  501 -0.00000000000E+00  0.00000000000E+00  0.23123984393E+02  0.23123984393E+02  0.00000000000E+00 0.  1.
          1   -1    0    0  501    0  0.00000000000E+00 -0.00000000000E+00 -0.85097404265E+03  0.85097404265E+03  0.00000000000E+00 0. -1.
         25    2    1    2    0    0  0.90206982165E+02 -0.29588559030E+01 -0.48709769833E+03  0.51093804872E+03  0.12508983754E+03 0.  0.
          5    1    3    3  502    0  0.39036510617E+02  0.18426466193E+02 -0.42645065806E+03  0.42865023035E+03  0.41800000000E+01 0.  1.
         -5    1    3    3    0  502  0.51170471548E+02 -0.21385322096E+02 -0.60647040268E+02  0.82287818375E+02  0.41800000000E+01 0.  1.
        -11    1    1    2    0    0  0.60495036702E+01  0.25488128900E+02 -0.85899628547E+02  0.89805274867E+02  0.00000000000E+00 0.  1.
         11    1    1    2    0    0 -0.96256485835E+02 -0.22529272997E+02 -0.25485273138E+03  0.27335470345E+03  0.00000000000E+00 0. -1.
</event>
<event>
 7    1  0.2786772E-009  0.1425406E+03  0.7561462E-02  0.1209951E+00
          2   -1    0    0  501    0  0.00000000000E+00  0.00000000000E+00  0.42959785437E+03  0.42959785437E+03  0.00000000000E+00 0. -1.
         -2   -1    0    0    0  501 -0.00000000000E+00 -0.00000000000E+00 -0.64370475595E+02  0.64370475595E+02  0.00000000000E+00 0.  1.
         25    2    1    2    0    0 -0.10572692307E+03 -0.40963043773E+02  0.11386050117E+03  0.20365356275E+03  0.12511757141E+03 0.  0.
          5    1    3    3  502    0 -0.11959911252E+03 -0.67840195336E+02  0.10028911100E+03  0.17023988370E+03  0.41800000000E+01 0.  1.
         -5    1    3    3    0  502  0.13872189442E+02  0.26877151563E+02  0.13571390175E+02  0.33413679046E+02  0.41800000000E+01 0.  1.
        -11    1    1    2    0    0  0.47162549995E+02  0.31380057068E+01  0.19504213102E+03  0.20068778257E+03  0.00000000000E+00 0. -1.
         11    1    1    2    0    0  0.58564373080E+02  0.37825038066E+02  0.56324746589E+02  0.89626984649E+02  0.00000000000E+00 0.  1.
</event>
<event>
 7    1  0.2688177E-009  0.1034079E+03  0.7561462E-02  0.1273289E+00
         -1   -1    0    0    0  501 -0.00000000000E+00  0.00000000000E+00  0.50495859000E+02  0.50495859000E+02  0.00000000000E+00 0.  1.
          1   -1    0    0  501    0  0.00000000000E+00 -0.00000000000E+00 -0.33474312037E+03  0.33474312037E+03  0.00000000000E+00 0. -1.
         25    2    1    2    0    0  0.61691433739E+02  0.14142626621E+02 -0.11409759644E+03  0.18078697955E+03  0.12513921678E+03 0.  0.
          5    1    3    3  502    0 -0.24269403259E+02 -0.28472032588E+01  0.11708229429E+02  0.27416519424E+02  0.41800000000E+01 0. -1.
         -5    1    3    3    0  502  0.85960836998E+02  0.16989829879E+02 -0.12580582587E+03  0.15337046013E+03  0.41800000000E+01 0. -1.
        -11    1    1    2    0    0 -0.69839391252E+01  0.25694372935E+02 -0.65688127459E+01  0.27424906693E+02  0.00000000000E+00 0.  1.
         11    1    1    2    0    0 -0.54707494614E+02 -0.39836999555E+02 -0.16358085218E+03  0.17702709313E+03  0.00000000000E+00 0. -1.
</event>
<event>
 7    1  0.2688177E-009  0.1675140E+03  0.7561462E-02  0.1180465E+00
          2   -1    0    0  501    0  0.00000000000E+00  0.00000000000E+00  0.10273733585E+04  0.10273733585E+04  0.00000000000E+00 0.  1.
         -2   -1    0    0    0  501 -0.00000000000E+00 -0.00000000000E+00 -0.36043904009E+02  0.36043904009E+02  0.00000000000E+00 0. -1.
         25    2    1    2    0    0 -0.10973404813E+03 -0.65280710444E+02  0.26034741533E+03  0.31580205459E+03  0.12508808313E+03 0.  0.
          5    1    3    3  502    0 -0.53895529301E+02  0.34412617197E+02  0.84540931351E+02  0.10608297589E+03  0.41800000000E+01 0. -1.
         -5    1    3    3    0  502 -0.55838518827E+02 -0.99693327641E+02  0.17580648398E+03  0.20971907870E+03  0.41800000000E+01 0. -1.
        -11    1    1    2    0    0  0.42308123534E+02  0.77294867664E+02  0.43080082392E+03  0.43972016531E+03  0.00000000000E+00 0. -1.
         11    1    1    2    0    0  0.67425924594E+02 -0.12014157220E+02  0.30018121524E+03  0.30789504261E+03  0.00000000000E+00 0.  1.
</event>
<event>
 7    1  0.2688177E-009  0.2414182E+03  0.7561462E-02  0.1118852E+00
          2   -1    0    0  501    0  0.00000000000E+00  0.00000000000E+00  0.43578594536E+03  0.43578594536E+03  0.00000000000E+00 0. -1.
         -2   -1    0    0    0  501 -0.00000000000E+00 -0.00000000000E+00 -0.15690105559E+03  0.15690105559E+03  0.00000000000E+00 0.  1.
         25    2    1    2    0    0  0.18153655714E+03  0.12599596818E+03  0.45228589734E+02  0.25792200905E+03  0.12509049463E+03 0.  0.
          5    1    3    3  502    0  0.81183661048E+02 -0.12146137502E+02  0.43883240891E+01  0.82310663135E+02  0.41800000000E+01 0.  1.
         -5    1    3    3    0  502  0.10035289610E+03  0.13814210568E+03  0.40840265645E+02  0.17561134592E+03  0.41800000000E+01 0.  1.
        -11    1    1    2    0    0 -0.18207216152E+02 -0.42879310475E+02  0.13883522577E+02  0.48609568873E+02  0.00000000000E+00 0.  1.
         11    1    1    2    0    0 -0.16332934099E+03 -0.83116657703E+02  0.21977277746E+03  0.28615542303E+03  0.00000000000E+00 0. -1.
</event>
<event>
 7    1  0.2688177E-009  0.1212649E+03  0.7561462E-02  0.1241025E+00
         -1   -1    0    0    0  501 -0.00000000000E+00  0.00000000000E+00  0.10439147838E+03  0.10439147838E+03  0.00000000000E+00 0.  1.
          1   -1    0    0  501    0  0.00000000000E+00 -0.00000000000E+00 -0.65803414814E+03  0.65803414814E+03  0.00000000000E+00 0. -1.
         25    2    1    2    0    0 -0.95093352934E+02 -0.15587568202E+01 -0.60201009299E+03  0.62218072329E+03  0.12509006706E+03 0.  0.
          5    1    3    3  502    0 -0.11823595072E+03 -0.89227322507E+01 -0.36286626750E+03  0.38177055371E+03  0.41800000000E+01 0. -1.
         -5    1    3    3    0  502  0.23142597782E+02  0.73639754304E+01 -0.23914382548E+03  0.24041016957E+03  0.41800000000E+01 0. -1.
        -11    1    1    2    0    0  0.34966565097E+02  0.14302212855E+02  0.66223297133E+02  0.76241321149E+02  0.00000000000E+00 0.  1.
         11    1    1    2    0    0  0.60126787836E+02 -0.12743456035E+02 -0.17855873909E+02  0.64003582089E+02  0.00000000000E+00 0. -1.
</event>
<event>
 7    1  0.2688177E-009  0.1431047E+03  0.7561462E-02  0.1209211E+00
          1   -1    0    0  501    0  0.00000000000E+00  0.00000000000E+00  0.10081884417E+03  0.10081884417E+03  0.00000000000E+00 0. -1.
         -1   -1    0    0    0  501 -0.00000000000E+00 -0.00000000000E+00 -0.48794572685E+03  0.48794572685E+03  0.00000000000E+00 0.  1.
         25    2    1    2    0    0 -0.95724485434E+02  0.60816601976E+02  0.41987586717E+01  0.16889872735E+03  0.12508922551E+03 0.  0.
          5    1    3    3  502    0 -0.10006578551E+03  0.91827200030E+02 -0.50812979518E+01  0.13597311530E+03  0.41800000000E+01 0.  1.
         -5    1    3    3    0  502  0.43413000804E+01 -0.31010598054E+02  0.92800566235E+01  0.32925612052E+02  0.41800000000E+01 0.  1.
        -11    1    1    2    0    0  0.13425760494E+02 -0.26236243024E+02 -0.14946443306E+02  0.33045236576E+02  0.00000000000E+00 0. -1.
         11    1    1    2    0    0  0.82298724941E+02 -0.34580358952E+02 -0.37637919804E+03  0.38682060709E+03  0.00000000000E+00 0.  1.
</event>
<event>
 7    1  0.2688177E-009  0.1111601E+03  0.7561462E-02  0.1258437E+00
         -2   -1    0    0    0  501 -0.00000000000E+00  0.00000000000E+00  0.30056169459E+03  0.30056169459E+03  0.00000000000E+00 0.  1.
          2   -1    0    0  501    0  0.00000000000E+00 -0.00000000000E+00 -0.16281551721E+03  0.16281551721E+03  0.00000000000E+00 0. -1.
         25    2    1    2    0    0  0.53688664152E+02 -0.64365844382E+01 -0.12230332699E+03  0.18310383837E+03  0.12508001262E+03 0.  0.
          5    1    3    3  502    0  0.76829748565E+02 -0.35740280751E+02 -0.11793238470E+03  0.14527800141E+03  0.41800000000E+01 0.  1.
         -5    1    3    3    0  502 -0.23141084413E+02  0.29303696313E+02 -0.43709422855E+01  0.37825836962E+02  0.41800000000E+01 0.  1.
        -11    1    1    2    0    0  0.15977044075E+02  0.23280580634E+02  0.11588341787E+03  0.11927371005E+03  0.00000000000E+00 0.  1.
         11    1    1    2    0    0 -0.69665708228E+02 -0.16843996195E+02  0.14416608650E+03  0.16099966338E+03  0.00000000000E+00 0. -1.
</event>
<event>
 7    1  0.2688177E-009  0.1698395E+03  0.7561462E-02  0.1178015E+00
          2   -1    0    0  501    0  0.00000000000E+00  0.00000000000E+00  0.52595028834E+02  0.52595028834E+02  0.00000000000E+00 0. -1.
         -2   -1    0    0    0  501 -0.00000000000E+00 -0.00000000000E+00 -0.82399339671E+03  0.82399339671E+03  0.00000000000E+00 0.  1.
         25    2    1    2    0    0 -0.55311878631E+01  0.15735810142E+03 -0.57234023080E+03  0.60664021503E+03  0.12508734784E+03 0.  0.
          5    1    3    3  502    0 -0.44377572644E+02  0.89393762362E+02 -0.45279998635E+03  0.46368730168E+03  0.41800000000E+01 0.  1.
         -5    1    3    3    0  502  0.38846384781E+02  0.67964339056E+02 -0.11954024445E+03  0.14295291336E+03  0.41800000000E+01 0.  1.
        -11    1    1    2    0    0  0.19349745390E+02 -0.59548843969E+02 -0.20493440117E+02  0.65882156556E+02  0.00000000000E+00 0. -1.
         11    1    1    2    0    0 -0.13818557527E+02 -0.97809257449E+02 -0.17856469697E+03  0.20406605396E+03  0.00000000000E+00 0.  1.
</event>
<event>
 7    1  0.2688177E-009  0.1596534E+03  0.7561462E-02  0.1189089E+00
         -2   -1    0    0    0  501 -0.00000000000E+00  0.00000000000E+00  0.52096111039E+02  0.52096111039E+02  0.00000000000E+00 0.  1.
          2   -1    0    0  501    0  0.00000000000E+00 -0.00000000000E+00 -0.51712978854E+03  0.51712978854E+03  0.00000000000E+00 0. -1.
         25    2    1    2    0    0 -0.61383372338E+02  0.10689460070E+03 -0.25871637925E+03  0.31269075634E+03  0.12508784973E+03 0.  0.
          5    1    3    3  502    0 -0.62194303164E+02  0.13009041271E+03 -0.18087017523E+03  0.23135068514E+03  0.41800000000E+01 0.  1.
         -5    1    3    3    0  502  0.81093082583E+00 -0.23195812006E+02 -0.77846204022E+02  0.81340071207E+02  0.41800000000E+01 0.  1.
        -11    1    1    2    0    0  0.28419319354E+01  0.15519665188E+02 -0.13542124894E+02  0.20792444092E+02  0.00000000000E+00 0.  1.
         11    1    1    2    0    0  0.58541440403E+02 -0.12241426589E+03 -0.19277517335E+03  0.23574269914E+03  0.00000000000E+00 0. -1.
</event>
<event>
 7    1  0.2688177E-009  0.1078787E+03  0.7561462E-02  0.1264549E+00
         -1   -1    0    0    0  501 -0.00000000000E+00  0.00000000000E+00  0.36153098402E+02  0.36153098402E+02  0.00000000000E+00 0.  1.
          1   -1    0    0  501    0  0.00000000000E+00 -0.00000000000E+00 -0.39438185217E+03  0.39438185217E+03  0.00000000000E+00 0. -1.
         25    2    1    2    0    0  0.18632050552E+02  0.22646160082E+02 -0.27659284424E+03  0.30497729057E+03  0.12509014513E+03 0.  0.
          5    1    3    3  502    0 -0.46601624107E+02 -0.11004833032E+02 -0.16067452561E+03  0.16770984855E+03  0.41800000000E+01 0. -1.
         -5    1    3    3    0  502  0.65233674659E+02  0.33650993114E+02 -0.11591831863E+03  0.13726744202E+03  0.41800000000E+01 0. -1.
        -11    1    1    2    0    0  0.32069706088E+02 -0.28792300831E+02 -0.27459029304E+02  0.51102455186E+02  0.00000000000E+00 0.  1.
         11    1    1    2    0    0 -0.50701756641E+02  0.61461407483E+01 -0.54176880222E+02  0.74455204809E+02  0.00000000000E+00 0. -1.
</event>
<event>
 7    1  0.2688177E-009  0.9869731E+02  0.7561462E-02  0.1283059E+00
          1   -1    0    0  501    0  0.00000000000E+00  0.00000000000E+00  0.13056307774E+03  0.13056307774E+03  0.00000000000E+00 0. -1.
         -1   -1    0    0    0  501 -0.00000000000E+00 -0.00000000000E+00 -0.11058463069E+03  0.11058463069E+03  0.00000000000E+00 0.  1.
         25    2    1    2    0    0  0.13314477618E+02  0.76649438673E+01  0.60386260239E+01  0.12617362161E+03  0.12508913265E+03 0.  0.
          5    1    3    3  502    0  0.27384176524E+02 -0.32086112764E+02 -0.43666540914E+02  0.60857628541E+02  0.41800000000E+01 0. -1.
         -5    1    3    3    0  502 -0.14069698905E+02  0.39751056631E+02  0.49705166938E+02  0.65315993072E+02  0.41800000000E+01 0. -1.
        -11    1    1    2    0    0 -0.28031793931E+02 -0.55719262601E+02  0.16922719538E+02  0.64628137312E+02  0.00000000000E+00 0. -1.
         11    1    1    2    0    0  0.14717316312E+02  0.48054318734E+02 -0.29828985179E+01  0.50345949509E+02  0.00000000000E+00 0.  1.
</event>
<event>
 7    1  0.2688177E-009  0.1652749E+03  0.7561462E-02  0.1182867E+00
          2   -1    0    0  501    0  0.00000000000E+00  0.00000000000E+00  0.68304502406E+03  0.68304502406E+03  0.00000000000E+00 0. -1.
         -2   -1    0    0    0  501 -0.00000000000E+00 -0.00000000000E+00 -0.63977618605E+02  0.63977618605E+02  0.00000000000E+00 0.  1.
         25    2    1    2    0    0 -0.10489137362E+03 -0.95001886137E+02  0.51149838634E+03  0.54525753195E+03  0.12509044043E+03 0.  0.
          5    1    3    3  502    0 -0.25669114698E+02  0.30640742836E+02  0.10191180586E+03  0.10955020376E+03  0.41800000000E+01 0.  1.
         -5    1    3    3    0  502 -0.79222258926E+02 -0.12564262897E+03  0.40958658049E+03  0.43570732819E+03  0.41800000000E+01 0.  1.
        -11    1    1    2    0    0  0.55124697021E+02  0.55557626956E+02  0.16663797041E+01  0.78282558440E+02  0.00000000000E+00 0.  1.
         11    1    1    2    0    0  0.49766676603E+02  0.39444259181E+02  0.10590263941E+03  0.12348255227E+03  0.00000000000E+00 0. -1.
</event>
<event>
 7    1  0.2688177E-009  0.1566366E+03  0.7561462E-02  0.1192547E+00
          2   -1    0    0  501    0  0.00000000000E+00  0.00000000000E+00  0.24929768098E+03  0.24929768098E+03  0.00000000000E+00 0. -1.
         -2   -1    0    0    0  501 -0.00000000000E+00 -0.00000000000E+00 -0.11697591583E+03  0.11697591583E+03  0.00000000000E+00 0.  1.
         25    2    1    2    0    0 -0.58506482355E+02  0.11501599735E+03  0.93237329443E+02  0.20246638424E+03  0.12509096299E+03 0.  0.
          5    1    3    3  502    0 -0.74198991872E+02  0.13491720544E+03  0.79504881277E+02  0.17333967020E+03  0.41800000000E+01 0.  1.
         -5    1    3    3    0  502  0.15692509517E+02 -0.19901208087E+02  0.13732448167E+02  0.29126714043E+02  0.41800000000E+01 0.  1.
        -11    1    1    2    0    0  0.35567737147E+02 -0.10000571283E+03 -0.11000435057E+02  0.10671089961E+03  0.00000000000E+00 0.  1.
         11    1    1    2    0    0  0.22938745208E+02 -0.15010284523E+02  0.50084870768E+02  0.57096312955E+02  0.00000000000E+00 0. -1.
</event>
<event>
 7    1  0.2688177E-009  0.8702482E+02  0.7561462E-02  0.1310221E+00
         -3   -1    0    0    0  501 -0.00000000000E+00  0.00000000000E+00  0.96288226869E+02  0.96288226869E+02  0.00000000000E+00 0.  1.
          3   -1    0    0  501    0  0.00000000000E+00 -0.00000000000E+00 -0.12600201536E+03  0.12600201536E+03  0.00000000000E+00 0. -1.
         25    2    1    2    0    0 -0.53753344827E+01  0.42442221914E+02  0.14442665507E+02  0.13298871927E+03  0.12508865834E+03 0.  0.
          5    1    3    3  502    0  0.74879955746E+01 -0.40933607443E+02  0.23610879780E+02  0.48026829377E+02  0.41800000000E+01 0. -1.
         -5    1    3    3    0  502 -0.12863330057E+02  0.83375829357E+02 -0.91682142725E+01  0.84961889893E+02  0.41800000000E+01 0. -1.
        -11    1    1    2    0    0  0.11990973860E+02 -0.13427688748E+02  0.14770538445E+02  0.23286371232E+02  0.00000000000E+00 0.  1.
         11    1    1    2    0    0 -0.66156393771E+01 -0.29014533166E+02 -0.58926992448E+02  0.66015151732E+02  0.00000000000E+00 0. -1.
</event>
<event>
 6    1  0.2688177E-009  0.1023137E+03  0.7561462E-02  0.1275504E+00
          1   -1    0    0  501    0  0.00000000000E+00  0.00000000000E+00  0.39304592933E+03  0.39304592933E+03  0.00000000000E+00 0.  1.
         -1   -1    0    0    0  501 -0.00000000000E+00 -0.00000000000E+00 -0.45414600965E+02  0.45414600965E+02  0.00000000000E+00 0. -1.
          5    1    1    2  502    0 -0.28722287396E+02 -0.27820943568E+02  0.91688815698E+02  0.10011636239E+03  0.41800000000E+01 0. -1.
         -5    1    1    2    0  502 -0.58733991495E+01  0.64673258625E+02  0.37035733653E+01  0.65179107499E+02  0.41800000000E+01 0. -1.
        -11    1    1    2    0    0 -0.27859529320E+02 -0.21070692022E+02  0.50596547169E+02  0.61482827046E+02  0.00000000000E+00 0. -1.
         11    1    1    2    0    0  0.62455215865E+02 -0.15781623035E+02  0.20164239213E+03  0.21168223336E+03  0.00000000000E+00 0.  1.
</event>
<event>
 7    1  0.2688177E-009  0.1206739E+03  0.7561462E-02  0.1241989E+00
         -1   -1    0    0    0  501 -0.00000000000E+00  0.00000000000E+00  0.49787011875E+02  0.49787011875E+02  0.00000000000E+00 0.  1.
          1   -1    0    0  501    0  0.00000000000E+00 -0.00000000000E+00 -0.41461866910E+03  0.41461866910E+03  0.00000000000E+00 0. -1.
         25    2    1    2    0    0  0.11374887968E+02  0.88554186622E+02 -0.24484049341E+03  0.28908751019E+03  0.12511390528E+03 0.  0.
          5    1    3    3  502    0 -0.44462182894E+02  0.67369851312E+02 -0.19535627993E+03  0.21141696025E+03  0.41800000000E+01 0.  1.
         -5    1    3    3    0  502  0.55837070862E+02  0.21184335310E+02 -0.49484213477E+02  0.77670549943E+02  0.41800000000E+01 0.  1.
        -11    1    1    2    0    0  0.53853153312E+01 -0.82737927217E+02 -0.13056400558E+03  0.15466585200E+03  0.00000000000E+00 0. -1.
         11    1    1    2    0    0 -0.16760203299E+02 -0.58162594053E+01  0.10572841763E+02  0.20652318782E+02  0.00000000000E+00 0.  1.
</event>
<event>
 7    1  0.2688177E-009  0.2083157E+03  0.7561462E-02  0.1142907E+00
          2   -1    0    0  501    0  0.00000000000E+00  0.00000000000E+00  0.23753171577E+03  0.23753171577E+03  0.00000000000E+00 0. -1.
         -2   -1    0    0    0  501 -0.00000000000E+00 -0.00000000000E+00 -0.35060367817E+03  0.35060367817E+03  0.00000000000E+00 0.  1.
         25    2    1    2    0    0 -0.18588232164E+03 -0.37767124480E+02 -0.24968027303E+03  0.33758842027E+03  0.12508840701E+03 0.  0.
          5    1    3    3  502    0 -0.60338651986E+02  0.45605053776E+02 -0.71257966127E+02  0.10399876918E+03  0.41800000000E+01 0.  1.
         -5    1    3    3    0  502 -0.12554366965E+03 -0.83372178255E+02 -0.17842230690E+03  0.23358965109E+03  0.41800000000E+01 0.  1.
        -11    1    1    2    0    0  0.22772071673E+02  0.90223994346E+01 -0.12670616206E+02  0.27577444676E+02  0.00000000000E+00 0.  1.
         11    1    1    2    0    0  0.16311024997E+03  0.28744725045E+02  0.14927892684E+03  0.22296952900E+03  0.00000000000E+00 0. -1.
</event>
<event>
 7    1  0.2688177E-009  0.1318149E+03  0.7561462E-02  0.1224787E+00
         -2   -1    0    0    0  501 -0.00000000000E+00  0.00000000000E+00  0.18016032211E+03  0.18016032211E+03  0.00000000000E+00 0.  1.
          2   -1    0    0  501    0  0.00000000000E+00 -0.00000000000E+00 -0.26936677521E+03  0.26936677521E+03  0.00000000000E+00 0. -1.
         25    2    1    2    0    0  0.81345975984E+02  0.77655462961E+02 -0.20393604525E+03  0.26435814402E+03  0.12509108290E+03 0.  0.
          5    1    3    3  502    0 -0.37353937225E+01 -0.19072123720E+02  0.34567692619E+01  0.20177232793E+02  0.41800000000E+01 0. -1.
         -5    1    3    3    0  502  0.85081369706E+02  0.96727586681E+02 -0.20739281451E+03  0.24418091122E+03  0.41800000000E+01 0. -1.
        -11    1    1    2    0    0 -0.16821485560E+02 -0.30884679305E+02  0.97481151914E+02  0.10363108014E+03  0.00000000000E+00 0.  1.
         11    1    1    2    0    0 -0.64524490424E+02 -0.46770783656E+02  0.17248440234E+02  0.81537873156E+02  0.00000000000E+00 0. -1.
</event>
<event>
 7    1  0.3016334E-009  0.8307890E+02  0.7561462E-02  0.1320534E+00
          2   -1    0    0  501    0  0.00000000000E+00  0.00000000000E+00  0.81655924570E+03  0.81655924570E+03  0.00000000000E+00 0. -1.
         -2   -1    0    0    0  501 -0.00000000000E+00 -0.00000000000E+00 -0.18537941820E+02  0.18537941820E+02  0.00000000000E+00 0.  1.
         25    2    1    2    0    0 -0.21202620633E+02  0.38810078282E+02  0.57569513457E+03  0.59079132414E+03  0.12511485692E+03 0.  0.
          5    1    3    3  502    0  0.55726902470E+01  0.59421403631E+02  0.12260407518E+03  0.13642283436E+03  0.41800000000E+01 0.  1.
         -5    1    3    3    0  502 -0.26775310880E+02 -0.20611325348E+02  0.45309105939E+03  0.45436848978E+03  0.41800000000E+01 0.  1.
        -11    1    1    2    0    0  0.21529695683E+02  0.98111942980E+01  0.86880405180E+01  0.25204550736E+02  0.00000000000E+00 0.  1.
         11    1    1    2    0    0 -0.32707505059E+00 -0.48621272580E+02  0.21363812879E+03  0.21910131264E+03  0.00000000000E+00 0. -1.
</event>
<event>
 7    1  0.2688177E-009  0.2396992E+03  0.7561462E-02  0.1119993E+00
         -2   -1    0    0    0  501 -0.00000000000E+00  0.00000000000E+00  0.81924061541E+02  0.81924061541E+02  0.00000000000E+00 0.  1.
          2   -1    0    0  501    0  0.00000000000E+00 -0.00000000000E+00 -0.96846873266E+03  0.96846873266E+03  0.00000000000E+00 0. -1.
         25    2    1    2    0    0 -0.83423214457E+02 -0.20712171361E+03 -0.69675674085E+03  0.74227785101E+03  0.12509042818E+03 0.  0.
          5    1    3    3  502    0  0.21423968129E+02 -0.77192792766E+02 -0.32459677964E+03  0.33436246114E+03  0.41800000000E+01 0.  1.
         -5    1    3    3    0  502 -0.10484718259E+03 -0.12992892084E+03 -0.37215996121E+03  0.40791538988E+03  0.41800000000E+01 0.  1.
        -11    1    1    2    0    0  0.74532592445E+02  0.10020629981E+03 -0.14629353411E+03  0.19234918242E+03  0.00000000000E+00 0.  1.
         11    1    1    2    0    0  0.88906220119E+01  0.10691541380E+03 -0.43494396158E+02  0.11576576076E+03  0.00000000000E+00 0. -1.
</event>
<event>
 7    1  0.2688177E-009  0.1239133E+03  0.7561462E-02  0.1236777E+00
          1   -1    0    0  501    0  0.00000000000E+00  0.00000000000E+00  0.30983477843E+03  0.30983477843E+03  0.00000000000E+00 0. -1.
         -1   -1    0    0    0  501 -0.00000000000E+00 -0.00000000000E+00 -0.78929392238E+02  0.78929392238E+02  0.00000000000E+00 0.  1.
         25    2    1    2    0    0  0.13577436226E+02  0.73569643910E+02  0.22952129086E+03  0.27189093618E+03  0.12509124246E+03 0.  0.
          5    1    3    3  502    0 -0.42343693229E+02  0.65367010735E+02  0.18171595879E+03  0.19774730473E+03  0.41800000000E+01 0. -1.
         -5    1    3    3    0  502  0.55921129455E+02  0.82026331745E+01  0.47805332065E+02  0.74143631448E+02  0.41800000000E+01 0. -1.
        -11    1    1    2    0    0  0.31811042557E+02 -0.56161280432E+02 -0.13683372698E+02  0.65979288695E+02  0.00000000000E+00 0.  1.
         11    1    1    2    0    0 -0.45388478782E+02 -0.17408363478E+02  0.15067468025E+02  0.50893945788E+02  0.00000000000E+00 0. -1.
</event>
<event>
 7    1  0.2688177E-009  0.1147928E+03  0.7561462E-02  0.1251943E+00
          2   -1    0    0  501    0  0.00000000000E+00  0.00000000000E+00  0.52084745309E+03  0.52084745309E+03  0.00000000000E+00 0. -1.
         -2   -1    0    0    0  501 -0.00000000000E+00 -0.00000000000E+00 -0.27375640347E+02  0.27375640347E+02  0.00000000000E+00 0.  1.
         25    2    1    2    0    0 -0.45623757368E+02  0.15125882070E+02  0.27377712000E+03  0.30481483701E+03  0.12509138213E+03 0.  0.
          5    1    3    3  502    0  0.21380056595E+02 -0.40893333257E+02  0.10361139892E+03  0.11349962957E+03  0.41800000000E+01 0.  1.
         -5    1    3    3    0  502 -0.67003813963E+02  0.56019215327E+02  0.17016572108E+03  0.19131520745E+03  0.41800000000E+01 0.  1.
        -11    1    1    2    0    0  0.70093078956E+02 -0.98270548174E+01  0.19803350387E+03  0.21030187679E+03  0.00000000000E+00 0. -1.
         11    1    1    2    0    0 -0.24469321588E+02 -0.52988272529E+01  0.21661188869E+02  0.33106379634E+02  0.00000000000E+00 0.  1.
</event>
<event>
 7    1  0.2688177E-009  0.1021757E+03  0.7561462E-02  0.1275786E+00
          2   -1    0    0  501    0  0.00000000000E+00  0.00000000000E+00  0.24292911543E+03  0.24292911543E+03  0.00000000000E+00 0. -1.
         -2   -1    0    0    0  501 -0.00000000000E+00 -0.00000000000E+00 -0.61814611270E+02  0.61814611270E+02  0.00000000000E+00 0.  1.
         25    2    1    2    0    0  0.30194749222E+02 -0.43784483564E+02  0.77936916019E+02  0.15668455696E+03  0.12508830332E+03 0.  0.
          5    1    3    3  502    0 -0.32026585167E+02 -0.83763954562E+01  0.78146272758E+02  0.84971633527E+02  0.41800000000E+01 0.  1.
         -5    1    3    3    0  502  0.62221334389E+02 -0.35408088108E+02 -0.20935673881E+00  0.71712923430E+02  0.41800000000E+01 0.  1.
        -11    1    1    2    0    0  0.20373709626E+02  0.44235261884E+02  0.77015613097E+02  0.91122176766E+02  0.00000000000E+00 0. -1.
         11    1    1    2    0    0 -0.50568458848E+02 -0.45077831982E+00  0.26161975047E+02  0.56936992981E+02  0.00000000000E+00 0.  1.
</event>
<event>
 7    1  0.2688177E-009  0.7616913E+02  0.7561462E-02  0.1340288E+00
          1   -1    0    0  501    0  0.00000000000E+00  0.00000000000E+00  0.58524233814E+03  0.58524233814E+03  0.00000000000E+00 0. -1.
         -1   -1    0    0    0  501 -0.00000000000E+00 -0.00000000000E+00 -0.24687004794E+02  0.24687004794E+02  0.00000000000E+00 0.  1.
         25    2    1    2    0    0 -0.36375998551E+02 -0.11387764384E+02  0.41426807885E+03  0.43441696623E+03  0.12508862838E+03 0.  0.
          5    1    3    3  502    0 -0.55346930849E+01 -0.43580210136E+02  0.36571749896E+03  0.36837023358E+03  0.41800000000E+01 0.  1.
         -5    1    3    3    0  502 -0.30841305466E+02  0.32192445752E+02  0.48550579888E+02  0.66046732650E+02  0.41800000000E+01 0.  1.
        -11    1    1    2    0    0  0.49288812249E+02  0.69407235263E+01  0.15256653571E+03  0.16048086638E+03  0.00000000000E+00 0. -1.
         11    1    1    2    0    0 -0.12912813697E+02  0.44470408573E+01 -0.62792812121E+01  0.15031510320E+02  0.00000000000E+00 0.  1.
</event>
<event>
 7    1  0.2688177E-009  0.1111708E+03  0.7561462E-02  0.1258417E+00
          1   -1    0    0  501    0  0.00000000000E+00  0.00000000000E+00  0.11872828459E+03  0.11872828459E+03  0.00000000000E+00 0. -1.
         -1   -1    0    0    0  501 -0.00000000000E+00 -0.00000000000E+00 -0.16592778319E+03  0.16592778319E+03  0.00000000000E+00 0.  1.
         25    2    1    2    0    0 -0.76736973619E+02  0.40766965144E+02 -0.34080169977E+02  0.15607431348E+03  0.12508886751E+03 0.  0.
          5    1    3    3  502    0 -0.31865745547E+02 -0.66138152161E+01 -0.72960046842E+02  0.79998807030E+02  0.41800000000E+01 0. -1.
         -5    1    3    3    0  502 -0.44871228072E+02  0.47380780360E+02  0.38879876865E+02  0.76075506448E+02  0.41800000000E+01 0. -1.
        -11    1    1    2    0    0 -0.32802709799E+01 -0.43937166505E+02 -0.19636056328E+02  0.48237013655E+02  0.00000000000E+00 0. -1.
         11    1    1    2    0    0  0.80017244599E+02  0.31702013615E+01  0.65167277082E+01  0.80344740649E+02  0.00000000000E+00 0.  1.
</event>
<event>
 7    1  0.2688177E-009  0.8440641E+02  0.7561462E-02  0.1316992E+00
          1   -1    0    0  501    0  0.00000000000E+00  0.00000000000E+00  0.32264531956E+03  0.32264531956E+03  0.00000000000E+00 0. -1.
         -1   -1    0    0    0  501 -0.00000000000E+00 -0.00000000000E+00 -0.45980557962E+02  0.45980557962E+02  0.00000000000E+00 0.  1.
         25    2    1    2    0    0 -0.71625136791E+01  0.49297193798E+02  0.12016319507E+03  0.18048183370E+03  0.12511188564E+03 0.  0.
          5    1    3    3  502    0 -0.26573686456E+02  0.34777353864E+02  0.14134176253E+03  0.14802226653E+03  0.41800000000E+01 0. -1.
         -5    1    3    3    0  502  0.19411172777E+02  0.14519839935E+02 -0.21178567469E+02  0.32459567162E+02  0.41800000000E+01 0. -1.
        -11    1    1    2    0    0 -0.10474298289E+02  0.23295923681E+02  0.66139182858E+02  0.70899947066E+02  0.00000000000E+00 0. -1.
         11    1    1    2    0    0  0.17636811968E+02 -0.72593117479E+02  0.90362383670E+02  0.11724409676E+03  0.00000000000E+00 0.  1.
</event>
<event>
 7    1  0.2688177E-009  0.1459970E+03  0.7561462E-02  0.1205480E+00
         -2   -1    0    0    0  501 -0.00000000000E+00  0.00000000000E+00  0.47608762646E+02  0.47608762646E+02  0.00000000000E+00 0.  1.
          2   -1    0    0  501    0  0.00000000000E+00 -0.00000000000E+00 -0.59952369949E+03  0.59952369949E+03  0.00000000000E+00 0. -1.
         25    2    1    2    0    0 -0.12156387558E+03 -0.24527667353E+02 -0.22722908600E+03  0.28750651437E+03  0.12509019134E+03 0.  0.
          5    1    3    3  502    0 -0.27845878870E+02  0.43467922397E+02 -0.33205449097E+02  0.61521764420E+02  0.41800000000E+01 0. -1.
         -5    1    3    3    0  502 -0.93717996713E+02 -0.67995589751E+02 -0.19402363690E+03  0.22598474995E+03  0.41800000000E+01 0. -1.
        -11    1    1    2    0    0  0.81385515938E+02  0.12069647862E+02 -0.29950363408E+03  0.31059894629E+03  0.00000000000E+00 0. -1.
         11    1    1    2    0    0  0.40178359645E+02  0.12458019492E+02 -0.25182216766E+02  0.49027001485E+02  0.00000000000E+00 0.  1.
</event>
<event>
 7    1  0.2688177E-009  0.1430017E+03  0.7561462E-02  0.1209346E+00
         -2   -1    0    0    0  501 -0.00000000000E+00  0.00000000000E+00  0.29380741968E+03  0.29380741968E+03  0.00000000000E+00 0.  1.
          2   -1    0    0  501    0  0.00000000000E+00 -0.00000000000E+00 -0.75540137297E+02  0.75540137297E+02  0.00000000000E+00 0. -1.
         25    2    1    2    0    0 -0.89136880241E+02  0.47884246739E+02  0.10081243184E+03  0.18987121055E+03  0.12509854386E+03 0.  0.
          5    1    3    3  502    0 -0.17947053535E+02 -0.42146012604E+02  0.30918995732E+02  0.55424180698E+02  0.41800000000E+01 0.  1.
         -5    1    3    3    0  502 -0.71189826706E+02  0.90030259343E+02  0.69893436111E+02  0.13444702985E+03  0.41800000000E+01 0.  1.
        -11    1    1    2    0    0  0.97665347364E+02 -0.25120436878E+02  0.60622196284E+02  0.11766310852E+03  0.00000000000E+00 0. -1.
         11    1    1    2    0    0 -0.85284671235E+01 -0.22763809861E+02  0.56832654253E+02  0.61813237905E+02  0.00000000000E+00 0.  1.
</event>
<event>
 7    1  0.2688177E-009  0.1007913E+03  0.7561462E-02  0.1278641E+00
          2   -1    0    0  501    0  0.00000000000E+00  0.00000000000E+00  0.38039308609E+03  0.38039308609E+03  0.00000000000E+00 0. -1.
         -2   -1    0    0    0  501 -0.00000000000E+00 -0.00000000000E+00 -0.46551376298E+02  0.46551376298E+02  0.00000000000E+00 0.  1.
         25    2    1    2    0    0 -0.56572031527E+02 -0.51655095644E+02  0.16687653090E+03  0.22219678265E+03  0.12511990249E+03 0.  0.
          5    1    3    3  502    0 -0.37837104522E+02  0.47313474139E+01 -0.64701411864E+01  0.38902021207E+02  0.41800000000E+01 0. -1.
         -5    1    3    3    0  502 -0.18734927005E+02 -0.56386443058E+02  0.17334667208E+03  0.18329476144E+03  0.41800000000E+01 0. -1.
        -11    1    1    2    0    0 -0.16091621438E+02  0.16096707614E+02  0.44224209031E+01  0.23186247716E+02  0.00000000000E+00 0.  1.
         11    1    1    2    0    0  0.72663652965E+02  0.35558388030E+02  0.16254275799E+03  0.18156143202E+03  0.00000000000E+00 0. -1.
</event>
<event>
 7    1  0.2688177E-009  0.9536093E+02  0.7561462E-02  0.1290365E+00
          2   -1    0    0  501    0  0.00000000000E+00  0.00000000000E+00  0.18041049213E+03  0.18041049213E+03  0.00000000000E+00 0.  1.
         -2   -1    0    0    0  501 -0.00000000000E+00 -0.00000000000E+00 -0.92061726676E+02  0.92061726676E+02  0.00000000000E+00 0. -1.
         25    2    1    2    0    0  0.71187375611E+02  0.70582081074E+00  0.52630010310E+02  0.15325171537E+03  0.12509208468E+03 0.  0.
          5    1    3    3  502    0 -0.99378458322E+01  0.22681042965E+02  0.63607969735E+02  0.68385939370E+02  0.41800000000E+01 0.  1.
         -5    1    3    3    0  502  0.81125221443E+02 -0.21975222154E+02 -0.10977959425E+02  0.84865776000E+02  0.41800000000E+01 0.  1.
        -11    1    1    2    0    0 -0.58026699044E+02  0.15997034869E+02 -0.16856924032E+02  0.62507270092E+02  0.00000000000E+00 0. -1.
         11    1    1    2    0    0 -0.13160676567E+02 -0.16702855680E+02  0.52575679175E+02  0.56713233343E+02  0.00000000000E+00 0.  1.
</event>
<event>
 7    1  0.2688177E-009  0.1419007E+03  0.7561462E-02  0.1210794E+00
         -1   -1    0    0    0  501 -0.00000000000E+00  0.00000000000E+00  0.15832997675E+02  0.15832997675E+02  0.00000000000E+00 0.  1.
          1   -1    0    0  501    0  0.00000000000E+00 -0.00000000000E+00 -0.15407919942E+04  0.15407919942E+04  0.00000000000E+00 0. -1.
         25    2    1    2    0    0 -0.10309133839E+03 -0.42455598448E+02 -0.85044877766E+03  0.86679919615E+03  0.12508965239E+03 0.  0.
          5    1    3    3  502    0 -0.50279740226E+02 -0.76779990584E+02 -0.33047843841E+03  0.34301120956E+03  0.41800000000E+01 0.  1.
         -5    1    3    3    0  502 -0.52811598160E+02  0.34324392136E+02 -0.51997033925E+03  0.52378798659E+03  0.41800000000E+01 0.  1.
        -11    1    1    2    0    0  0.61875645035E+01 -0.14944915813E+02 -0.20128493859E+02  0.25822330030E+02  0.00000000000E+00 0.  1.
         11    1    1    2    0    0  0.96903773882E+02  0.57400514261E+02 -0.65438172502E+03  0.66400346571E+03  0.00000000000E+00 0. -1.
</event>
<event>
 7    1  0.2688177E-009  0.1138440E+03  0.7561462E-02  0.1253613E+00
          2   -1    0    0  501    0  0.00000000000E+00  0.00000000000E+00  0.95730847856E+03  0.95730847856E+03  0.00000000000E+00 0. -1.
         -2   -1    0    0    0  501 -0.00000000000E+00 -0.00000000000E+00 -0.18366542388E+02  0.18366542388E+02  0.00000000000E+00 0.  1.
         25    2    1    2    0    0 -0.38040711590E+02 -0.25642754307E+02  0.74519904585E+03  0.75701225196E+03  0.12506512342E+03 0.  0.
          5    1    3    3  502    0 -0.48227097971E+02  0.38964403059E+02  0.25556601639E+03  0.26301243092E+03  0.41800000000E+01 0.  1.
         -5    1    3    3    0  502  0.10186386381E+02 -0.64607157366E+02  0.48963302946E+03  0.49399982105E+03  0.41800000000E+01 0.  1.
        -11    1    1    2    0    0 -0.11923260334E+02 -0.25721829621E+02  0.72233908387E+02  0.77598416073E+02  0.00000000000E+00 0.  1.
         11    1    1    2    0    0  0.49963971924E+02  0.51364583928E+02  0.12150898193E+03  0.14106435291E+03  0.00000000000E+00 0. -1.
</event>
<event>
 7    1  0.2688177E-009  0.1038970E+03  0.7561462E-02  0.1272308E+00
          2   -1    0    0  501    0  0.00000000000E+00  0.00000000000E+00  0.53531196792E+03  0.53531196792E+03  0.00000000000E+00 0. -1.
         -2   -1    0    0    0  501 -0.00000000000E+00 -0.00000000000E+00 -0.36857855867E+02  0.36857855867E+02  0.00000000000E+00 0.  1.
         25    2    1    2    0    0  0.72182610993E+02  0.46842177155E+02  0.32470532367E+03  0.35845539050E+03  0.12510875616E+03 0.  0.
          5    1    3    3  502    0  0.76283154186E+02  0.65448098726E+02  0.13821959080E+03  0.17095233523E+03  0.41800000000E+01 0. -1.
         -5    1    3    3    0  502 -0.41005431925E+01 -0.18605921571E+02  0.18648573287E+03  0.18750305527E+03  0.41800000000E+01 0. -1.
        -11    1    1    2    0    0 -0.32900177668E+02 -0.31405730317E+02  0.16427817346E+03  0.17045838162E+03  0.00000000000E+00 0. -1.
         11    1    1    2    0    0 -0.39282433325E+02 -0.15436446838E+02  0.94706149171E+01  0.43256051667E+02  0.00000000000E+00 0.  1.
</event>
<event>
 7    1  0.2688177E-009  0.2464537E+03  0.7561462E-02  0.1115567E+00
          1   -1    0    0  501    0  0.00000000000E+00  0.00000000000E+00  0.17985715067E+03  0.17985715067E+03  0.00000000000E+00 0. -1.
         -1   -1    0    0    0  501 -0.00000000000E+00 -0.00000000000E+00 -0.38875860203E+03  0.38875860203E+03  0.00000000000E+00 0.  1.
         25    2    1    2    0    0 -0.20822442983E+03 -0.12061504624E+03 -0.11476172990E+03  0.29448806206E+03  0.12509021340E+03 0.  0.
          5    1    3    3  502    0 -0.12827649483E+03 -0.87469601494E+02 -0.13468414082E+03  0.20557986404E+03  0.41800000000E+01 0. -1.
         -5    1    3    3    0  502 -0.79947935000E+02 -0.33145444745E+02  0.19922410916E+02  0.88908198019E+02  0.41800000000E+01 0. -1.
        -11    1    1    2    0    0  0.15960016216E+03  0.12413440978E+03 -0.49814043819E+02  0.20823785058E+03  0.00000000000E+00 0. -1.
         11    1    1    2    0    0  0.48624267671E+02 -0.35193635369E+01 -0.44325677643E+02  0.65889840072E+02  0.00000000000E+00 0.  1.
</event>
<event>
 7    1  0.2688177E-009  0.9345441E+02  0.7561462E-02  0.1294696E+00
          1   -1    0    0  501    0  0.00000000000E+00  0.00000000000E+00  0.37246715775E+03  0.37246715775E+03  0.00000000000E+00 0. -1.
         -1   -1    0    0    0  501 -0.00000000000E+00 -0.00000000000E+00 -0.45572191396E+02  0.45572191396E+02  0.00000000000E+00 0.  1.
         25    2    1    2    0    0  0.26023576137E+02  0.46542886430E+02  0.24676625520E+03  0.28175421092E+03  0.12509350053E+03 0.  0.
          5    1    3    3  502    0 -0.22907512761E+02  0.41137419529E+02  0.22106622840E+03  0.22606368829E+03  0.41800000000E+01 0. -1.
         -5    1    3    3    0  502  0.48931088898E+02  0.54054669012E+01  0.25700026803E+02  0.55690522630E+02  0.41800000000E+01 0. -1.
        -11    1    1    2    0    0 -0.51342414081E+02 -0.36499894488E+02  0.13668880868E+02  0.64460251982E+02  0.00000000000E+00 0.  1.
         11    1    1    2    0    0  0.25318837944E+02 -0.10042991942E+02  0.66459830284E+02  0.71824886240E+02  0.00000000000E+00 0. -1.
</event>
<event>
 7    1  0.2688177E-009  0.9695105E+02  0.7561462E-02  0.1286841E+00
          1   -1    0    0  501    0  0.00000000000E+00  0.00000000000E+00  0.41950159170E+03  0.41950159170E+03  0.00000000000E+00 0. -1.
         -1   -1    0    0    0  501 -0.00000000000E+00 -0.00000000000E+00 -0.35972174729E+02  0.35972174729E+02  0.00000000000E+00 0.  1.
         25    2    1    2    0    0 -0.59030336890E+02 -0.30984300496E+01  0.15401628431E+03  0.20703469132E+03  0.12509263223E+03 0.  0.
          5    1    3    3  502    0  0.12108827787E+02  0.28444135050E+02 -0.34039174155E+01  0.31380751790E+02  0.41800000000E+01 0. -1.
         -5    1    3    3    0  502 -0.71139164677E+02 -0.31542565100E+02  0.15742020172E+03  0.17565393953E+03  0.41800000000E+01 0. -1.
        -11    1    1    2    0    0  0.49466399565E+02  0.28878404004E+02  0.20026439123E+03  0.20829477502E+03  0.00000000000E+00 0. -1.
         11    1    1    2    0    0  0.95639373242E+01 -0.25779973954E+02  0.29248741436E+02  0.40144300091E+02  0.00000000000E+00 0.  1.
</event>
<event>
 7    1  0.2688177E-009  0.9966189E+02  0.7561462E-02  0.1281009E+00
         -2   -1    0    0    0  501 -0.00000000000E+00  0.00000000000E+00  0.17773731612E+02  0.17773731612E+02  0.00000000000E+00 0.  1.
          2   -1    0    0  501    0  0.00000000000E+00 -0.00000000000E+00 -0.70768273296E+03  0.70768273296E+03  0.00000000000E+00 0. -1.
         25    2    1    2    0    0  0.10589326028E+02 -0.11730898210E+01 -0.47370540047E+03  0.49005805928E+03  0.12508631047E+03 0.  0.
          5    1    3    3  502    0  0.54311316506E+02  0.21264989503E+02 -0.12643251302E+03  0.13930029299E+03  0.41800000000E+01 0. -1.
         -5    1    3    3    0  502 -0.43721990477E+02 -0.22438079324E+02 -0.34727288745E+03  0.35075776629E+03  0.41800000000E+01 0. -1.
        -11    1    1    2    0    0  0.39047072445E+02 -0.10708114866E+02 -0.11749230323E+03  0.12427300153E+03  0.00000000000E+00 0.  1.
         11    1    1    2    0    0 -0.49636398473E+02  0.11881204687E+02 -0.98711297656E+02  0.11112540377E+03  0.00000000000E+00 0. -1.
</event>
<event>
 7    1  0.2688177E-009  0.9055616E+02  0.7561462E-02  0.1301510E+00
         -3   -1    0    0    0  501 -0.00000000000E+00  0.00000000000E+00  0.22139496161E+03  0.22139496161E+03  0.00000000000E+00 0.  1.
          3   -1    0    0  501    0  0.00000000000E+00 -0.00000000000E+00 -0.59243025358E+02  0.59243025358E+02  0.00000000000E+00 0. -1.
         25    2    1    2    0    0  0.33146633984E+02 -0.41974553854E+01  0.10767312111E+03  0.16839778165E+03  0.12509194170E+03 0.  0.
          5    1    3    3  502    0 -0.45479975269E+02  0.15428981994E+02  0.36607670001E+02  0.60531607766E+02  0.41800000000E+01 0.  1.
         -5    1    3    3    0  502  0.78626609254E+02 -0.19626437379E+02  0.71065451112E+02  0.10786617389E+03  0.41800000000E+01 0.  1.
        -11    1    1    2    0    0 -0.56361047365E+00  0.16809751837E+02  0.71446262620E+02  0.73399276944E+02  0.00000000000E+00 0.  1.
         11    1    1    2    0    0 -0.32583023511E+02 -0.12612296452E+02 -0.16967447480E+02  0.38840928373E+02  0.00000000000E+00 0. -1.
</event>
<event>
 7    1  0.2688177E-009  0.2092213E+03  0.7561462E-02  0.1142184E+00
          1   -1    0    0  501    0  0.00000000000E+00  0.00000000000E+00  0.97706707502E+03  0.97706707502E+03  0.00000000000E+00 0. -1.
         -1   -1    0    0    0  501 -0.00000000000E+00 -0.00000000000E+00 -0.49932792692E+02  0.49932792692E+02  0.00000000000E+00 0.  1.
         25    2    1    2    0    0 -0.13421101806E+03 -0.12292225245E+03  0.62756036348E+03  0.66528326286E+03  0.12508929816E+03 0.  0.
          5    1    3    3  502    0 -0.78535807042E+02  0.28999530118E+01  0.29599752091E+03  0.30628138614E+03  0.41800000000E+01 0. -1.
         -5    1    3    3    0  502 -0.55675211016E+02 -0.12582220547E+03  0.33156284258E+03  0.35900187672E+03  0.41800000000E+01 0. -1.
        -11    1    1    2    0    0  0.12063753347E+03  0.54576615589E+02  0.20952459096E+03  0.24785595750E+03  0.00000000000E+00 0.  1.
         11    1    1    2    0    0  0.13573484584E+02  0.68345636866E+02  0.90049327883E+02  0.11386064735E+03  0.00000000000E+00 0. -1.
</event>
<event>
 7    1  0.2688177E-009  0.1382527E+03  0.7561462E-02  0.1215700E+00
          2   -1    0    0  501    0  0.00000000000E+00  0.00000000000E+00  0.25682094314E+03  0.25682094314E+03  0.00000000000E+00 0. -1.
         -2   -1    0    0    0  501 -0.00000000000E+00 -0.00000000000E+00 -0.75783154173E+02  0.75783154173E+02  0.00000000000E+00 0.  1.
         25    2    1    2    0    0 -0.47383398232E+02  0.71804070643E+02  0.10512645452E+03  0.18466350654E+03  0.12509207897E+03 0.  0.
          5    1    3    3  502    0 -0.36590107615E+02 -0.29814045899E+02  0.48300364102E+02  0.67661738676E+02  0.41800000000E+01 0. -1.
         -5    1    3    3    0  502 -0.10793290617E+02  0.10161811654E+03  0.56826090420E+02  0.11700176787E+03  0.41800000000E+01 0. -1.
        -11    1    1    2    0    0  0.74751042046E+02 -0.39626430945E+02  0.53796437461E+02  0.10025980750E+03  0.00000000000E+00 0.  1.
         11    1    1    2    0    0 -0.27367643814E+02 -0.32177639698E+02  0.22114896981E+02  0.47680783267E+02  0.00000000000E+00 0. -1.
</event>
<event>
 7    1  0.2688177E-009  0.2427319E+03  0.7561462E-02  0.1117986E+00
         -1   -1    0    0    0  501 -0.00000000000E+00  0.00000000000E+00  0.22912107812E+03  0.22912107812E+03  0.00000000000E+00 0.  1.
          1   -1    0    0  501    0  0.00000000000E+00 -0.00000000000E+00 -0.27317223076E+03  0.27317223076E+03  0.00000000000E+00 0. -1.
         25    2    1    2    0    0  0.55981833734E+02 -0.21126992278E+03 -0.37908900073E+02  0.25466716004E+03  0.12509728900E+03 0.  0.
          5    1    3    3  502    0  0.20692247115E+02 -0.20269762150E+03 -0.59384791833E+02  0.21226992428E+03  0.41800000000E+01 0.  1.
         -5    1    3    3    0  502  0.35289586619E+02 -0.85723012862E+01  0.21475891760E+02  0.42397235758E+02  0.41800000000E+01 0.  1.
        -11    1    1    2    0    0 -0.66944813237E+02  0.50210501367E+02  0.14332951040E+02  0.84900741765E+02  0.00000000000E+00 0.  1.
         11    1    1    2    0    0  0.10962979503E+02  0.16105942142E+03 -0.20475203605E+02  0.16272540708E+03  0.00000000000E+00 0. -1.
</event>
<event>
 7    1  0.2688177E-009  0.8540024E+02  0.7561462E-02  0.1314389E+00
         -1   -1    0    0    0  501 -0.00000000000E+00  0.00000000000E+00  0.12906416458E+02  0.12906416458E+02  0.00000000000E+00 0.  1.
          1   -1    0    0  501    0  0.00000000000E+00 -0.00000000000E+00 -0.11618813230E+04  0.11618813230E+04  0.00000000000E+00 0. -1.
         25    2    1    2    0    0  0.41928675275E+02  0.35654974020E+02 -0.70747565140E+03  0.72055395074E+03  0.12508759977E+03 0.  0.
          5    1    3    3  502    0  0.29636301232E+02  0.41170583796E+02 -0.70424512692E+03  0.70608214714E+03  0.41800000000E+01 0. -1.
         -5    1    3    3    0  502  0.12292374043E+02 -0.55156097760E+01 -0.32305244756E+01  0.14471803592E+02  0.41800000000E+01 0. -1.
        -11    1    1    2    0    0  0.32812985612E-01  0.28845445411E+02 -0.94465169040E+02  0.98771093744E+02  0.00000000000E+00 0. -1.
         11    1    1    2    0    0 -0.41961488260E+02 -0.64500419431E+02 -0.34703408614E+03  0.35546269501E+03  0.00000000000E+00 0.  1.
</event>
<event>
 7    1  0.2688177E-009  0.8204257E+02  0.7561462E-02  0.1323353E+00
         -2   -1    0    0    0  501 -0.00000000000E+00  0.00000000000E+00  0.29687724594E+02  0.29687724594E+02  0.00000000000E+00 0.  1.
          2   -1    0    0  501    0  0.00000000000E+00 -0.00000000000E+00 -0.44756164348E+03  0.44756164348E+03  0.00000000000E+00 0. -1.
         25    2    1    2    0    0 -0.35693421759E+02  0.13138840279E+02 -0.20940897114E+03  0.24687335867E+03  0.12509072127E+03 0.  0.
          5    1    3    3  502    0  0.58580673320E+01  0.27033193990E+02 -0.19989737224E+03  0.20184534267E+03  0.41800000000E+01 0. -1.
         -5    1    3    3    0  502 -0.41551489091E+02 -0.13894353711E+02 -0.95115988940E+01  0.45028015993E+02  0.41800000000E+01 0. -1.
        -11    1    1    2    0    0  0.38931019066E+02  0.29806603101E+02 -0.14965924557E+03  0.15748634106E+03  0.00000000000E+00 0.  1.
         11    1    1    2    0    0 -0.32375973076E+01 -0.42945443380E+02 -0.58805702174E+02  0.72889668346E+02  0.00000000000E+00 0. -1.
</event>
<event>
 6    1  0.2688177E-009  0.2139433E+03  0.7561462E-02  0.1138481E+00
         -2   -1    0    0    0  501 -0.00000000000E+00  0.00000000000E+00  0.11573030660E+03  0.11573030660E+03  0.00000000000E+00 0.  1.
          2   -1    0    0  501    0  0.00000000000E+00 -0.00000000000E+00 -0.47595651911E+03  0.47595651911E+03  0.00000000000E+00 0. -1.
          5    1    1    2  502    0 -0.49728792888E+02  0.30736176739E+02 -0.41937919302E+02  0.72068903682E+02  0.41800000000E+01 0. -1.
         -5    1    1    2    0  502  0.38525566945E+02  0.16515551197E+03 -0.22995696126E+03  0.28575905738E+03  0.41800000000E+01 0. -1.
        -11    1    1    2    0    0  0.23273294449E+02 -0.16190887416E+03 -0.10474553415E+03  0.19423634235E+03  0.00000000000E+00 0. -1.
         11    1    1    2    0    0 -0.12070068507E+02 -0.33982814558E+02  0.16414202204E+02  0.39622522296E+02  0.00000000000E+00 0.  1.
</event>
<event>
 7    1  0.2688177E-009  0.1372758E+03  0.7561462E-02  0.1217042E+00
          1   -1    0    0  501    0  0.00000000000E+00  0.00000000000E+00  0.18868232609E+03  0.18868232609E+03  0.00000000000E+00 0. -1.
         -1   -1    0    0    0  501 -0.00000000000E+00 -0.00000000000E+00 -0.11920515599E+03  0.11920515599E+03  0.00000000000E+00 0.  1.
         25    2    1    2    0    0 -0.47974319867E+02 -0.79535902144E+02  0.63322472429E+02  0.16818371248E+03  0.12509408673E+03 0.  0.
          5    1    3    3  502    0  0.14119023294E+02 -0.76461581070E+02 -0.20223696473E+01  0.77892763319E+02  0.41800000000E+01 0.  1.
         -5    1    3    3    0  502 -0.62093343161E+02 -0.30743210738E+01  0.65344842076E+02  0.90290949164E+02  0.41800000000E+01 0.  1.
        -11    1    1    2    0    0  0.42337763104E+02  0.10241023287E+03 -0.98028440480E+01  0.11124943924E+03  0.00000000000E+00 0.  1.
         11    1    1    2    0    0  0.56365567633E+01 -0.22874330725E+02  0.15957541718E+02  0.28454330355E+02  0.00000000000E+00 0. -1.
</event>
<event>
 7    1  0.2688177E-009  0.8229536E+02  0.7561462E-02  0.1322661E+00
         -1   -1    0    0    0  501 -0.00000000000E+00  0.00000000000E+00  0.60305025044E+02  0.60305025044E+02  0.00000000000E+00 0.  1.
          1   -1    0    0  501    0  0.00000000000E+00 -0.00000000000E+00 -0.24690663771E+03  0.24690663771E+03  0.00000000000E+00 0. -1.
         25    2    1    2    0    0 -0.15567760423E+02 -0.46060101733E+02 -0.14728110256E+03  0.19925607214E+03  0.12508945190E+03 0.  0.
          5    1    3    3  502    0  0.15403394998E+02 -0.46240721534E+01 -0.14640859485E+03  0.14734855163E+03  0.41800000000E+01 0. -1.
         -5    1    3    3    0  502 -0.30971155421E+02 -0.41436029580E+02 -0.87250770601E+00  0.51907520507E+02  0.41800000000E+01 0. -1.
        -11    1    1    2    0    0  0.14885028455E+01  0.69076530215E+02 -0.13082347508E+02  0.70320199684E+02  0.00000000000E+00 0.  1.
         11    1    1    2    0    0  0.14079257578E+02 -0.23016428482E+02 -0.26238162594E+02  0.37635390929E+02  0.00000000000E+00 0. -1.
</event>
<event>
 7    1  0.2688177E-009  0.1422770E+03  0.7561462E-02  0.1210297E+00
         -2   -1    0    0    0  501 -0.00000000000E+00  0.00000000000E+00  0.86324073989E+02  0.86324073989E+02  0.00000000000E+00 0.  1.
          2   -1    0    0  501    0  0.00000000000E+00 -0.00000000000E+00 -0.24635567145E+03  0.24635567145E+03  0.00000000000E+00 0. -1.
         25    2    1    2    0    0 -0.84757683177E+02  0.40889306994E+02 -0.54529070221E+02  0.16576112978E+03  0.12509009698E+03 0.  0.
          5    1    3    3  502    0 -0.16764145292E+00  0.67464912784E+02 -0.19688319478E+02  0.70403443698E+02  0.41800000000E+01 0. -1.
         -5    1    3    3    0  502 -0.84590041724E+02 -0.26575605790E+02 -0.34840750743E+02  0.95357686079E+02  0.41800000000E+01 0. -1.
        -11    1    1    2    0    0 -0.17357753474E+02 -0.14770993370E+02 -0.10802460604E+02  0.25222351316E+02  0.00000000000E+00 0.  1.
         11    1    1    2    0    0  0.10211543665E+03 -0.26118313625E+02 -0.94700066637E+02  0.14169626435E+03  0.00000000000E+00 0. -1.
</event>
<event>
 7    1  0.2688177E-009  0.8121728E+02  0.7561462E-02  0.1325632E+00
          4   -1    0    0  501    0  0.00000000000E+00  0.00000000000E+00  0.47928269156E+03  0.47928269156E+03  0.00000000000E+00 0. -1.
         -4   -1    0    0    0  501 -0.00000000000E+00 -0.00000000000E+00 -0.31409593621E+02  0.31409593621E+02  0.00000000000E+00 0.  1.
         25    2    1    2    0    0  0.44182663307E+02 -0.29893285144E+02  0.30229711349E+03  0.33147681597E+03  0.12509044117E+03 0.  0.
          5    1    3    3  502    0 -0.60330304585E+01 -0.36412333439E+02  0.26709244680E+03  0.26966294336E+03  0.41800000000E+01 0.  1.
         -5    1    3    3    0  502  0.50215693766E+02  0.65190482951E+01  0.35204666684E+02  0.61813872613E+02  0.41800000000E+01 0.  1.
        -11    1    1    2    0    0 -0.43532530923E+02 -0.10355980199E+01  0.16633041546E+02  0.46613429212E+02  0.00000000000E+00 0.  1.
         11    1    1    2    0    0 -0.65013238410E+00  0.30928883164E+02  0.12894294290E+03  0.13260203999E+03  0.00000000000E+00 0. -1.
</event>
<event>
 7    1  0.2688177E-009  0.1675458E+03  0.7561462E-02  0.1180432E+00
         -1   -1    0    0    0  501 -0.00000000000E+00  0.00000000000E+00  0.18824590133E+02  0.18824590133E+02  0.00000000000E+00 0.  1.
          1   -1    0    0  501    0  0.00000000000E+00 -0.00000000000E+00 -0.17903195294E+04  0.17903195294E+04  0.00000000000E+00 0. -1.
         25    2    1    2    0    0  0.54067548847E+02  0.13535503054E+03 -0.10696208110E+04  0.10867298646E+04  0.12509530363E+03 0.  0.
          5    1    3    3  502    0 -0.95274539777E+01  0.81641574115E+02 -0.25725427791E+03  0.27009878731E+03  0.41800000000E+01 0.  1.
         -5    1    3    3    0  502  0.63595002825E+02  0.53713456424E+02 -0.81236653312E+03  0.81663107724E+03  0.41800000000E+01 0.  1.
        -11    1    1    2    0    0 -0.77997996910E+02 -0.10340577501E+03 -0.49109020014E+03  0.50788387107E+03  0.00000000000E+00 0.  1.
         11    1    1    2    0    0  0.23930448063E+02 -0.31949255528E+02 -0.21078392809E+03  0.21453038389E+03  0.00000000000E+00 0. -1.
</event>
<event>
 7    1  0.2688177E-009  0.9601520E+02  0.7561462E-02  0.1288906E+00
          1   -1    0    0  501    0  0.00000000000E+00  0.00000000000E+00  0.74335738181E+02  0.74335738181E+02  0.00000000000E+00 0. -1.
         -1   -1    0    0    0  501 -0.00000000000E+00 -0.00000000000E+00 -0.19019509420E+03  0.19019509420E+03  0.00000000000E+00 0.  1.
         25    2    1    2    0    0 -0.44344255369E+02 -0.17165380503E+02 -0.69745248557E+02  0.15090343456E+03  0.12508550514E+03 0.  0.
          5    1    3    3  502    0 -0.14817908372E+02 -0.49727315943E+02 -0.88704681264E+02  0.10285119949E+03  0.41800000000E+01 0.  1.
         -5    1    3    3    0  502 -0.29526346997E+02  0.32561935440E+02  0.18959432707E+02  0.48052235070E+02  0.41800000000E+01 0.  1.
        -11    1    1    2    0    0  0.52531358943E+02  0.43524137019E+02 -0.11218634909E+02  0.69135750121E+02  0.00000000000E+00 0. -1.
         11    1    1    2    0    0 -0.81871035741E+01 -0.26358756516E+02 -0.34895472557E+02  0.44491647699E+02  0.00000000000E+00 0.  1.
</event>
<event>
 7    1  0.2688177E-009  0.1956646E+03  0.7561462E-02  0.1153449E+00
         -2   -1    0    0    0  501 -0.00000000000E+00  0.00000000000E+00  0.37264357301E+02  0.37264357301E+02  0.00000000000E+00 0.  1.
          2   -1    0    0  501    0  0.00000000000E+00 -0.00000000000E+00 -0.10783134962E+04  0.10783134962E+04  0.00000000000E+00 0. -1.
         25    2    1    2    0    0 -0.37847786885E+02 -0.16257376763E+03 -0.49050880300E+03  0.53301839850E+03  0.12508813863E+03 0.  0.
          5    1    3    3  502    0 -0.77772038835E+02 -0.11261292473E+03 -0.26107429137E+03  0.29480064256E+03  0.41800000000E+01 0. -1.
         -5    1    3    3    0  502  0.39924251950E+02 -0.49960842903E+02 -0.22943451163E+03  0.23821775594E+03  0.41800000000E+01 0. -1.
        -11    1    1    2    0    0 -0.26225463249E+02  0.88859485083E+02 -0.27987621541E+03  0.29481261670E+03  0.00000000000E+00 0.  1.
         11    1    1    2    0    0  0.64073250134E+02  0.73714282545E+02 -0.27066412049E+03  0.28774683831E+03  0.00000000000E+00 0. -1.
</event>
<event>
 7    1  0.2688177E-009  0.1573812E+03  0.7561462E-02  0.1191686E+00
          1   -1    0    0  501    0  0.00000000000E+00  0.00000000000E+00  0.49375708243E+03  0.49375708243E+03  0.00000000000E+00 0. -1.
         -1   -1    0    0    0  501 -0.00000000000E+00 -0.00000000000E+00 -0.50438786325E+02  0.50438786325E+02  0.00000000000E+00 0.  1.
         25    2    1    2    0    0  0.15385664336E+02  0.11229569828E+03  0.23944175504E+03  0.29295829396E+03  0.12508063567E+03 0.  0.
          5    1    3    3  502    0  0.48053497798E+02  0.12462179522E+03  0.18977886984E+03  0.23210605837E+03  0.41800000000E+01 0. -1.
         -5    1    3    3    0  502 -0.32667833462E+02 -0.12326096941E+02  0.49662885204E+02  0.60852235585E+02  0.41800000000E+01 0. -1.
        -11    1    1    2    0    0 -0.29981319851E+02 -0.12380199469E+03  0.16798406514E+03  0.21081854655E+03  0.00000000000E+00 0.  1.
         11    1    1    2    0    0  0.14595655515E+02  0.11506296406E+02  0.35892475931E+02  0.40419028258E+02  0.00000000000E+00 0. -1.
</event>
<event>
 7    1  0.2688177E-009  0.1233950E+03  0.7561462E-02  0.1237599E+00
         -1   -1    0    0    0  501 -0.00000000000E+00  0.00000000000E+00  0.10005751516E+03  0.10005751516E+03  0.00000000000E+00 0.  1.
          1   -1    0    0  501    0  0.00000000000E+00 -0.00000000000E+00 -0.15830875134E+03  0.15830875134E+03  0.00000000000E+00 0. -1.
         25    2    1    2    0    0  0.24670076546E+02  0.57293579302E+02 -0.21339400455E+02  0.14139865275E+03  0.12508813726E+03 0.  0.
          5    1    3    3  502    0 -0.39450964142E+02  0.61584642925E+02  0.91323253799E+00  0.73262222254E+02  0.41800000000E+01 0. -1.
         -5    1    3    3    0  502  0.64121040688E+02 -0.42910636230E+01 -0.22252632993E+02  0.68136430498E+02  0.41800000000E+01 0. -1.
        -11    1    1    2    0    0 -0.27705530093E+02  0.18477112939E+02 -0.21344101095E+02  0.39554655249E+02  0.00000000000E+00 0.  1.
         11    1    1    2    0    0  0.30354535465E+01 -0.75770692241E+02 -0.15567734630E+02  0.77412958492E+02  0.00000000000E+00 0. -1.
</event>
<event>
 7    1  0.2688177E-009  0.1194515E+03  0.7561462E-02  0.1244005E+00
          4   -1    0    0  501    0  0.00000000000E+00  0.00000000000E+00  0.20296530747E+04  0.20296530747E+04  0.00000000000E+00 0. -1.
         -4   -1    0    0    0  501 -0.00000000000E+00 -0.00000000000E+00 -0.11033738566E+02  0.11033738566E+02  0.00000000000E+00 0.  1.
         25    2    1    2    0    0 -0.23650584474E+02 -0.62671192746E+02  0.16246986551E+04  0.16308835688E+04  0.12509383071E+03 0.  0.
          5    1    3    3  502    0  0.75299941656E+01  0.28475160435E+02  0.80234351667E+03  0.80289484163E+03  0.41800000000E+01 0.  1.
         -5    1    3    3    0  502 -0.31180578639E+02 -0.91146353181E+02  0.82235513840E+03  0.82798872712E+03  0.41800000000E+01 0.  1.
        -11    1    1    2    0    0  0.58665817478E+02  0.40474253195E+02  0.23562478762E+03  0.24616840547E+03  0.00000000000E+00 0.  1.
         11    1    1    2    0    0 -0.35015233004E+02  0.22196939551E+02  0.15829589343E+03  0.16363483903E+03  0.00000000000E+00 0. -1.
</event>
<event>
 7    1  0.2688177E-009  0.6520178E+02  0.7561462E-02  0.1377214E+00
         -1   -1    0    0    0  501 -0.00000000000E+00  0.00000000000E+00  0.10691099318E+03  0.10691099318E+03  0.00000000000E+00 0.  1.
          1   -1    0    0  501    0  0.00000000000E+00 -0.00000000000E+00 -0.17183073697E+03  0.17183073697E+03  0.00000000000E+00 0. -1.
         25    2    1    2    0    0  0.75954585933E+01 -0.38208201244E+01  0.37865426593E+02  0.13097508903E+03  0.12509354003E+03 0.  0.
          5    1    3    3  502    0 -0.28042623524E+02  0.25564593315E+02  0.66348630370E+02  0.76547699622E+02  0.41800000000E+01 0.  1.
         -5    1    3    3    0  502  0.35638082117E+02 -0.29385413439E+02 -0.28483203776E+02  0.54427389404E+02  0.41800000000E+01 0.  1.
        -11    1    1    2    0    0  0.96019712187E+01  0.20032008366E+02  0.15536110546E+02  0.27108115784E+02  0.00000000000E+00 0.  1.
         11    1    1    2    0    0 -0.17197429812E+02 -0.16211188241E+02 -0.11832128093E+03  0.12065852534E+03  0.00000000000E+00 0. -1.
</event>
<event>
 7    1  0.2688177E-009  0.1608616E+03  0.7561462E-02  0.1187727E+00
         -1   -1    0    0    0  501 -0.00000000000E+00  0.00000000000E+00  0.44364985829E+03  0.44364985829E+03  0.00000000000E+00 0.  1.
          1   -1    0    0  501    0  0.00000000000E+00 -0.00000000000E+00 -0.64365496440E+02  0.64365496440E+02  0.00000000000E+00 0. -1.
         25    2    1    2    0    0 -0.60561866803E+02  0.11453287783E+03  0.18640945488E+03  0.25919532833E+03  0.12509281972E+03 0.  0.
          5    1    3    3  502    0  0.32842224757E+02  0.32963766940E+02  0.92351028561E+02  0.10349592521E+03  0.41800000000E+01 0. -1.
         -5    1    3    3    0  502 -0.93404091559E+02  0.81569110890E+02  0.94058426315E+02  0.15569940312E+03  0.41800000000E+01 0. -1.
        -11    1    1    2    0    0  0.61925694717E+02 -0.34511643855E+02  0.56325922974E+02  0.90545319186E+02  0.00000000000E+00 0. -1.
         11    1    1    2    0    0 -0.13638279144E+01 -0.80021233975E+02  0.13654898400E+03  0.15827470722E+03  0.00000000000E+00 0.  1.
</event>
<event>
 7    1  0.2688177E-009  0.1242256E+03  0.7561462E-02  0.1236284E+00
         -2   -1    0    0    0  501 -0.00000000000E+00  0.00000000000E+00  0.27322777898E+02  0.27322777898E+02  0.00000000000E+00 0.  1.
          2   -1    0    0  501    0  0.00000000000E+00 -0.00000000000E+00 -0.81403145855E+03  0.81403145855E+03  0.00000000000E+00 0. -1.
         25    2    1    2    0    0  0.16559430650E+02 -0.70295832845E+02 -0.22311347345E+03  0.26578654708E+03  0.12508855948E+03 0.  0.
          5    1    3    3  502    0 -0.30798551271E+02 -0.78655853976E+02 -0.86850898845E+02  0.12122642103E+03  0.41800000000E+01 0.  1.
         -5    1    3    3    0  502  0.47357981921E+02  0.83600211313E+01 -0.13626257461E+03  0.14456012605E+03  0.41800000000E+01 0.  1.
        -11    1    1    2    0    0 -0.37344795227E+02  0.83160791778E+02 -0.47463202318E+03  0.48330726091E+03  0.00000000000E+00 0.  1.
         11    1    1    2    0    0  0.20785364576E+02 -0.12864958933E+02 -0.88963184017E+02  0.92260428458E+02  0.00000000000E+00 0. -1.
</event>
<event>
 7    1  0.2688177E-009  0.2036006E+03  0.7561462E-02  0.1146736E+00
          1   -1    0    0  501    0  0.00000000000E+00  0.00000000000E+00  0.80722721494E+03  0.80722721494E+03  0.00000000000E+00 0. -1.
         -1   -1    0    0    0  501 -0.00000000000E+00 -0.00000000000E+00 -0.85508527505E+02  0.85508527505E+02  0.00000000000E+00 0.  1.
         25    2    1    2    0    0  0.18486829785E+03  0.38972968179E+02  0.62106981159E+03  0.66111300023E+03  0.12509000122E+03 0.  0.
          5    1    3    3  502    0  0.44175019390E+02 -0.36313073526E+02  0.26137289511E+03  0.26758799365E+03  0.41800000000E+01 0. -1.
         -5    1    3    3    0  502  0.14069327846E+03  0.75286041705E+02  0.35969691648E+03  0.39352500658E+03  0.41800000000E+01 0. -1.
        -11    1    1    2    0    0 -0.13529352025E+02 -0.91279189952E+01 -0.15481992349E+02  0.22495651991E+02  0.00000000000E+00 0.  1.
         11    1    1    2    0    0 -0.17133894583E+03 -0.29845049184E+02  0.11613086819E+03  0.20912709022E+03  0.00000000000E+00 0. -1.
</event>
<event>
 7    1  0.2688177E-009  0.7280221E+02  0.7561462E-02  0.1350815E+00
          1   -1    0    0  501    0  0.00000000000E+00  0.00000000000E+00  0.20188236130E+03  0.20188236130E+03  0.00000000000E+00 0. -1.
         -1   -1    0    0    0  501 -0.00000000000E+00 -0.00000000000E+00 -0.59366023325E+02  0.59366023325E+02  0.00000000000E+00 0.  1.
         25    2    1    2    0    0 -0.36444011936E+01  0.12293768218E+02  0.69655565579E+02  0.14375099719E+03  0.12509209799E+03 0.  0.
          5    1    3    3  502    0 -0.18875651384E+02  0.59038239480E+02  0.71064902121E+02  0.94390130043E+02  0.41800000000E+01 0. -1.
         -5    1    3    3    0  502  0.15231250191E+02 -0.46744471262E+02 -0.14093365424E+01  0.49360867146E+02  0.41800000000E+01 0. -1.
        -11    1    1    2    0    0 -0.59282654659E+01 -0.20618914273E+02  0.92037035051E+02  0.94504496074E+02  0.00000000000E+00 0. -1.
         11    1    1    2    0    0  0.95726666595E+01  0.83251460542E+01 -0.19176262655E+02  0.22992891362E+02  0.00000000000E+00 0.  1.
</event>
<event>
 7    1  0.2688177E-009  0.1152478E+03  0.7561462E-02  0.1251149E+00
          1   -1    0    0  501    0  0.00000000000E+00  0.00000000000E+00  0.78897653794E+03  0.78897653794E+03  0.00000000000E+00 0. -1.
         -1   -1    0    0    0  501 -0.00000000000E+00 -0.00000000000E+00 -0.23491377799E+02  0.23491377799E+02  0.00000000000E+00 0.  1.
         25    2    1    2    0    0 -0.74786987626E+02  0.22211186619E+02  0.49132093787E+03  0.51296229357E+03  0.12509044848E+03 0.  0.
          5    1    3    3  502    0 -0.63378633617E+02  0.49234322946E+02  0.46908084739E+03  0.47591510119E+03  0.41800000000E+01 0.  1.
         -5    1    3    3    0  502 -0.11408354008E+02 -0.27023136327E+02  0.22240090478E+02  0.37047192371E+02  0.41800000000E+01 0.  1.
        -11    1    1    2    0    0  0.46913100744E+02  0.33879844783E+02  0.13672816530E+03  0.14846977500E+03  0.00000000000E+00 0. -1.
         11    1    1    2    0    0  0.27873886882E+02 -0.56091031402E+02  0.13743605698E+03  0.15103584717E+03  0.00000000000E+00 0.  1.
</event>
<event>
 7    1  0.2688177E-009  0.8597467E+02  0.7561462E-02  0.1312903E+00
          1   -1    0    0  501    0  0.00000000000E+00  0.00000000000E+00  0.15904981367E+03  0.15904981367E+03  0.00000000000E+00 0. -1.
         -1   -1    0    0    0  501 -0.00000000000E+00 -0.00000000000E+00 -0.76965154744E+02  0.76965154744E+02  0.00000000000E+00 0.  1.
         25    2    1    2    0    0 -0.21798913739E+02  0.96512075685E+01  0.27261874927E+02  0.13021874723E+03  0.12508146889E+03 0.  0.
          5    1    3    3  502    0  0.20444208951E+02 -0.35644276886E+02 -0.25676584875E+02  0.48633728679E+02  0.41800000000E+01 0. -1.
         -5    1    3    3    0  502 -0.42243122690E+02  0.45295484454E+02  0.52938459802E+02  0.81585018556E+02  0.41800000000E+01 0. -1.
        -11    1    1    2    0    0 -0.20057049709E+02  0.99047821652E+01  0.55237693728E+02  0.59595241095E+02  0.00000000000E+00 0. -1.
         11    1    1    2    0    0  0.41855963448E+02 -0.19555989734E+02 -0.41490972998E+00  0.46200980084E+02  0.00000000000E+00 0.  1.
</event>
<event>
 7    1  0.2688177E-009  0.9467641E+02  0.7561462E-02  0.1291907E+00
         -1   -1    0    0    0  501 -0.00000000000E+00  0.00000000000E+00  0.91144830435E+02  0.91144830435E+02  0.00000000000E+00 0.  1.
          1   -1    0    0  501    0  0.00000000000E+00 -0.00000000000E+00 -0.31498880667E+03  0.31498880667E+03  0.00000000000E+00 0. -1.
         25    2    1    2    0    0  0.77848576307E+02  0.11319649307E+02 -0.24551073420E+03  0.28655136292E+03  0.12509047801E+03 0.  0.
          5    1    3    3  502    0  0.65561823149E+02  0.11841926819E+02 -0.34501235904E+02  0.75142475101E+02  0.41800000000E+01 0. -1.
         -5    1    3    3    0  502  0.12286753159E+02 -0.52227751196E+00 -0.21100949830E+03  0.21140888782E+03  0.41800000000E+01 0. -1.
        -11    1    1    2    0    0 -0.86633970054E+02 -0.27757418044E+02 -0.39449375283E-01  0.90972086818E+02  0.00000000000E+00 0. -1.
         11    1    1    2    0    0  0.87853937463E+01  0.16437768737E+02  0.21706207339E+02  0.28610187370E+02  0.00000000000E+00 0.  1.
</event>
<event>
 7    1  0.2688177E-009  0.1051080E+03  0.7561462E-02  0.1269907E+00
         -2   -1    0    0    0  501 -0.00000000000E+00  0.00000000000E+00  0.16309300879E+02  0.16309300879E+02  0.00000000000E+00 0. -1.
          2   -1    0    0  501    0  0.00000000000E+00 -0.00000000000E+00 -0.71948544770E+03  0.71948544770E+03  0.00000000000E+00 0.  1.
         25    2    1    2    0    0  0.13760456536E+02  0.26944745676E+00 -0.41441254270E+03  0.43309915007E+03  0.12509074897E+03 0.  0.
          5    1    3    3  502    0  0.42752029149E+02  0.49145797424E+02 -0.16921409785E+03  0.18136683465E+03  0.41800000000E+01 0. -1.
         -5    1    3    3    0  502 -0.28991572614E+02 -0.48876349967E+02 -0.24519844485E+03  0.25173231542E+03  0.41800000000E+01 0. -1.
        -11    1    1    2    0    0 -0.48373328044E+02 -0.14557046389E+02 -0.20152602881E+03  0.20776098468E+03  0.00000000000E+00 0.  1.
         11    1    1    2    0    0  0.34612871508E+02  0.14287598933E+02 -0.87237575308E+02  0.94934613829E+02  0.00000000000E+00 0. -1.
</event>
<event>
 7    1  0.2688177E-009  0.1062891E+03  0.7561462E-02  0.1267600E+00
         -2   -1    0    0    0  501 -0.00000000000E+00  0.00000000000E+00  0.11851435764E+02  0.11851435764E+02  0.00000000000E+00 0.  1.
          2   -1    0    0  501    0  0.00000000000E+00 -0.00000000000E+00 -0.24103936872E+04  0.24103936872E+04  0.00000000000E+00 0. -1.
         25    2    1    2    0    0  0.34619725865E+02 -0.73853322093E+02 -0.19928598505E+04  0.19984473153E+04  0.12509376294E+03 0.  0.
          5    1    3    3  502    0  0.43310870689E+02 -0.34441082016E+02 -0.18216556828E+04  0.18225007321E+04  0.41800000000E+01 0.  1.
         -5    1    3    3    0  502 -0.86911448236E+01 -0.39412240077E+02 -0.17120416773E+03  0.17594658313E+03  0.41800000000E+01 0.  1.
        -11    1    1    2    0    0 -0.28057017552E+02  0.92542439391E+02 -0.37507289288E+03  0.38733832020E+03  0.00000000000E+00 0. -1.
         11    1    1    2    0    0 -0.65627083134E+01 -0.18689117298E+02 -0.30609508065E+02  0.36459487514E+02  0.00000000000E+00 0.  1.
</event>
<event>
 7    1  0.2688177E-009  0.1165538E+03  0.7561462E-02  0.1248893E+00
         -2   -1    0    0    0  501 -0.00000000000E+00  0.00000000000E+00  0.28885285318E+03  0.28885285318E+03  0.00000000000E+00 0. -1.
          2   -1    0    0  501    0  0.00000000000E+00 -0.00000000000E+00 -0.73097865729E+02  0.73097865729E+02  0.00000000000E+00 0.  1.
         25    2    1    2    0    0 -0.57381666807E+02 -0.65212910170E+02  0.18219632097E+03  0.23747891054E+03  0.12512135803E+03 0.  0.
          5    1    3    3  502    0  0.15551419447E+02 -0.60214625780E+02  0.31285431185E+02  0.69741654763E+02  0.41800000000E+01 0. -1.
         -5    1    3    3    0  502 -0.72933086254E+02 -0.49982843905E+01  0.15091088979E+03  0.16773725577E+03  0.41800000000E+01 0. -1.
        -11    1    1    2    0    0  0.31250787079E+02  0.46517351552E+01 -0.21779341320E+02  0.38374340924E+02  0.00000000000E+00 0.  1.
         11    1    1    2    0    0  0.26130879727E+02  0.60561175015E+02  0.55338007801E+02  0.86097467453E+02  0.00000000000E+00 0. -1.
</event>
<event>
 7    1  0.2688177E-009  0.3589818E+03  0.7561462E-02  0.1058988E+00
         -1   -1    0    0    0  501 -0.00000000000E+00  0.00000000000E+00  0.12933578188E+03  0.12933578188E+03  0.00000000000E+00 0.  1.
          1   -1    0    0  501    0  0.00000000000E+00 -0.00000000000E+00 -0.12176659160E+04  0.12176659160E+04  0.00000000000E+00 0. -1.
         25    2    1    2    0    0  0.29941021583E+03  0.18657768629E+03 -0.30453057141E+03  0.48253914804E+03  0.12508976819E+03 0.  0.
          5    1    3    3  502    0  0.18523228166E+03  0.75197627320E+02 -0.23480356408E+03  0.30840860466E+03  0.41800000000E+01 0. -1.
         -5    1    3    3    0  502  0.11417793417E+03  0.11138005897E+03 -0.69727007332E+02  0.17413054338E+03  0.41800000000E+01 0. -1.
        -11    1    1    2    0    0 -0.19856063280E+03 -0.15763265544E+03 -0.47652832962E+03  0.53977182947E+03  0.00000000000E+00 0. -1.
         11    1    1    2    0    0 -0.10084958303E+03 -0.28945030853E+02 -0.30727123307E+03  0.32469072035E+03  0.00000000000E+00 0.  1.
</event>
<event>
 7    1  0.2688177E-009  0.1109832E+03  0.7561462E-02  0.1258760E+00
         -2   -1    0    0    0  501 -0.00000000000E+00  0.00000000000E+00  0.97571616648E+02  0.97571616648E+02  0.00000000000E+00 0. -1.
          2   -1    0    0  501    0  0.00000000000E+00 -0.00000000000E+00 -0.13339682605E+03  0.13339682605E+03  0.00000000000E+00 0.  1.
         25    2    1    2    0    0 -0.34429375176E+02  0.18358028631E+02 -0.15715917353E+02  0.13197175737E+03  0.12508859099E+03 0.  0.
          5    1    3    3  502    0 -0.74262153354E+02  0.35610062396E+02  0.70725931637E+01  0.82767372428E+02  0.41800000000E+01 0. -1.
         -5    1    3    3    0  502  0.39832778178E+02 -0.17252033765E+02 -0.22788510517E+02  0.49204384947E+02  0.41800000000E+01 0. -1.
        -11    1    1    2    0    0 -0.17627588255E+02 -0.36687719513E+02 -0.14172334061E+01  0.40727499080E+02  0.00000000000E+00 0. -1.
         11    1    1    2    0    0  0.52056963430E+02  0.18329690882E+02 -0.18692058646E+02  0.58269186247E+02  0.00000000000E+00 0.  1.
</event>
<event>
 7    1  0.2688177E-009  0.6902203E+02  0.7561462E-02  0.1363451E+00
         -2   -1    0    0    0  501 -0.00000000000E+00  0.00000000000E+00  0.10447641100E+02  0.10447641100E+02  0.00000000000E+00 0.  1.
          2   -1    0    0  501    0  0.00000000000E+00 -0.00000000000E+00 -0.14692689215E+04  0.14692689215E+04  0.00000000000E+00 0. -1.
         25    2    1    2    0    0  0.32112777789E+01  0.16293143857E+01 -0.11774619519E+04  0.11840934612E+04  0.12509080558E+03 0.  0.
          5    1    3    3  502    0 -0.12286079974E+02  0.23340600855E+02 -0.53384494319E+02  0.59691775339E+02  0.41800000000E+01 0.  1.
         -5    1    3    3    0  502  0.15497357753E+02 -0.21711286469E+02 -0.11240774576E+04  0.11244016858E+04  0.41800000000E+01 0.  1.
        -11    1    1    2    0    0  0.35741522212E+02  0.18766077973E+02 -0.18990274521E+03  0.19414601394E+03  0.00000000000E+00 0. -1.
         11    1    1    2    0    0 -0.38952799991E+02 -0.20395392359E+02 -0.91456583257E+02  0.10147708745E+03  0.00000000000E+00 0.  1.
</event>
<event>
 7    1  0.2688177E-009  0.1097511E+03  0.7561462E-02  0.1261032E+00
          1   -1    0    0  501    0  0.00000000000E+00  0.00000000000E+00  0.55155342898E+02  0.55155342898E+02  0.00000000000E+00 0. -1.
         -1   -1    0    0    0  501 -0.00000000000E+00 -0.00000000000E+00 -0.30665670438E+03  0.30665670438E+03  0.00000000000E+00 0.  1.
         25    2    1    2    0    0  0.43352228200E+02 -0.11014177811E+02 -0.21737868104E+03  0.25475716905E+03  0.12508795469E+03 0.  0.
          5    1    3    3  502    0  0.82443422407E+02  0.59788899478E+01 -0.17916518449E+03  0.19735830552E+03  0.41800000000E+01 0.  1.
         -5    1    3    3    0  502 -0.39091194207E+02 -0.16993067759E+02 -0.38213496547E+02  0.57398863532E+02  0.41800000000E+01 0.  1.
        -11    1    1    2    0    0 -0.89983421840E+01  0.44817044212E+02 -0.36947751171E+02  0.58776474295E+02  0.00000000000E+00 0.  1.
         11    1    1    2    0    0 -0.34353886016E+02 -0.33802866400E+02  0.28250707313E+01  0.48278403929E+02  0.00000000000E+00 0. -1.
</event>
<event>
 7    1  0.2688177E-009  0.3006683E+03  0.7561462E-02  0.1084907E+00
         -2   -1    0    0    0  501 -0.00000000000E+00  0.00000000000E+00  0.40923529602E+03  0.40923529602E+03  0.00000000000E+00 0.  1.
          2   -1    0    0  501    0  0.00000000000E+00 -0.00000000000E+00 -0.25958221896E+03  0.25958221896E+03  0.00000000000E+00 0. -1.
         25    2    1    2    0    0 -0.18829668704E+03 -0.22443649963E+03 -0.20227378001E+02  0.31919237164E+03  0.12508892267E+03 0.  0.
          5    1    3    3  502    0 -0.74900627000E+01 -0.37912916248E+02  0.36436340269E+02  0.53278227728E+02  0.41800000000E+01 0. -1.
         -5    1    3    3    0  502 -0.18080662434E+03 -0.18652358338E+03 -0.56663718270E+02  0.26591414391E+03  0.41800000000E+01 0. -1.
        -11    1    1    2    0    0  0.15344994208E+02  0.67155037811E+02  0.19247422546E+02  0.71524340090E+02  0.00000000000E+00 0. -1.
         11    1    1    2    0    0  0.17295169283E+03  0.15728146182E+03  0.15063303251E+03  0.27810080325E+03  0.00000000000E+00 0.  1.
</event>
<event>
 7    1  0.2688177E-009  0.7820345E+02  0.7561462E-02  0.1334228E+00
         -1   -1    0    0    0  501 -0.00000000000E+00  0.00000000000E+00  0.53327460918E+02  0.53327460918E+02  0.00000000000E+00 0.  1.
          1   -1    0    0  501    0  0.00000000000E+00 -0.00000000000E+00 -0.69754360228E+03  0.69754360228E+03  0.00000000000E+00 0. -1.
         25    2    1    2    0    0 -0.13208540297E+02  0.52004360368E+02 -0.63014800040E+03  0.64468047473E+03  0.12508993987E+03 0.  0.
          5    1    3    3  502    0 -0.16191412806E+02  0.64712154999E+02 -0.14862249943E+03  0.16295994781E+03  0.41800000000E+01 0. -1.
         -5    1    3    3    0  502  0.29828725088E+01 -0.12707794631E+02 -0.48152550097E+03  0.48172052692E+03  0.41800000000E+01 0. -1.
        -11    1    1    2    0    0 -0.15221207236E+02 -0.43654995779E+02  0.28510558524E+02  0.54316625020E+02  0.00000000000E+00 0.  1.
         11    1    1    2    0    0  0.28429747533E+02 -0.83493645888E+01 -0.42578699483E+02  0.51873963445E+02  0.00000000000E+00 0. -1.
</event>
<event>
 7    1  0.2688177E-009  0.7730125E+02  0.7561462E-02  0.1336889E+00
          2   -1    0    0  501    0  0.00000000000E+00  0.00000000000E+00  0.37157402276E+03  0.37157402276E+03  0.00000000000E+00 0. -1.
         -2   -1    0    0    0  501 -0.00000000000E+00 -0.00000000000E+00 -0.33367165442E+02  0.33367165442E+02  0.00000000000E+00 0.  1.
         25    2    1    2    0    0  0.13299768962E+02  0.17611332050E+02  0.16370242172E+03  0.20720078501E+03  0.12508652828E+03 0.  0.
          5    1    3    3  502    0 -0.21236064242E+02 -0.24145002721E+02  0.14672024840E+03  0.15026062449E+03  0.41800000000E+01 0.  1.
         -5    1    3    3    0  502  0.34535833204E+02  0.41756334771E+02  0.16982173320E+02  0.56940160513E+02  0.41800000000E+01 0.  1.
        -11    1    1    2    0    0 -0.21864886187E+02  0.19770297837E+02  0.14851776514E+03  0.15141487538E+03  0.00000000000E+00 0. -1.
         11    1    1    2    0    0  0.85651172252E+01 -0.37381629887E+02  0.25986670453E+02  0.46325527815E+02  0.00000000000E+00 0.  1.
</event>
<event>
 7    1  0.2688177E-009  0.1169354E+03  0.7561462E-02  0.1248240E+00
         -1   -1    0    0    0  501 -0.00000000000E+00  0.00000000000E+00  0.43558838078E+02  0.43558838078E+02  0.00000000000E+00 0.  1.
          1   -1    0    0  501    0  0.00000000000E+00 -0.00000000000E+00 -0.48694877618E+03  0.48694877618E+03  0.00000000000E+00 0. -1.
         25    2    1    2    0    0 -0.18357351630E+02  0.61752084845E+02 -0.37447196246E+03  0.40003491177E+03  0.12509343557E+03 0.  0.
          5    1    3    3  502    0 -0.61931831336E+02  0.27100866247E+02 -0.29649151405E+03  0.30412941158E+03  0.41800000000E+01 0.  1.
         -5    1    3    3    0  502  0.43574479706E+02  0.34651218597E+02 -0.77980448410E+02  0.95905500187E+02  0.41800000000E+01 0.  1.
        -11    1    1    2    0    0  0.22790203893E+02  0.18856735094E+02 -0.23970274740E+02  0.38072876474E+02  0.00000000000E+00 0.  1.
         11    1    1    2    0    0 -0.44328522629E+01 -0.80608819939E+02 -0.44947700895E+02  0.92399826011E+02  0.00000000000E+00 0. -1.
</event>
<event>
 7    1  0.2688177E-009  0.9341984E+02  0.7561462E-02  0.1294775E+00
         -1   -1    0    0    0  501 -0.00000000000E+00  0.00000000000E+00  0.50775353441E+02  0.50775353441E+02  0.00000000000E+00 0.  1.
          1   -1    0    0  501    0  0.00000000000E+00 -0.00000000000E+00 -0.29070572145E+03  0.29070572145E+03  0.00000000000E+00 0. -1.
         25    2    1    2    0    0  0.31378746704E+02  0.52258500142E+02 -0.12051606526E+03  0.18409272617E+03  0.12510169168E+03 0.  0.
          5    1    3    3  502    0 -0.40287139974E+02  0.30675565346E+02 -0.12006706622E+02  0.52208020078E+02  0.41800000000E+01 0. -1.
         -5    1    3    3    0  502  0.71665886678E+02  0.21582934796E+02 -0.10850935864E+03  0.13188470609E+03  0.41800000000E+01 0. -1.
        -11    1    1    2    0    0 -0.25836603344E+02 -0.40036657968E+02 -0.13116452147E+03  0.13955140897E+03  0.00000000000E+00 0. -1.
         11    1    1    2    0    0 -0.55421433591E+01 -0.12221842174E+02  0.11750218732E+02  0.17836939743E+02  0.00000000000E+00 0.  1.
</event>
<event>
 7    1  0.2688177E-009  0.1118176E+03  0.7561462E-02  0.1257240E+00
          1   -1    0    0  501    0  0.00000000000E+00  0.00000000000E+00  0.58802525411E+02  0.58802525411E+02  0.00000000000E+00 0. -1.
         -1   -1    0    0    0  501 -0.00000000000E+00 -0.00000000000E+00 -0.27709932320E+03  0.27709932320E+03  0.00000000000E+00 0.  1.
         25    2    1    2    0    0  0.53059493750E+02  0.37006032530E+02 -0.10008664334E+03  0.17276968922E+03  0.12508906035E+03 0.  0.
          5    1    3    3  502    0 -0.40221797107E+02  0.10961533952E+01 -0.34281409872E+02  0.53025295639E+02  0.41800000000E+01 0.  1.
         -5    1    3    3    0  502  0.93281290857E+02  0.35909879135E+02 -0.65805233469E+02  0.11974439359E+03  0.41800000000E+01 0.  1.
        -11    1    1    2    0    0 -0.30276849470E+02 -0.48843012783E+02 -0.18804251942E+02  0.60464265501E+02  0.00000000000E+00 0. -1.
         11    1    1    2    0    0 -0.22782644281E+02  0.11836980252E+02 -0.99405902511E+02  0.10266789389E+03  0.00000000000E+00 0.  1.
</event>
<event>
 7    1  0.2688177E-009  0.9063863E+02  0.7561462E-02  0.1301312E+00
         -2   -1    0    0    0  501 -0.00000000000E+00  0.00000000000E+00  0.75401168462E+02  0.75401168462E+02  0.00000000000E+00 0.  1.
          2   -1    0    0  501    0  0.00000000000E+00 -0.00000000000E+00 -0.23339856923E+03  0.23339856923E+03  0.00000000000E+00 0. -1.
         25    2    1    2    0    0 -0.75257267774E+02 -0.13998428790E+02 -0.88572784644E+02  0.17132558424E+03  0.12509078813E+03 0.  0.
          5    1    3    3  502    0 -0.45480340568E+02  0.16934974629E+02 -0.11207264542E+03  0.12220067510E+03  0.41800000000E+01 0. -1.
         -5    1    3    3    0  502 -0.29776927207E+02 -0.30933403420E+02  0.23499860779E+02  0.49124909136E+02  0.41800000000E+01 0. -1.
        -11    1    1    2    0    0  0.56667291604E+02  0.30689134611E+02 -0.86019230149E+02  0.10748168624E+03  0.00000000000E+00 0. -1.
         11    1    1    2    0    0  0.18589976170E+02 -0.16690705820E+02  0.16594614027E+02  0.29992467213E+02  0.00000000000E+00 0.  1.
</event>
<event>
 7    1  0.2688177E-009  0.1182509E+03  0.7561462E-02  0.1246011E+00
          1   -1    0    0  501    0  0.00000000000E+00  0.00000000000E+00  0.33291497625E+03  0.33291497625E+03  0.00000000000E+00 0. -1.
         -1   -1    0    0    0  501 -0.00000000000E+00 -0.00000000000E+00 -0.51585156484E+02  0.51585156484E+02  0.00000000000E+00 0.  1.
         25    2    1    2    0    0 -0.28247589227E+02  0.44759550314E+02  0.77793656150E+02  0.15652561847E+03  0.12508825947E+03 0.  0.
          5    1    3    3  502    0  0.29966215713E+02 -0.27597628955E+02  0.36297564257E+02  0.54722835993E+02  0.41800000000E+01 0. -1.
         -5    1    3    3    0  502 -0.58213804940E+02  0.72357179270E+02  0.41496091893E+02  0.10180278248E+03  0.41800000000E+01 0. -1.
        -11    1    1    2    0    0 -0.25764412912E+02  0.81063753237E+01  0.49191233667E+02  0.56118586612E+02  0.00000000000E+00 0. -1.
         11    1    1    2    0    0  0.54012002139E+02 -0.52865925638E+02  0.15434492994E+03  0.17185592765E+03  0.00000000000E+00 0.  1.
</event>
<event>
 7    1  0.3210303E-009  0.1496076E+03  0.7561462E-02  0.1200956E+00
          1   -1    0    0  501    0  0.00000000000E+00  0.00000000000E+00  0.26432984931E+03  0.26432984931E+03  0.00000000000E+00 0. -1.
         -1   -1    0    0    0  501 -0.00000000000E+00 -0.00000000000E+00 -0.10840243496E+03  0.10840243496E+03  0.00000000000E+00 0.  1.
         25    2    1    2    0    0 -0.11012971221E+03 -0.27391219788E+02  0.14143919447E+02  0.16948793206E+03  0.12508907316E+03 0.  0.
          5    1    3    3  502    0 -0.10279495086E+03 -0.62081182852E+02 -0.17935051172E+02  0.12149079655E+03  0.41800000000E+01 0.  1.
         -5    1    3    3    0  502 -0.73347613584E+01  0.34689963064E+02  0.32078970619E+02  0.47997135514E+02  0.41800000000E+01 0.  1.
        -11    1    1    2    0    0  0.64659946410E+02  0.59355499795E+02  0.10374546319E+03  0.13589372745E+03  0.00000000000E+00 0. -1.
         11    1    1    2    0    0  0.45469765805E+02 -0.31964280007E+02  0.38038031712E+02  0.67350624758E+02  0.00000000000E+00 0.  1.
</event>
<event>
 7    1  0.2688177E-009  0.7881842E+02  0.7561462E-02  0.1332438E+00
         -1   -1    0    0    0  501 -0.00000000000E+00  0.00000000000E+00  0.29155033179E+03  0.29155033179E+03  0.00000000000E+00 0.  1.
          1   -1    0    0  501    0  0.00000000000E+00 -0.00000000000E+00 -0.51664886262E+02  0.51664886262E+02  0.00000000000E+00 0. -1.
         25    2    1    2    0    0 -0.44830786310E+02 -0.12852198373E+02  0.18313022198E+03  0.22662854246E+03  0.12509532226E+03 0.  0.
          5    1    3    3  502    0  0.13035735946E+01 -0.26737840128E+02 -0.89657180710E+01  0.28538883989E+02  0.41800000000E+01 0. -1.
         -5    1    3    3    0  502 -0.46134359904E+02  0.13885641755E+02  0.19209594005E+03  0.19808965847E+03  0.41800000000E+01 0. -1.
        -11    1    1    2    0    0 -0.64357351647E+01 -0.20190046412E+02 -0.12260604932E+02  0.24482219967E+02  0.00000000000E+00 0. -1.
         11    1    1    2    0    0  0.51266521474E+02  0.33042244785E+02  0.69015828488E+02  0.92104455627E+02  0.00000000000E+00 0.  1.
</event>
<event>
 7    1  0.2688177E-009  0.1220831E+03  0.7561462E-02  0.1239700E+00
          2   -1    0    0  501    0  0.00000000000E+00  0.00000000000E+00  0.32316111932E+03  0.32316111932E+03  0.00000000000E+00 0. -1.
         -2   -1    0    0    0  501 -0.00000000000E+00 -0.00000000000E+00 -0.52485594089E+02  0.52485594089E+02  0.00000000000E+00 0.  1.
         25    2    1    2    0    0  0.32311099227E+02  0.50331307768E+02  0.86891694433E+02  0.16362953412E+03  0.12508880926E+03 0.  0.
          5    1    3    3  502    0  0.15552451720E+02 -0.41846642128E+02  0.26479347284E+02  0.52073490804E+02  0.41800000000E+01 0. -1.
         -5    1    3    3    0  502  0.16758647506E+02  0.92177949896E+02  0.60412347149E+02  0.11155604332E+03  0.41800000000E+01 0. -1.
        -11    1    1    2    0    0  0.14954863690E+02 -0.55979961440E+02  0.94966362218E+02  0.11124753473E+03  0.00000000000E+00 0. -1.
         11    1    1    2    0    0 -0.47265962917E+02  0.56486536727E+01  0.88817468584E+02  0.10076964456E+03  0.00000000000E+00 0.  1.
</event>
<event>
 7    1  0.2688177E-009  0.9295267E+02  0.7561462E-02  0.1295855E+00
         -2   -1    0    0    0  501 -0.00000000000E+00  0.00000000000E+00  0.76125204572E+02  0.76125204572E+02  0.00000000000E+00 0.  1.
          2   -1    0    0  501    0  0.00000000000E+00 -0.00000000000E+00 -0.22508073305E+03  0.22508073305E+03  0.00000000000E+00 0. -1.
         25    2    1    2    0    0  0.25603764862E+02 -0.63478740325E+02 -0.10444184498E+03  0.17674513300E+03  0.12508253198E+03 0.  0.
          5    1    3    3  502    0  0.47623231116E+02 -0.75054229720E+02 -0.11824665405E+03  0.14798936832E+03  0.41800000000E+01 0. -1.
         -5    1    3    3    0  502 -0.22019466254E+02  0.11575489395E+02  0.13804809069E+02  0.28755764679E+02  0.41800000000E+01 0. -1.
        -11    1    1    2    0    0 -0.25432153329E+02  0.35263115581E+02  0.24497607413E+02  0.49904053066E+02  0.00000000000E+00 0.  1.
         11    1    1    2    0    0 -0.17161153282E+00  0.28215624743E+02 -0.69011290905E+02  0.74556751556E+02  0.00000000000E+00 0. -1.
</event>
<event>
 7    1  0.2688177E-009  0.1326494E+03  0.7561462E-02  0.1223577E+00
         -4   -1    0    0    0  501 -0.00000000000E+00  0.00000000000E+00  0.29641770599E+03  0.29641770599E+03  0.00000000000E+00 0.  1.
          4   -1    0    0  501    0  0.00000000000E+00 -0.00000000000E+00 -0.97890228132E+02  0.97890228132E+02  0.00000000000E+00 0. -1.
         25    2    1    2    0    0 -0.17494043571E+02 -0.96440329555E+02  0.29917719509E+01  0.15894780094E+03  0.12509466016E+03 0.  0.
          5    1    3    3  502    0  0.22422947010E+02 -0.10033990404E+03 -0.29629598439E+02  0.10708067239E+03  0.41800000000E+01 0.  1.
         -5    1    3    3    0  502 -0.39916990581E+02  0.38995744855E+01  0.32621370390E+02  0.51867128553E+02  0.41800000000E+01 0.  1.
        -11    1    1    2    0    0 -0.28388022718E+02  0.44365440719E+02  0.43791795166E+02  0.68497397672E+02  0.00000000000E+00 0.  1.
         11    1    1    2    0    0  0.45882066289E+02  0.52074888836E+02  0.15174391074E+03  0.16686273551E+03  0.00000000000E+00 0. -1.
</event>
<event>
 7    1  0.2688177E-009  0.3557060E+03  0.7561462E-02  0.1060297E+00
          2   -1    0    0  501    0  0.00000000000E+00  0.00000000000E+00  0.23053955405E+03  0.23053955405E+03  0.00000000000E+00 0. -1.
         -2   -1    0    0    0  501 -0.00000000000E+00 -0.00000000000E+00 -0.61797244573E+03  0.61797244573E+03  0.00000000000E+00 0.  1.
         25    2    1    2    0    0 -0.18156567344E+03  0.28730547549E+03 -0.59973142183E+02  0.36708991982E+03  0.12509077276E+03 0.  0.
          5    1    3    3  502    0 -0.10636013452E+03  0.63795816814E+02 -0.40010351182E+02  0.13038667516E+03  0.41800000000E+01 0.  1.
         -5    1    3    3    0  502 -0.75205538920E+02  0.22350965868E+03 -0.19962791001E+02  0.23670324466E+03  0.41800000000E+01 0.  1.
        -11    1    1    2    0    0  0.11370819881E+03 -0.97159354927E+02 -0.11804907560E+03  0.19053891722E+03  0.00000000000E+00 0.  1.
         11    1    1    2    0    0  0.67857474630E+02 -0.19014612056E+03 -0.20941067390E+03  0.29088316275E+03  0.00000000000E+00 0. -1.
</event>
<event>
 7    1  0.2688177E-009  0.3042849E+03  0.7561462E-02  0.1083118E+00
         -2   -1    0    0    0  501 -0.00000000000E+00  0.00000000000E+00  0.29820017822E+03  0.29820017822E+03  0.00000000000E+00 0.  1.
          2   -1    0    0  501    0  0.00000000000E+00 -0.00000000000E+00 -0.32676801629E+03  0.32676801629E+03  0.00000000000E+00 0. -1.
         25    2    1    2    0    0 -0.20816657240E+03  0.19739703455E+03 -0.71320296310E+02  0.32098209874E+03  0.12507602461E+03 0.  0.
          5    1    3    3  502    0  0.65052341418E+00 -0.11956171774E+02  0.77625366906E+01  0.14869519161E+02  0.41800000000E+01 0.  1.
         -5    1    3    3    0  502 -0.20881709581E+03  0.20935320633E+03 -0.79082833001E+02  0.30611257958E+03  0.41800000000E+01 0.  1.
        -11    1    1    2    0    0  0.20683118528E+03 -0.15680239733E+03  0.44475963122E+02  0.26333294953E+03  0.00000000000E+00 0. -1.
         11    1    1    2    0    0  0.13353871218E+01 -0.40594637224E+02 -0.17235048791E+01  0.40653146240E+02  0.00000000000E+00 0.  1.
</event>
<event>
 7    1  0.2688177E-009  0.9738092E+02  0.7561462E-02  0.1285902E+00
          4   -1    0    0  501    0  0.00000000000E+00  0.00000000000E+00  0.47924558955E+03  0.47924558955E+03  0.00000000000E+00 0. -1.
         -4   -1    0    0    0  501 -0.00000000000E+00 -0.00000000000E+00 -0.27933325497E+02  0.27933325497E+02  0.00000000000E+00 0.  1.
         25    2    1    2    0    0 -0.22665550833E+02  0.32524159805E+02  0.23661306850E+03  0.27056526120E+03  0.12509303824E+03 0.  0.
          5    1    3    3  502    0 -0.26309135405E+02  0.67602201632E+02  0.72467362249E+02  0.10262172900E+03  0.41800000000E+01 0. -1.
         -5    1    3    3    0  502  0.36435845719E+01 -0.35078041827E+02  0.16414570625E+03  0.16794353220E+03  0.41800000000E+01 0. -1.
        -11    1    1    2    0    0 -0.14940331213E+01 -0.54144812823E+02  0.70999039490E+02  0.89301492144E+02  0.00000000000E+00 0.  1.
         11    1    1    2    0    0  0.24159583954E+02  0.21620653018E+02  0.14370015606E+03  0.14731216171E+03  0.00000000000E+00 0. -1.
</event>
<event>
 7    1  0.2688177E-009  0.1508693E+03  0.7561462E-02  0.1199409E+00
          1   -1    0    0  501    0  0.00000000000E+00  0.00000000000E+00  0.56881173793E+03  0.56881173793E+03  0.00000000000E+00 0. -1.
         -1   -1    0    0    0  501 -0.00000000000E+00 -0.00000000000E+00 -0.49291542653E+02  0.49291542653E+02  0.00000000000E+00 0.  1.
         25    2    1    2    0    0  0.10470941426E+03  0.59777062511E+02  0.34948190526E+03  0.39028408918E+03  0.12508680797E+03 0.  0.
          5    1    3    3  502    0  0.11702865359E+03  0.34679747957E+02  0.33867013495E+03  0.36001850423E+03  0.41800000000E+01 0.  1.
         -5    1    3    3    0  502 -0.12319239324E+02  0.25097314553E+02  0.10811770305E+02  0.30265584951E+02  0.41800000000E+01 0.  1.
        -11    1    1    2    0    0 -0.83739114713E+02 -0.84470414617E+02  0.13914477528E+03  0.18305397774E+03  0.00000000000E+00 0.  1.
         11    1    1    2    0    0 -0.20970299550E+02  0.24693352106E+02  0.30893514738E+02  0.44765213663E+02  0.00000000000E+00 0. -1.
</event>
<event>
 7    1  0.2688177E-009  0.1497993E+03  0.7561462E-02  0.1200720E+00
          1   -1    0    0  501    0  0.00000000000E+00  0.00000000000E+00  0.29083194799E+03  0.29083194799E+03  0.00000000000E+00 0. -1.
         -1   -1    0    0    0  501 -0.00000000000E+00 -0.00000000000E+00 -0.10441912559E+03  0.10441912559E+03  0.00000000000E+00 0.  1.
         25    2    1    2    0    0 -0.11230171041E+02  0.11785531612E+03  0.23212165882E+02  0.17377957192E+03  0.12507814634E+03 0.  0.
          5    1    3    3  502    0  0.49915791059E+02  0.17260640946E+02  0.17687137833E+02  0.55855377249E+02  0.41800000000E+01 0.  1.
         -5    1    3    3    0  502 -0.61145962099E+02  0.10059467517E+03  0.55250280486E+01  0.11792419467E+03  0.41800000000E+01 0.  1.
        -11    1    1    2    0    0  0.26889715259E+02 -0.10550892636E+03  0.77920675848E+02  0.13389108280E+03  0.00000000000E+00 0.  1.
         11    1    1    2    0    0 -0.15659544219E+02 -0.12346389760E+02  0.85279980668E+02  0.87580418861E+02  0.00000000000E+00 0. -1.
</event>
<event>
 7    1  0.2688177E-009  0.9354743E+02  0.7561462E-02  0.1294482E+00
          1   -1    0    0  501    0  0.00000000000E+00  0.00000000000E+00  0.83266665206E+02  0.83266665206E+02  0.00000000000E+00 0. -1.
         -1   -1    0    0    0  501 -0.00000000000E+00 -0.00000000000E+00 -0.24714780545E+03  0.24714780545E+03  0.00000000000E+00 0.  1.
         25    2    1    2    0    0 -0.73887820766E+02  0.10359860705E+02 -0.15068632850E+03  0.20958092252E+03  0.12510418345E+03 0.  0.
          5    1    3    3  502    0 -0.66879773037E+02  0.34856063274E+02 -0.16397991282E+03  0.18054011576E+03  0.41800000000E+01 0. -1.
         -5    1    3    3    0  502 -0.70080477285E+01 -0.24496202569E+02  0.13293584321E+02  0.29040806762E+02  0.41800000000E+01 0. -1.
        -11    1    1    2    0    0  0.61608841303E+02 -0.25127571808E+02 -0.47339362323E+02  0.81658186466E+02  0.00000000000E+00 0.  1.
         11    1    1    2    0    0  0.12278979462E+02  0.14767711103E+02  0.34144550580E+02  0.39175361673E+02  0.00000000000E+00 0. -1.
</event>
<event>
 7    1  0.2688177E-009  0.8540306E+02  0.7561462E-02  0.1314382E+00
         -2   -1    0    0    0  501 -0.00000000000E+00  0.00000000000E+00  0.64218819101E+02  0.64218819101E+02  0.00000000000E+00 0.  1.
          2   -1    0    0  501    0  0.00000000000E+00 -0.00000000000E+00 -0.18397190504E+03  0.18397190504E+03  0.00000000000E+00 0. -1.
         25    2    1    2    0    0  0.12197400284E+02  0.42830500964E+01 -0.68239515134E+02  0.14307691587E+03  0.12508897369E+03 0.  0.
          5    1    3    3  502    0 -0.41481455363E+02 -0.52335693242E+01  0.14026987780E+02  0.44298196048E+02  0.41800000000E+01 0. -1.
         -5    1    3    3    0  502  0.53678855647E+02  0.95166194207E+01 -0.82266502914E+02  0.98778719826E+02  0.41800000000E+01 0. -1.
        -11    1    1    2    0    0  0.16293443997E+02 -0.31020660785E+02  0.60344294490E+01  0.35555197252E+02  0.00000000000E+00 0.  1.
         11    1    1    2    0    0 -0.28490844281E+02  0.26737610689E+02 -0.57548000257E+02  0.69558611018E+02  0.00000000000E+00 0. -1.
</event>
<event>
 7    1  0.2688177E-009  0.1291820E+03  0.7561462E-02  0.1228675E+00
          1   -1    0    0  501    0  0.00000000000E+00  0.00000000000E+00  0.31929386036E+02  0.31929386036E+02  0.00000000000E+00 0. -1.
         -1   -1    0    0    0  501 -0.00000000000E+00 -0.00000000000E+00 -0.64382264198E+03  0.64382264198E+03  0.00000000000E+00 0.  1.
         25    2    1    2    0    0  0.40946489030E+02 -0.57252284991E+02 -0.18777861457E+03  0.23635355886E+03  0.12509099726E+03 0.  0.
          5    1    3    3  502    0  0.15806222297E+02  0.39860170832E+02 -0.59292347615E+02  0.73292051191E+02  0.41800000000E+01 0. -1.
         -5    1    3    3    0  502  0.25140266733E+02 -0.97112455823E+02 -0.12848626695E+03  0.16306150767E+03  0.41800000000E+01 0. -1.
        -11    1    1    2    0    0 -0.63239967431E+02  0.11907073214E+02 -0.23650171190E+03  0.24510024807E+03  0.00000000000E+00 0.  1.
         11    1    1    2    0    0  0.22293478400E+02  0.45345211778E+02 -0.18761292948E+03  0.19429822109E+03  0.00000000000E+00 0. -1.
</event>
<event>
 7    1  0.2688177E-009  0.1713292E+03  0.7561462E-02  0.1176469E+00
          1   -1    0    0  501    0  0.00000000000E+00  0.00000000000E+00  0.14872249618E+04  0.14872249618E+04  0.00000000000E+00 0. -1.
         -1   -1    0    0    0  501 -0.00000000000E+00 -0.00000000000E+00 -0.28778868841E+02  0.28778868841E+02  0.00000000000E+00 0.  1.
         25    2    1    2    0    0 -0.61060871913E+02 -0.12872651651E+03  0.11001591085E+04  0.11163762117E+04  0.12508731332E+03 0.  0.
          5    1    3    3  502    0 -0.48924250134E+02 -0.14015717872E+03  0.10787339589E+04  0.10889086479E+04  0.41800000000E+01 0. -1.
         -5    1    3    3    0  502 -0.12136621779E+02  0.11430662211E+02  0.21425149608E+02  0.27467563826E+02  0.41800000000E+01 0. -1.
        -11    1    1    2    0    0  0.25787607369E+02  0.13808077153E+03  0.28817372423E+03  0.32058601887E+03  0.00000000000E+00 0. -1.
         11    1    1    2    0    0  0.35273264544E+02 -0.93542550130E+01  0.70113260257E+02  0.79041600074E+02  0.00000000000E+00 0.  1.
</event>
<event>
 7    1  0.2861512E-009  0.1853657E+03  0.7561462E-02  0.1162709E+00
          1   -1    0    0  501    0  0.00000000000E+00  0.00000000000E+00  0.40302717187E+03  0.40302717187E+03  0.00000000000E+00 0. -1.
         -1   -1    0    0    0  501 -0.00000000000E+00 -0.00000000000E+00 -0.10743479846E+03  0.10743479846E+03  0.00000000000E+00 0.  1.
         25    2    1    2    0    0  0.58989813353E+01 -0.17005196854E+03  0.92010596503E+02  0.23035955137E+03  0.12508838096E+03 0.  0.
          5    1    3    3  502    0  0.55698041778E+02 -0.81709999553E+02  0.81699597508E+02  0.12833975424E+03  0.41800000000E+01 0. -1.
         -5    1    3    3    0  502 -0.49799060443E+02 -0.88341968989E+02  0.10310998995E+02  0.10201979713E+03  0.41800000000E+01 0. -1.
        -11    1    1    2    0    0  0.31307731389E+00  0.76168567894E+02  0.28473654952E+02  0.81317266179E+02  0.00000000000E+00 0.  1.
         11    1    1    2    0    0 -0.62120586492E+01  0.93883400648E+02  0.17510812196E+03  0.19878515278E+03  0.00000000000E+00 0. -1.
</event>
<event>
 7    1  0.2688177E-009  0.7836045E+02  0.7561462E-02  0.1333770E+00
          2   -1    0    0  501    0  0.00000000000E+00  0.00000000000E+00  0.26950506193E+03  0.26950506193E+03  0.00000000000E+00 0. -1.
         -2   -1    0    0    0  501 -0.00000000000E+00 -0.00000000000E+00 -0.52601558844E+02  0.52601558844E+02  0.00000000000E+00 0.  1.
         25    2    1    2    0    0  0.47211568939E+01 -0.47229493535E+02  0.98799284714E+02  0.16631807844E+03  0.12508992834E+03 0.  0.
          5    1    3    3  502    0 -0.41948241906E+02 -0.41807263211E+02  0.10307959853E+03  0.11895536259E+03  0.41800000000E+01 0. -1.
         -5    1    3    3    0  502  0.46669398800E+02 -0.54222303247E+01 -0.42803138136E+01  0.47362715847E+02  0.41800000000E+01 0. -1.
        -11    1    1    2    0    0 -0.91442510472E+01  0.14425047213E+02 -0.12429483956E+02  0.21123242784E+02  0.00000000000E+00 0.  1.
         11    1    1    2    0    0  0.44230941533E+01  0.32804446323E+02  0.13053370233E+03  0.13466529956E+03  0.00000000000E+00 0. -1.
</event>
<event>
 7    1  0.2688177E-009  0.9985595E+02  0.7561462E-02  0.1280599E+00
          2   -1    0    0  501    0  0.00000000000E+00  0.00000000000E+00  0.39412962987E+02  0.39412962987E+02  0.00000000000E+00 0.  1.
         -2   -1    0    0    0  501 -0.00000000000E+00 -0.00000000000E+00 -0.33365917265E+03  0.33365917265E+03  0.00000000000E+00 0. -1.
         25    2    1    2    0    0 -0.28686514992E+02 -0.48688872276E+01 -0.16069209678E+03  0.20570881105E+03  0.12509013859E+03 0.  0.
          5    1    3    3  502    0 -0.57335171570E+02  0.43169585120E+02 -0.98730851976E+02  0.12213184888E+03  0.41800000000E+01 0.  1.
         -5    1    3    3    0  502  0.28648656578E+02 -0.48038472348E+02 -0.61961244802E+02  0.83576962177E+02  0.41800000000E+01 0.  1.
        -11    1    1    2    0    0 -0.12089293937E+02  0.23861888650E+02 -0.33158206944E+00  0.26751648632E+02  0.00000000000E+00 0.  1.
         11    1    1    2    0    0  0.40775808929E+02 -0.18993001423E+02 -0.13322253082E+03  0.14061167595E+03  0.00000000000E+00 0. -1.
</event>
<event>
 7    1  0.2688177E-009  0.8368696E+02  0.7561462E-02  0.1318902E+00
         -1   -1    0    0    0  501 -0.00000000000E+00  0.00000000000E+00  0.98397770194E+02  0.98397770194E+02  0.00000000000E+00 0.  1.
          1   -1    0    0  501    0  0.00000000000E+00 -0.00000000000E+00 -0.13799394059E+03  0.13799394059E+03  0.00000000000E+00 0. -1.
         25    2    1    2    0    0  0.28652321516E+02 -0.33812998740E+02 -0.23760909598E+02  0.13481753875E+03  0.12508762336E+03 0.  0.
          5    1    3    3  502    0  0.35277812849E+02 -0.42514793274E+02  0.41052433748E+02  0.68955104547E+02  0.41800000000E+01 0.  1.
         -5    1    3    3    0  502 -0.66254913331E+01  0.87017945337E+01 -0.64813343346E+02  0.65862434203E+02  0.41800000000E+01 0.  1.
        -11    1    1    2    0    0 -0.39127980661E+02 -0.21034346779E+02 -0.89018234302E+01  0.45306567685E+02  0.00000000000E+00 0. -1.
         11    1    1    2    0    0  0.10475659144E+02  0.54847345519E+02 -0.69334373633E+01  0.56267604344E+02  0.00000000000E+00 0.  1.
</event>
<event>
 7    1  0.2688177E-009  0.7911001E+02  0.7561462E-02  0.1331596E+00
          1   -1    0    0  501    0  0.00000000000E+00  0.00000000000E+00  0.19237024178E+03  0.19237024178E+03  0.00000000000E+00 0. -1.
         -1   -1    0    0    0  501 -0.00000000000E+00 -0.00000000000E+00 -0.15837899809E+03  0.15837899809E+03  0.00000000000E+00 0.  1.
         25    2    1    2    0    0 -0.56966944315E+02 -0.52223027404E+01  0.14256995451E+03  0.19808540527E+03  0.12505650987E+03 0.  0.
          5    1    3    3  502    0 -0.28185528982E+02 -0.37354906995E+02 -0.21343128172E+01  0.47030211692E+02  0.41800000000E+01 0. -1.
         -5    1    3    3    0  502 -0.28781415333E+02  0.32132604255E+02  0.14470426732E+03  0.15105519358E+03  0.41800000000E+01 0. -1.
        -11    1    1    2    0    0  0.20512180000E+02  0.19919345166E+02 -0.10967687517E+03  0.11334260799E+03  0.00000000000E+00 0.  1.
         11    1    1    2    0    0  0.36454764315E+02 -0.14697042425E+02  0.10981643494E+01  0.39321226612E+02  0.00000000000E+00 0. -1.
</event>
<event>
 7    1  0.2688177E-009  0.1637216E+03  0.7561462E-02  0.1184558E+00
          1   -1    0    0  501    0  0.00000000000E+00  0.00000000000E+00  0.11302485699E+03  0.11302485699E+03  0.00000000000E+00 0. -1.
         -1   -1    0    0    0  501 -0.00000000000E+00 -0.00000000000E+00 -0.29089369563E+03  0.29089369563E+03  0.00000000000E+00 0.  1.
         25    2    1    2    0    0 -0.12505989898E+03 -0.51484705489E+02 -0.41586970552E+02  0.18885123026E+03  0.12507860656E+03 0.  0.
          5    1    3    3  502    0 -0.17316355587E+02 -0.56578427138E+02  0.22355236952E+02  0.63389301995E+02  0.41800000000E+01 0.  1.
         -5    1    3    3    0  502 -0.10774354339E+03  0.50937216492E+01 -0.63942207504E+02  0.12546192826E+03  0.41800000000E+01 0.  1.
        -11    1    1    2    0    0  0.12962510038E+03  0.65648147801E+02 -0.10151676217E+03  0.17725123120E+03  0.00000000000E+00 0. -1.
         11    1    1    2    0    0 -0.45652014030E+01 -0.14163442312E+02 -0.34765105910E+02  0.37816091164E+02  0.00000000000E+00 0.  1.
</event>
<event>
 7    1  0.2688177E-009  0.1609727E+03  0.7561462E-02  0.1187603E+00
         -2   -1    0    0    0  501 -0.00000000000E+00  0.00000000000E+00  0.14777883126E+02  0.14777883126E+02  0.00000000000E+00 0.  1.
          2   -1    0    0  501    0  0.00000000000E+00 -0.00000000000E+00 -0.18209567307E+04  0.18209567307E+04  0.00000000000E+00 0. -1.
         25    2    1    2    0    0 -0.60407983200E+02  0.10225597903E+03 -0.11373242266E+04  0.11503302152E+04  0.12509115832E+03 0.  0.
          5    1    3    3  502    0  0.31566136759E+02  0.66469309560E+02 -0.49184438958E+03  0.49733586847E+03  0.41800000000E+01 0. -1.
         -5    1    3    3    0  502 -0.91974119959E+02  0.35786669469E+02 -0.64547983699E+03  0.65299434670E+03  0.41800000000E+01 0. -1.
        -11    1    1    2    0    0  0.44832995490E+01 -0.92603307708E+02 -0.43366125950E+03  0.44346088955E+03  0.00000000000E+00 0. -1.
         11    1    1    2    0    0  0.55924683651E+02 -0.96526713210E+01 -0.23519336153E+03  0.24194350913E+03  0.00000000000E+00 0.  1.
</event>
<event>
 7    1  0.2688177E-009  0.8330475E+02  0.7561462E-02  0.1319926E+00
         -2   -1    0    0    0  501 -0.00000000000E+00  0.00000000000E+00  0.71867187815E+03  0.71867187815E+03  0.00000000000E+00 0.  1.
          2   -1    0    0  501    0  0.00000000000E+00 -0.00000000000E+00 -0.23579198739E+02  0.23579198739E+02  0.00000000000E+00 0. -1.
         25    2    1    2    0    0  0.67588956923E+02 -0.21846215171E+02  0.36587878928E+03  0.39314200678E+03  0.12509126601E+03 0.  0.
          5    1    3    3  502    0  0.32282025880E+01 -0.71321256161E+01 -0.89005099799E+01  0.12569008937E+02  0.41800000000E+01 0. -1.
         -5    1    3    3    0  502  0.64360754335E+02 -0.14714089555E+02  0.37477929926E+03  0.38057299784E+03  0.41800000000E+01 0. -1.
        -11    1    1    2    0    0 -0.51629568812E+02 -0.13011426256E+02  0.28776284812E+03  0.29264717040E+03  0.00000000000E+00 0.  1.
         11    1    1    2    0    0 -0.15959388111E+02  0.34857641427E+02  0.41451042016E+02  0.56461899711E+02  0.00000000000E+00 0. -1.
</event>
<event>
 7    1  0.2688177E-009  0.9649792E+02  0.7561462E-02  0.1287838E+00
         -2   -1    0    0    0  501 -0.00000000000E+00  0.00000000000E+00  0.39977030620E+02  0.39977030620E+02  0.00000000000E+00 0.  1.
          2   -1    0    0  501    0  0.00000000000E+00 -0.00000000000E+00 -0.44277625399E+03  0.44277625399E+03  0.00000000000E+00 0. -1.
         25    2    1    2    0    0  0.16570272250E+02 -0.53697913981E+02 -0.31568677220E+03  0.34418611475E+03  0.12509158070E+03 0.  0.
          5    1    3    3  502    0  0.35349725868E+02 -0.71184102771E+02 -0.30641767281E+03  0.31658496840E+03  0.41800000000E+01 0. -1.
         -5    1    3    3    0  502 -0.18779453618E+02  0.17486188790E+02 -0.92690993856E+01  0.27601146353E+02  0.41800000000E+01 0. -1.
        -11    1    1    2    0    0  0.13881551787E+02  0.55202042300E+02 -0.91504197944E+02  0.10776354298E+03  0.00000000000E+00 0. -1.
         11    1    1    2    0    0 -0.30451824037E+02 -0.15041283187E+01  0.43917467704E+01  0.30803626878E+02  0.00000000000E+00 0.  1.
</event>
<event>
 7    1  0.2688177E-009  0.1540098E+03  0.7561462E-02  0.1195631E+00
          1   -1    0    0  501    0  0.00000000000E+00  0.00000000000E+00  0.18488006888E+03  0.18488006888E+03  0.00000000000E+00 0. -1.
         -1   -1    0    0    0  501 -0.00000000000E+00 -0.00000000000E+00 -0.18449832184E+03  0.18449832184E+03  0.00000000000E+00 0.  1.
         25    2    1    2    0    0 -0.12354190031E+03  0.83071912577E+02  0.12186763709E+02  0.19482813120E+03  0.12508373077E+03 0.  0.
          5    1    3    3  502    0 -0.12373192983E+03  0.81535538731E+02  0.50234389507E+02  0.15652028886E+03  0.41800000000E+01 0.  1.
         -5    1    3    3    0  502  0.19002951519E+00  0.15363738457E+01 -0.38047625798E+02  0.38307842340E+02  0.41800000000E+01 0.  1.
        -11    1    1    2    0    0  0.62439289994E+02 -0.15728197389E+02  0.33910082108E+02  0.72773173606E+02  0.00000000000E+00 0. -1.
         11    1    1    2    0    0  0.61102610316E+02 -0.67343715188E+02 -0.45715098772E+02  0.10177708592E+03  0.00000000000E+00 0.  1.
</event>
<event>
 7    1  0.2688177E-009  0.1044658E+03  0.7561462E-02  0.1271176E+00
          2   -1    0    0  501    0  0.00000000000E+00  0.00000000000E+00  0.35467540116E+03  0.35467540116E+03  0.00000000000E+00 0.  1.
         -2   -1    0    0    0  501 -0.00000000000E+00 -0.00000000000E+00 -0.43698858002E+02  0.43698858002E+02  0.00000000000E+00 0. -1.
         25    2    1    2    0    0  0.53561442319E+02 -0.10594471001E+02  0.18398548848E+03  0.22908527683E+03  0.12509329785E+03 0.  0.
          5    1    3    3  502    0 -0.23678605638E+02 -0.58080173233E+01 -0.46320627204E+01  0.25166204228E+02  0.41800000000E+01 0.  1.
         -5    1    3    3    0  502  0.77240047957E+02 -0.47864536775E+01  0.18861755121E+03  0.20391907260E+03  0.41800000000E+01 0.  1.
        -11    1    1    2    0    0 -0.67243458091E+02 -0.22480008833E+02  0.10680488942E+03  0.12819640345E+03  0.00000000000E+00 0.  1.
         11    1    1    2    0    0  0.13682015772E+02  0.33074479834E+02  0.20186165253E+02  0.41092578886E+02  0.00000000000E+00 0. -1.
</event>
<event>
 7    1  0.2688177E-009  0.1260973E+03  0.7561462E-02  0.1233364E+00
         -1   -1    0    0    0  501 -0.00000000000E+00  0.00000000000E+00  0.21544206956E+02  0.21544206956E+02  0.00000000000E+00 0.  1.
          1   -1    0    0  501    0  0.00000000000E+00 -0.00000000000E+00 -0.86391134491E+03  0.86391134491E+03  0.00000000000E+00 0. -1.
         25    2    1    2    0    0 -0.76909294484E+01  0.76560991637E+02 -0.55419532513E+03  0.57331676536E+03  0.12505566447E+03 0.  0.
          5    1    3    3  502    0 -0.23109619821E+02  0.10070461302E+03 -0.29678893933E+03  0.31428748070E+03  0.41800000000E+01 0.  1.
         -5    1    3    3    0  502  0.15418690372E+02 -0.24143621385E+02 -0.25740638579E+03  0.25902928466E+03  0.41800000000E+01 0.  1.
        -11    1    1    2    0    0 -0.15456894463E+02 -0.91166142842E+02 -0.21657265522E+03  0.23548650954E+03  0.00000000000E+00 0.  1.
         11    1    1    2    0    0  0.23147823911E+02  0.14605151204E+02 -0.71599157611E+02  0.76652276966E+02  0.00000000000E+00 0. -1.
</event>
<event>
 7    1  0.2688177E-009  0.1296005E+03  0.7561462E-02  0.1228050E+00
          1   -1    0    0  501    0  0.00000000000E+00  0.00000000000E+00  0.47206150369E+03  0.47206150369E+03  0.00000000000E+00 0. -1.
         -1   -1    0    0    0  501 -0.00000000000E+00 -0.00000000000E+00 -0.52971542694E+02  0.52971542694E+02  0.00000000000E+00 0.  1.
         25    2    1    2    0    0  0.26121091838E+02 -0.77661270418E+02  0.35361909510E+03  0.38393841238E+03  0.12509458710E+03 0.  0.
          5    1    3    3  502    0 -0.27010625715E+02 -0.84287967193E+02  0.27340402731E+03  0.28740436647E+03  0.41800000000E+01 0.  1.
         -5    1    3    3    0  502  0.53131717553E+02  0.66266967752E+01  0.80215067786E+02  0.96534045913E+02  0.41800000000E+01 0.  1.
        -11    1    1    2    0    0 -0.56611481124E+02  0.46157927656E+02  0.15597368734E+02  0.74690641930E+02  0.00000000000E+00 0.  1.
         11    1    1    2    0    0  0.30490389285E+02  0.31503342763E+02  0.49873497169E+02  0.66403992077E+02  0.00000000000E+00 0. -1.
</event>
<event>
 7    1  0.2688177E-009  0.4554981E+03  0.7561462E-02  0.1026095E+00
         -2   -1    0    0    0  501 -0.00000000000E+00  0.00000000000E+00  0.74928988092E+03  0.74928988092E+03  0.00000000000E+00 0.  1.
          2   -1    0    0  501    0  0.00000000000E+00 -0.00000000000E+00 -0.41415337071E+03  0.41415337071E+03  0.00000000000E+00 0. -1.
         25    2    1    2    0    0  0.44153573876E+03  0.89229476637E+02 -0.15113256469E+03  0.49132912297E+03  0.12509015494E+03 0.  0.
          5    1    3    3  502    0  0.11687435939E+03  0.98830006363E+01  0.14569469850E+02  0.11826678078E+03  0.41800000000E+01 0.  1.
         -5    1    3    3    0  502  0.32466137938E+03  0.79346476001E+02 -0.16570203454E+03  0.37306234219E+03  0.41800000000E+01 0.  1.
        -11    1    1    2    0    0 -0.10867747466E+03  0.16977423739E+02  0.15934429848E+03  0.19362239508E+03  0.00000000000E+00 0.  1.
         11    1    1    2    0    0 -0.33285826410E+03 -0.10620690038E+03  0.32692477641E+03  0.47849173358E+03  0.00000000000E+00 0. -1.
</event>
<event>
 7    1  0.2688177E-009  0.1044304E+03  0.7561462E-02  0.1271246E+00
          2   -1    0    0  501    0  0.00000000000E+00  0.00000000000E+00  0.36983165500E+03  0.36983165500E+03  0.00000000000E+00 0. -1.
         -2   -1    0    0    0  501 -0.00000000000E+00 -0.00000000000E+00 -0.33322874423E+02  0.33322874423E+02  0.00000000000E+00 0.  1.
         25    2    1    2    0    0  0.11298313828E+02  0.22345122134E+02  0.21421043628E+03  0.24932411790E+03  0.12509775527E+03 0.  0.
          5    1    3    3  502    0  0.41502418403E+02  0.62321005075E+02  0.10431397479E+03  0.12847270583E+03  0.41800000000E+01 0. -1.
         -5    1    3    3    0  502 -0.30204104575E+02 -0.39975882941E+02  0.10989646150E+03  0.12085141207E+03  0.41800000000E+01 0. -1.
        -11    1    1    2    0    0  0.65977123206E+01 -0.50118696932E+02  0.37856448776E+02  0.63154764697E+02  0.00000000000E+00 0.  1.
         11    1    1    2    0    0 -0.17896026148E+02  0.27773574798E+02  0.84441895515E+02  0.90675646825E+02  0.00000000000E+00 0. -1.
</event>
<event>
 7    1  0.2688177E-009  0.9948422E+02  0.7561462E-02  0.1281384E+00
         -2   -1    0    0    0  501 -0.00000000000E+00  0.00000000000E+00  0.20238945576E+03  0.20238945576E+03  0.00000000000E+00 0. -1.
          2   -1    0    0  501    0  0.00000000000E+00 -0.00000000000E+00 -0.62190061505E+02  0.62190061505E+02  0.00000000000E+00 0.  1.
         25    2    1    2    0    0  0.20273374116E+02  0.12404878626E+02  0.99919097222E+02  0.16184341057E+03  0.12507826687E+03 0.  0.
          5    1    3    3  502    0  0.37852102869E+02  0.59489670312E+02  0.32774623032E+02  0.77868163458E+02  0.41800000000E+01 0.  1.
         -5    1    3    3    0  502 -0.17578728752E+02 -0.47084791686E+02  0.67144474190E+02  0.83975247108E+02  0.41800000000E+01 0.  1.
        -11    1    1    2    0    0  0.14729386123E+02 -0.33805021131E+02 -0.96463642129E+01  0.38115437971E+02  0.00000000000E+00 0.  1.
         11    1    1    2    0    0 -0.35002760240E+02  0.21400142505E+02  0.49926661244E+02  0.64620668726E+02  0.00000000000E+00 0. -1.
</event>
<event>
 7    1  0.2688177E-009  0.1165857E+03  0.7561462E-02  0.1248838E+00
         -1   -1    0    0    0  501 -0.00000000000E+00  0.00000000000E+00  0.31880464266E+02  0.31880464266E+02  0.00000000000E+00 0.  1.
          1   -1    0    0  501    0  0.00000000000E+00 -0.00000000000E+00 -0.53858868296E+03  0.53858868296E+03  0.00000000000E+00 0. -1.
         25    2    1    2    0    0  0.49366194593E+02  0.21399479763E+02 -0.38455281371E+03  0.40795015165E+03  0.12508997080E+03 0.  0.
          5    1    3    3  502    0  0.70217958533E+02  0.58404623937E+02 -0.22705104151E+03  0.24476786890E+03  0.41800000000E+01 0.  1.
         -5    1    3    3    0  502 -0.20851763940E+02 -0.37005144174E+02 -0.15750177220E+03  0.16318228274E+03  0.41800000000E+01 0.  1.
        -11    1    1    2    0    0 -0.73030583062E+02 -0.15127609316E+02 -0.60012890668E+02  0.95728040157E+02  0.00000000000E+00 0.  1.
         11    1    1    2    0    0  0.23664388469E+02 -0.62718704469E+01 -0.62142514313E+02  0.66790955418E+02  0.00000000000E+00 0. -1.
</event>
<event>
 7    1  0.2688177E-009  0.1602865E+03  0.7561462E-02  0.1188374E+00
          1   -1    0    0  501    0  0.00000000000E+00  0.00000000000E+00  0.19322291114E+03  0.19322291114E+03  0.00000000000E+00 0. -1.
         -1   -1    0    0    0  501 -0.00000000000E+00 -0.00000000000E+00 -0.15691778310E+03  0.15691778310E+03  0.00000000000E+00 0.  1.
         25    2    1    2    0    0 -0.36099010765E+02  0.12693600221E+03  0.65100524879E+02  0.19312442699E+03  0.12507229399E+03 0.  0.
          5    1    3    3  502    0 -0.69767087852E+02  0.33596973846E+02  0.65210134690E+01  0.77821585794E+02  0.41800000000E+01 0.  1.
         -5    1    3    3    0  502  0.33668077086E+02  0.93339028363E+02  0.58579511410E+02  0.11530284119E+03  0.41800000000E+01 0.  1.
        -11    1    1    2    0    0  0.51683659700E+02 -0.93896106030E+02 -0.46002226292E+02  0.11663569021E+03  0.00000000000E+00 0.  1.
         11    1    1    2    0    0 -0.15584648934E+02 -0.33039896178E+02  0.17206829459E+02  0.40380577037E+02  0.00000000000E+00 0. -1.
</event>
<event>
 7    1  0.2688177E-009  0.1079635E+03  0.7561462E-02  0.1264388E+00
         -2   -1    0    0    0  501 -0.00000000000E+00  0.00000000000E+00  0.23199439355E+03  0.23199439355E+03  0.00000000000E+00 0.  1.
          2   -1    0    0  501    0  0.00000000000E+00 -0.00000000000E+00 -0.77194063948E+02  0.77194063948E+02  0.00000000000E+00 0. -1.
         25    2    1    2    0    0  0.35430210903E+02  0.61121884896E+02  0.12155740780E+03  0.18818725812E+03  0.12508819316E+03 0.  0.
          5    1    3    3  502    0  0.22890960935E+02  0.86810958095E+02  0.13004152740E+03  0.15807722728E+03  0.41800000000E+01 0.  1.
         -5    1    3    3    0  502  0.12539249968E+02 -0.25689073199E+02 -0.84841195952E+01  0.30110030836E+02  0.41800000000E+01 0.  1.
        -11    1    1    2    0    0 -0.90666410233E+01  0.14485775842E+02 -0.18874705943E+02  0.25461661486E+02  0.00000000000E+00 0. -1.
         11    1    1    2    0    0 -0.26363569880E+02 -0.75607660737E+02  0.52117627742E+02  0.95539537891E+02  0.00000000000E+00 0.  1.
</event>
<event>
 7    1  0.2688177E-009  0.1003037E+03  0.7561462E-02  0.1279659E+00
          2   -1    0    0  501    0  0.00000000000E+00  0.00000000000E+00  0.28506289125E+02  0.28506289125E+02  0.00000000000E+00 0. -1.
         -2   -1    0    0    0  501 -0.00000000000E+00 -0.00000000000E+00 -0.43054818098E+03  0.43054818098E+03  0.00000000000E+00 0.  1.
         25    2    1    2    0    0 -0.18207429742E+02  0.15492177705E+00 -0.26697369365E+03  0.29538823568E+03  0.12509085571E+03 0.  0.
          5    1    3    3  502    0 -0.20007109835E+02  0.53211579605E+02 -0.64727442253E+02  0.86248888854E+02  0.41800000000E+01 0. -1.
         -5    1    3    3    0  502  0.17996800926E+01 -0.53056657828E+02 -0.20224625140E+03  0.20913934683E+03  0.41800000000E+01 0. -1.
        -11    1    1    2    0    0  0.39333950424E+02  0.32795551904E+02 -0.93252632042E+02  0.10638966709E+03  0.00000000000E+00 0.  1.
         11    1    1    2    0    0 -0.21126520681E+02 -0.32950473681E+02 -0.41815566167E+02  0.57276567335E+02  0.00000000000E+00 0. -1.
</event>
<event>
 7    1  0.2688177E-009  0.7825658E+02  0.7561462E-02  0.1334073E+00
         -1   -1    0    0    0  501 -0.00000000000E+00  0.00000000000E+00  0.20651717415E+03  0.20651717415E+03  0.00000000000E+00 0.  1.
          1   -1    0    0  501    0  0.00000000000E+00 -0.00000000000E+00 -0.78480746795E+02  0.78480746795E+02  0.00000000000E+00 0. -1.
         25    2    1    2    0    0 -0.27731022501E+02 -0.53290125955E+02  0.99918513216E+02  0.17100906372E+03  0.12510612877E+03 0.  0.
          5    1    3    3  502    0  0.10176276327E+02 -0.18297719620E+02  0.11510549788E+03  0.11706883097E+03  0.41800000000E+01 0.  1.
         -5    1    3    3    0  502 -0.37907298828E+02 -0.34992406335E+02 -0.15186984662E+02  0.53940232746E+02  0.41800000000E+01 0.  1.
        -11    1    1    2    0    0  0.27907157847E+02  0.65498050199E+02  0.51324332251E+02  0.87766685707E+02  0.00000000000E+00 0.  1.
         11    1    1    2    0    0 -0.17613534574E+00 -0.12207924245E+02 -0.23206418108E+02  0.26222171524E+02  0.00000000000E+00 0. -1.
</event>
<event>
 7    1  0.2688177E-009  0.1319624E+03  0.7561462E-02  0.1224573E+00
         -1   -1    0    0    0  501 -0.00000000000E+00  0.00000000000E+00  0.10492917001E+03  0.10492917001E+03  0.00000000000E+00 0.  1.
          1   -1    0    0  501    0  0.00000000000E+00 -0.00000000000E+00 -0.44079266471E+03  0.44079266471E+03  0.00000000000E+00 0. -1.
         25    2    1    2    0    0  0.96035446264E+02 -0.23453509061E+02 -0.37356392341E+03  0.40616569905E+03  0.12509075181E+03 0.  0.
          5    1    3    3  502    0  0.41058303016E+02 -0.58424972275E+02 -0.88874108698E+02  0.11408479841E+03  0.41800000000E+01 0.  1.
         -5    1    3    3    0  502  0.54977143248E+02  0.34971463214E+02 -0.28468981471E+03  0.29208090064E+03  0.41800000000E+01 0.  1.
        -11    1    1    2    0    0 -0.92375993758E+02 -0.10482890181E+02  0.63089751220E+01  0.93182715008E+02  0.00000000000E+00 0.  1.
         11    1    1    2    0    0 -0.36594525064E+01  0.33936399242E+02  0.31391453582E+02  0.46373420665E+02  0.00000000000E+00 0. -1.
</event>
<event>
 7    1  0.2688177E-009  0.8001991E+02  0.7561462E-02  0.1328995E+00
          1   -1    0    0  501    0  0.00000000000E+00  0.00000000000E+00  0.41638856079E+02  0.41638856079E+02  0.00000000000E+00 0. -1.
         -1   -1    0    0    0  501 -0.00000000000E+00 -0.00000000000E+00 -0.40111235544E+03  0.40111235544E+03  0.00000000000E+00 0.  1.
         25    2    1    2    0    0  0.32062604528E+02  0.63207594152E+02 -0.20148814726E+03  0.24752754647E+03  0.12509677138E+03 0.  0.
          5    1    3    3  502    0  0.56855071973E+01  0.37114853390E+02 -0.20643558123E+03  0.20986414398E+03  0.41800000000E+01 0. -1.
         -5    1    3    3    0  502  0.26377097330E+02  0.26092740762E+02  0.49474339705E+01  0.37663402487E+02  0.41800000000E+01 0. -1.
        -11    1    1    2    0    0 -0.25164485537E+02 -0.41987728008E+01 -0.12437519094E+03  0.12696483429E+03  0.00000000000E+00 0.  1.
         11    1    1    2    0    0 -0.68981189909E+01 -0.59008821351E+02 -0.33610161171E+02  0.68258830761E+02  0.00000000000E+00 0. -1.
</event>
<event>
 7    1  0.2688177E-009  0.1227591E+03  0.7561462E-02  0.1238614E+00
         -2   -1    0    0    0  501 -0.00000000000E+00  0.00000000000E+00  0.57910792038E+02  0.57910792038E+02  0.00000000000E+00 0.  1.
          2   -1    0    0  501    0  0.00000000000E+00 -0.00000000000E+00 -0.46333247154E+03  0.46333247154E+03  0.00000000000E+00 0. -1.
         25    2    1    2    0    0  0.57022536605E+02  0.23020393639E+02 -0.48220970055E+02  0.14749290092E+03  0.12508951061E+03 0.  0.
          5    1    3    3  502    0  0.44006555803E+02 -0.47407554640E+02 -0.37693397655E+02  0.74982116650E+02  0.41800000000E+01 0. -1.
         -5    1    3    3    0  502  0.13015980802E+02  0.70427948280E+02 -0.10527572400E+02  0.72510784272E+02  0.41800000000E+01 0. -1.
        -11    1    1    2    0    0 -0.41706727965E+02  0.31538394301E+02 -0.14606493034E+03  0.15514214562E+03  0.00000000000E+00 0. -1.
         11    1    1    2    0    0 -0.15315808640E+02 -0.54558787941E+02 -0.21113577911E+03  0.21860821704E+03  0.00000000000E+00 0.  1.
</event>
<event>
 7    1  0.2688177E-009  0.1160808E+03  0.7561462E-02  0.1249706E+00
          2   -1    0    0  501    0  0.00000000000E+00  0.00000000000E+00  0.33416092584E+03  0.33416092584E+03  0.00000000000E+00 0. -1.
         -2   -1    0    0    0  501 -0.00000000000E+00 -0.00000000000E+00 -0.51135898089E+02  0.51135898089E+02  0.00000000000E+00 0.  1.
         25    2    1    2    0    0 -0.66976112454E+02 -0.95329434426E+01  0.19857531760E+03  0.24424577743E+03  0.12508863411E+03 0.  0.
          5    1    3    3  502    0 -0.50971543598E+02 -0.65073495218E+02  0.99048059252E+02  0.12907613443E+03  0.41800000000E+01 0. -1.
         -5    1    3    3    0  502 -0.16004568856E+02  0.55540551775E+02  0.99527258351E+02  0.11516964301E+03  0.41800000000E+01 0. -1.
        -11    1    1    2    0    0 -0.98343829018E+01  0.10822554369E+02 -0.11164973886E+02  0.18398353513E+02  0.00000000000E+00 0.  1.
         11    1    1    2    0    0  0.76810495355E+02 -0.12896109265E+01  0.95614684033E+02  0.12265269298E+03  0.00000000000E+00 0. -1.
</event>
<event>
 6    1  0.2688177E-009  0.1254930E+03  0.7561462E-02  0.1234301E+00
          2   -1    0    0  501    0  0.00000000000E+00  0.00000000000E+00  0.55653908685E+03  0.55653908685E+03  0.00000000000E+00 0.  1.
         -2   -1    0    0    0  501 -0.00000000000E+00 -0.00000000000E+00 -0.30890815471E+02  0.30890815471E+02  0.00000000000E+00 0. -1.
          5    1    1    2  502    0 -0.34128410951E+02  0.25394476191E+02  0.94659053374E+02  0.10386258537E+03  0.41800000000E+01 0.  1.
         -5    1    1    2    0  502  0.98218223769E+02  0.14715176845E+00  0.14742732610E+03  0.17719799664E+03  0.41800000000E+01 0.  1.
        -11    1    1    2    0    0 -0.24389451682E+02  0.31870827045E+02  0.15465287415E+03  0.15977517471E+03  0.00000000000E+00 0.  1.
         11    1    1    2    0    0 -0.39700361135E+02 -0.57412455005E+02  0.12890901776E+03  0.14659414560E+03  0.00000000000E+00 0. -1.
</event>
<event>
 7    1  0.2688177E-009  0.1250901E+03  0.7561462E-02  0.1234928E+00
          2   -1    0    0  501    0  0.00000000000E+00  0.00000000000E+00  0.70689112777E+03  0.70689112777E+03  0.00000000000E+00 0. -1.
         -2   -1    0    0    0  501 -0.00000000000E+00 -0.00000000000E+00 -0.25763968301E+02  0.25763968301E+02  0.00000000000E+00 0.  1.
         25    2    1    2    0    0  0.51007601859E+02 -0.57576073416E+02  0.38805513679E+03  0.41491022259E+03  0.12508766502E+03 0.  0.
          5    1    3    3  502    0  0.67240250099E+02  0.16980389715E+02  0.20846576508E+03  0.21973855483E+03  0.41800000000E+01 0. -1.
         -5    1    3    3    0  502 -0.16232648240E+02 -0.74556463131E+02  0.17958937171E+03  0.19517166776E+03  0.41800000000E+01 0. -1.
        -11    1    1    2    0    0  0.15284785534E+02  0.27559604086E+02  0.25755574214E+02  0.40700197166E+02  0.00000000000E+00 0.  1.
         11    1    1    2    0    0 -0.66292387393E+02  0.30016469330E+02  0.26731644846E+03  0.27704467632E+03  0.00000000000E+00 0. -1.
</event>
<event>
 7    1  0.2688177E-009  0.7705161E+02  0.7561462E-02  0.1337633E+00
          2   -1    0    0  501    0  0.00000000000E+00  0.00000000000E+00  0.46384680939E+03  0.46384680939E+03  0.00000000000E+00 0. -1.
         -2   -1    0    0    0  501 -0.00000000000E+00 -0.00000000000E+00 -0.56009983782E+02  0.56009983782E+02  0.00000000000E+00 0.  1.
         25    2    1    2    0    0 -0.36625621755E+02 -0.49201350017E+02  0.36995662549E+03  0.39531922577E+03  0.12508867458E+03 0.  0.
          5    1    3    3  502    0 -0.38385888938E+02 -0.36983167711E+02  0.37681680099E+03  0.38059112585E+03  0.41800000000E+01 0. -1.
         -5    1    3    3    0  502  0.17602671835E+01 -0.12218182306E+02 -0.68601755028E+01  0.14728099923E+02  0.41800000000E+01 0. -1.
        -11    1    1    2    0    0  0.53508686479E+02  0.27661745998E+02 -0.17532076446E+02  0.62735360243E+02  0.00000000000E+00 0.  1.
         11    1    1    2    0    0 -0.16883064724E+02  0.21539604019E+02  0.55412276565E+02  0.61802207160E+02  0.00000000000E+00 0. -1.
</event>
<event>
 7    1  0.2688177E-009  0.2188663E+03  0.7561462E-02  0.1134731E+00
          2   -1    0    0  501    0  0.00000000000E+00  0.00000000000E+00  0.20208264310E+03  0.20208264310E+03  0.00000000000E+00 0.  1.
         -2   -1    0    0    0  501 -0.00000000000E+00 -0.00000000000E+00 -0.34153249682E+03  0.34153249682E+03  0.00000000000E+00 0. -1.
         25    2    1    2    0    0 -0.76452412652E+02 -0.19958468838E+03 -0.18093843262E+03  0.30670177912E+03  0.12509294816E+03 0.  0.
          5    1    3    3  502    0 -0.53991950670E+02 -0.62294440841E+02 -0.13844034867E+03  0.16117980840E+03  0.41800000000E+01 0.  1.
         -5    1    3    3    0  502 -0.22460461982E+02 -0.13729024754E+03 -0.42498083953E+02  0.14552197072E+03  0.41800000000E+01 0.  1.
        -11    1    1    2    0    0  0.78380091830E+02  0.17989515863E+03  0.64508704566E+02  0.20656011197E+03  0.00000000000E+00 0.  1.
         11    1    1    2    0    0 -0.19276791779E+01  0.19689529751E+02 -0.23020125666E+02  0.30353248830E+02  0.00000000000E+00 0. -1.
</event>
<event>
 7    1  0.2688177E-009  0.9935656E+02  0.7561462E-02  0.1281655E+00
          1   -1    0    0  501    0  0.00000000000E+00  0.00000000000E+00  0.23030772825E+02  0.23030772825E+02  0.00000000000E+00 0. -1.
         -1   -1    0    0    0  501 -0.00000000000E+00 -0.00000000000E+00 -0.73640763815E+03  0.73640763815E+03  0.00000000000E+00 0.  1.
         25    2    1    2    0    0  0.32484655608E+02  0.57479935991E+02 -0.47137192904E+03  0.49213691744E+03  0.12509218252E+03 0.  0.
          5    1    3    3  502    0  0.70217932907E+02  0.36976175554E+02 -0.16958828944E+03  0.18728442534E+03  0.41800000000E+01 0. -1.
         -5    1    3    3    0  502 -0.37733277299E+02  0.20503760437E+02 -0.30178363960E+03  0.30485249210E+03  0.41800000000E+01 0. -1.
        -11    1    1    2    0    0 -0.41175393344E+02 -0.47735089856E+02 -0.24575888736E+03  0.25371535731E+03  0.00000000000E+00 0.  1.
         11    1    1    2    0    0  0.86907377362E+01 -0.97448461355E+01  0.37539510791E+01  0.13586136217E+02  0.00000000000E+00 0. -1.
</event>
<event>
 7    1  0.2688177E-009  0.9292744E+02  0.7561462E-02  0.1295913E+00
          2   -1    0    0  501    0  0.00000000000E+00  0.00000000000E+00  0.29776389430E+03  0.29776389430E+03  0.00000000000E+00 0. -1.
         -2   -1    0    0    0  501 -0.00000000000E+00 -0.00000000000E+00 -0.59715626518E+02  0.59715626518E+02  0.00000000000E+00 0.  1.
         25    2    1    2    0    0 -0.44724385872E+02 -0.18303002515E+02  0.49266102071E+02  0.14288492030E+03  0.12511467157E+03 0.  0.
          5    1    3    3  502    0 -0.42173393388E+02  0.26734925048E+02 -0.24917740797E+02  0.55961750631E+02  0.41800000000E+01 0.  1.
         -5    1    3    3    0  502 -0.25509924839E+01 -0.45037927563E+02  0.74183842868E+02  0.86923169665E+02  0.41800000000E+01 0.  1.
        -11    1    1    2    0    0 -0.21892622748E+02  0.30685695588E+01  0.10077479460E+03  0.10317103410E+03  0.00000000000E+00 0. -1.
         11    1    1    2    0    0  0.66617008620E+02  0.15234432956E+02  0.88007371112E+02  0.11142356643E+03  0.00000000000E+00 0.  1.
</event>
<event>
 7    1  0.2688177E-009  0.1077223E+03  0.7561462E-02  0.1264847E+00
          4   -1    0    0  501    0  0.00000000000E+00  0.00000000000E+00  0.56681368825E+03  0.56681368825E+03  0.00000000000E+00 0. -1.
         -4   -1    0    0    0  501 -0.00000000000E+00 -0.00000000000E+00 -0.48236448258E+02  0.48236448258E+02  0.00000000000E+00 0.  1.
         25    2    1    2    0    0  0.15757129776E+02 -0.23376131436E+02  0.51442950920E+02  0.13814470364E+03  0.12507138476E+03 0.  0.
          5    1    3    3  502    0 -0.16154757926E+02  0.42735407734E+02  0.45114462590E+02  0.64343441100E+02  0.41800000000E+01 0. -1.
         -5    1    3    3    0  502  0.31911887702E+02 -0.66111539169E+02  0.63284883294E+01  0.73801262540E+02  0.41800000000E+01 0. -1.
        -11    1    1    2    0    0 -0.38669360627E+02 -0.22513582987E+02  0.22032045245E+03  0.22481833253E+03  0.00000000000E+00 0. -1.
         11    1    1    2    0    0  0.22912230851E+02  0.45889714423E+02  0.24681383661E+03  0.25208710034E+03  0.00000000000E+00 0.  1.
</event>
<event>
 7    1  0.2688177E-009  0.1164408E+03  0.7561462E-02  0.1249087E+00
         -2   -1    0    0    0  501 -0.00000000000E+00  0.00000000000E+00  0.20592020082E+02  0.20592020082E+02  0.00000000000E+00 0. -1.
          2   -1    0    0  501    0  0.00000000000E+00 -0.00000000000E+00 -0.16597188825E+04  0.16597188825E+04  0.00000000000E+00 0.  1.
         25    2    1    2    0    0  0.11442245736E+03  0.62765237693E+01 -0.13017178057E+04  0.13127254683E+04  0.12508803198E+03 0.  0.
          5    1    3    3  502    0  0.31633836125E+02 -0.61825447436E+01 -0.97119433920E+03  0.97173805130E+03  0.41800000000E+01 0. -1.
         -5    1    3    3    0  502  0.82788621231E+02  0.12459068513E+02 -0.33052346654E+03  0.34098741696E+03  0.41800000000E+01 0. -1.
        -11    1    1    2    0    0 -0.66936960476E+02  0.68532401465E+01 -0.29500890491E+03  0.30258515752E+03  0.00000000000E+00 0.  1.
         11    1    1    2    0    0 -0.47485496880E+02 -0.13129763916E+02 -0.42400151791E+02  0.65000276818E+02  0.00000000000E+00 0. -1.
</event>
<event>
 7    1  0.2688177E-009  0.1482925E+03  0.7561462E-02  0.1202587E+00
         -3   -1    0    0    0  501 -0.00000000000E+00  0.00000000000E+00  0.39321360070E+03  0.39321360070E+03  0.00000000000E+00 0.  1.
          3   -1    0    0  501    0  0.00000000000E+00 -0.00000000000E+00 -0.70391687218E+02  0.70391687218E+02  0.00000000000E+00 0. -1.
         25    2    1    2    0    0 -0.10599330783E+03  0.63896132904E+02  0.19599779114E+03  0.26339355435E+03  0.12507491050E+03 0.  0.
          5    1    3    3  502    0 -0.15144065339E+02 -0.29013302764E+02  0.89313387367E+02  0.95212751327E+02  0.41800000000E+01 0.  1.
         -5    1    3    3    0  502 -0.90849242488E+02  0.92909435668E+02  0.10668440377E+03  0.16818080302E+03  0.41800000000E+01 0.  1.
        -11    1    1    2    0    0  0.65924087339E+02 -0.66222853448E+02  0.34617959879E+02  0.99648656571E+02  0.00000000000E+00 0. -1.
         11    1    1    2    0    0  0.40069220488E+02  0.23267205435E+01  0.92206162466E+02  0.10056307700E+03  0.00000000000E+00 0.  1.
</event>
<event>
 7    1  0.2688177E-009  0.3011420E+03  0.7561462E-02  0.1084671E+00
         -2   -1    0    0    0  501 -0.00000000000E+00  0.00000000000E+00  0.15796754312E+03  0.15796754312E+03  0.00000000000E+00 0.  1.
          2   -1    0    0  501    0  0.00000000000E+00 -0.00000000000E+00 -0.62729673560E+03  0.62729673560E+03  0.00000000000E+00 0. -1.
         25    2    1    2    0    0  0.29235033014E+03  0.39600285828E+02 -0.25175614013E+03  0.40751137966E+03  0.12508985685E+03 0.  0.
          5    1    3    3  502    0  0.12733168204E+03 -0.84625451077E+01 -0.18120993201E+03  0.22167427406E+03  0.41800000000E+01 0. -1.
         -5    1    3    3    0  502  0.16501864810E+03  0.48062830936E+02 -0.70546208128E+02  0.18583710560E+03  0.41800000000E+01 0. -1.
        -11    1    1    2    0    0 -0.12178286359E+03 -0.50327446823E+02 -0.13240800098E+03  0.18680416615E+03  0.00000000000E+00 0. -1.
         11    1    1    2    0    0 -0.17056746655E+03  0.10727160994E+02 -0.85165051365E+02  0.19094873291E+03  0.00000000000E+00 0.  1.
</event>
<event>
 7    1  0.2688177E-009  0.1213367E+03  0.7561462E-02  0.1240908E+00
         -2   -1    0    0    0  501 -0.00000000000E+00  0.00000000000E+00  0.37971551550E+03  0.37971551550E+03  0.00000000000E+00 0.  1.
          2   -1    0    0  501    0  0.00000000000E+00 -0.00000000000E+00 -0.41582418538E+02  0.41582418538E+02  0.00000000000E+00 0. -1.
         25    2    1    2    0    0  0.41137681013E+02  0.43890243351E+02  0.15567672310E+03  0.20856974891E+03  0.12508971096E+03 0.  0.
          5    1    3    3  502    0  0.83453405615E+02  0.21398027820E+02  0.73378703369E+02  0.11324421845E+03  0.41800000000E+01 0. -1.
         -5    1    3    3    0  502 -0.42315724602E+02  0.22492215532E+02  0.82298019728E+02  0.95325530469E+02  0.41800000000E+01 0. -1.
        -11    1    1    2    0    0  0.26875737253E+02 -0.27296183636E+02  0.50902133512E+02  0.63705683342E+02  0.00000000000E+00 0.  1.
         11    1    1    2    0    0 -0.68013418266E+02 -0.16594059715E+02  0.13155424035E+03  0.14902250178E+03  0.00000000000E+00 0. -1.
</event>
<event>
 7    1  0.2688177E-009  0.1277617E+03  0.7561462E-02  0.1230815E+00
         -4   -1    0    0    0  501 -0.00000000000E+00  0.00000000000E+00  0.46739746116E+02  0.46739746116E+02  0.00000000000E+00 0. -1.
          4   -1    0    0  501    0  0.00000000000E+00 -0.00000000000E+00 -0.53450699905E+03  0.53450699905E+03  0.00000000000E+00 0.  1.
         25    2    1    2    0    0 -0.79871932191E+02  0.75556032880E+02 -0.32350619904E+03  0.36385648133E+03  0.12508812308E+03 0.  0.
          5    1    3    3  502    0 -0.83845474346E+02  0.15691940090E+02 -0.27059706831E+03  0.28375437676E+03  0.41800000000E+01 0.  1.
         -5    1    3    3    0  502  0.39735421550E+01  0.59864092790E+02 -0.52909130732E+02  0.80102104577E+02  0.41800000000E+01 0.  1.
        -11    1    1    2    0    0  0.38445028145E+02 -0.34545710791E+02 -0.10217439021E+02  0.52686073903E+02  0.00000000000E+00 0. -1.
         11    1    1    2    0    0  0.41426904046E+02 -0.41010322089E+02 -0.15404361488E+03  0.16470418993E+03  0.00000000000E+00 0.  1.
</event>
<event>
 7    1  0.5022128E-009  0.1775737E+03  0.7561462E-02  0.1170172E+00
         -2   -1    0    0    0  501 -0.00000000000E+00  0.00000000000E+00  0.85762706425E+02  0.85762706425E+02  0.00000000000E+00 0.  1.
          2   -1    0    0  501    0  0.00000000000E+00 -0.00000000000E+00 -0.42437280200E+03  0.42437280200E+03  0.00000000000E+00 0. -1.
         25    2    1    2    0    0  0.15024911399E+03  0.17965932551E+02 -0.23074338519E+03  0.30296458468E+03  0.12508980286E+03 0.  0.
          5    1    3    3  502    0  0.90948041617E+02 -0.48686184293E+02 -0.93921495603E+02  0.13957295781E+03  0.41800000000E+01 0. -1.
         -5    1    3    3    0  502  0.59301072368E+02  0.66652116844E+02 -0.13682188958E+03  0.16339162687E+03  0.41800000000E+01 0. -1.
        -11    1    1    2    0    0 -0.73167102933E+02 -0.38697388467E+02 -0.95533699030E+02  0.12640253350E+03  0.00000000000E+00 0. -1.
         11    1    1    2    0    0 -0.77082011052E+02  0.20731455915E+02 -0.12333011356E+02  0.80768390236E+02  0.00000000000E+00 0.  1.
</event>
<event>
 7    1  0.2688177E-009  0.1508539E+03  0.7561462E-02  0.1199428E+00
         -2   -1    0    0    0  501 -0.00000000000E+00  0.00000000000E+00  0.66156444824E+02  0.66156444824E+02  0.00000000000E+00 0.  1.
          2   -1    0    0  501    0  0.00000000000E+00 -0.00000000000E+00 -0.42621696372E+03  0.42621696372E+03  0.00000000000E+00 0. -1.
         25    2    1    2    0    0 -0.12528510006E+03 -0.60689819052E+02 -0.19657343364E+03  0.27141870441E+03  0.12508951939E+03 0.  0.
          5    1    3    3  502    0 -0.75631589506E+02 -0.78923152806E+02 -0.59702773933E+02  0.12462301150E+03  0.41800000000E+01 0. -1.
         -5    1    3    3    0  502 -0.49653510551E+02  0.18233333754E+02 -0.13687065971E+03  0.14679569291E+03  0.41800000000E+01 0. -1.
        -11    1    1    2    0    0  0.99170329277E+02  0.46418220600E+02 -0.90229268566E+02  0.14188279078E+03  0.00000000000E+00 0.  1.
         11    1    1    2    0    0  0.26114770780E+02  0.14271598452E+02 -0.73257816696E+02  0.79071913359E+02  0.00000000000E+00 0. -1.
</event>
<event>
 7    1  0.2688177E-009  0.1020730E+03  0.7561462E-02  0.1275996E+00
         -2   -1    0    0    0  501 -0.00000000000E+00  0.00000000000E+00  0.24210461714E+03  0.24210461714E+03  0.00000000000E+00 0.  1.
          2   -1    0    0  501    0  0.00000000000E+00 -0.00000000000E+00 -0.63623874460E+02  0.63623874460E+02  0.00000000000E+00 0. -1.
         25    2    1    2    0    0  0.14564890704E+02  0.45966425057E+02  0.54535571396E+02  0.14473488881E+03  0.12509600800E+03 0.  0.
          5    1    3    3  502    0  0.26869800810E+02  0.71075313484E+02  0.77272701612E+02  0.10845381135E+03  0.41800000000E+01 0. -1.
         -5    1    3    3    0  502 -0.12304910107E+02 -0.25108888427E+02 -0.22737130217E+02  0.36281077454E+02  0.41800000000E+01 0. -1.
        -11    1    1    2    0    0 -0.38273001438E+02  0.95158916751E+01  0.68549701482E+02  0.79084994827E+02  0.00000000000E+00 0.  1.
         11    1    1    2    0    0  0.23708110734E+02 -0.55482316732E+02  0.55395469807E+02  0.81908607971E+02  0.00000000000E+00 0. -1.
</event>
<event>
 7    1  0.2688177E-009  0.1309960E+03  0.7561462E-02  0.1225985E+00
         -1   -1    0    0    0  501 -0.00000000000E+00  0.00000000000E+00  0.47339175810E+02  0.47339175810E+02  0.00000000000E+00 0.  1.
          1   -1    0    0  501    0  0.00000000000E+00 -0.00000000000E+00 -0.83045485251E+03  0.83045485251E+03  0.00000000000E+00 0. -1.
         25    2    1    2    0    0 -0.10331450678E+03  0.34820756663E+02 -0.72044785297E+03  0.73931227760E+03  0.12510460644E+03 0.  0.
          5    1    3    3  502    0 -0.29592374456E+02 -0.30831507007E+02 -0.43763221236E+03  0.43973368775E+03  0.41800000000E+01 0.  1.
         -5    1    3    3    0  502 -0.73722132323E+02  0.65652263670E+02 -0.28281564061E+03  0.29957858985E+03  0.41800000000E+01 0.  1.
        -11    1    1    2    0    0  0.14285219179E+02  0.12888410997E+02 -0.22946507791E+02  0.29945297541E+02  0.00000000000E+00 0. -1.
         11    1    1    2    0    0  0.89029287601E+02 -0.47709167660E+02 -0.39721315940E+02  0.10853645318E+03  0.00000000000E+00 0.  1.
</event>
<event>
 7    1  0.3553819E-009  0.1656492E+03  0.7561462E-02  0.1182462E+00
         -2   -1    0    0    0  501 -0.00000000000E+00  0.00000000000E+00  0.18343339436E+03  0.18343339436E+03  0.00000000000E+00 0.  1.
          2   -1    0    0  501    0  0.00000000000E+00 -0.00000000000E+00 -0.17489037001E+03  0.17489037001E+03  0.00000000000E+00 0. -1.
         25    2    1    2    0    0 -0.12031403371E+03 -0.75355690920E+02  0.11766737649E+02  0.18957856391E+03  0.12509048292E+03 0.  0.
          5    1    3    3  502    0 -0.35712537905E+02 -0.93047677251E+02 -0.10279854502E+02  0.10028162052E+03  0.41800000000E+01 0. -1.
         -5    1    3    3    0  502 -0.84601495809E+02  0.17691986332E+02  0.22046592151E+02  0.89296943391E+02  0.41800000000E+01 0. -1.
        -11    1    1    2    0    0  0.61961774988E+02  0.56044257255E+02  0.40959603963E+02  0.93047888143E+02  0.00000000000E+00 0.  1.
         11    1    1    2    0    0  0.58352258725E+02  0.19311433664E+02 -0.44183317255E+02  0.75697312318E+02  0.00000000000E+00 0. -1.
</event>
<event>
 7    1  0.2688177E-009  0.1317657E+03  0.7561462E-02  0.1224859E+00
         -1   -1    0    0    0  501 -0.00000000000E+00  0.00000000000E+00  0.45084103162E+02  0.45084103162E+02  0.00000000000E+00 0.  1.
          1   -1    0    0  501    0  0.00000000000E+00 -0.00000000000E+00 -0.58804794482E+03  0.58804794482E+03  0.00000000000E+00 0. -1.
         25    2    1    2    0    0 -0.27792452224E+02 -0.85910301890E+02 -0.13364722559E+03  0.20410944109E+03  0.12508430222E+03 0.  0.
          5    1    3    3  502    0 -0.38149996131E+02  0.10381009952E+02 -0.94027907025E+00  0.39768632076E+02  0.41800000000E+01 0.  1.
         -5    1    3    3    0  502  0.10357543907E+02 -0.96291311843E+02 -0.13270694652E+03  0.16434080901E+03  0.41800000000E+01 0.  1.
        -11    1    1    2    0    0  0.28660437888E+02 -0.10425200985E+02 -0.71387134093E+02  0.77628786088E+02  0.00000000000E+00 0. -1.
         11    1    1    2    0    0 -0.86798566368E+00  0.96335502875E+02 -0.33792948198E+03  0.35139382081E+03  0.00000000000E+00 0.  1.
</event>
<event>
 7    1  0.2688177E-009  0.1114237E+03  0.7561462E-02  0.1257956E+00
         -1   -1    0    0    0  501 -0.00000000000E+00  0.00000000000E+00  0.53376322639E+02  0.53376322639E+02  0.00000000000E+00 0.  1.
          1   -1    0    0  501    0  0.00000000000E+00 -0.00000000000E+00 -0.29725441215E+03  0.29725441215E+03  0.00000000000E+00 0. -1.
         25    2    1    2    0    0  0.10154528092E+02  0.30155811902E+02 -0.21382755769E+03  0.24976031859E+03  0.12508199263E+03 0.  0.
          5    1    3    3  502    0  0.42003134856E+02  0.66317252115E+02 -0.15330393880E+03  0.17228410060E+03  0.41800000000E+01 0. -1.
         -5    1    3    3    0  502 -0.31848606764E+02 -0.36161440213E+02 -0.60523618887E+02  0.77476217992E+02  0.41800000000E+01 0. -1.
        -11    1    1    2    0    0 -0.38062157993E+02 -0.49109627614E+02 -0.14930377786E+02  0.63901483365E+02  0.00000000000E+00 0.  1.
         11    1    1    2    0    0  0.27907629901E+02  0.18953815713E+02 -0.15120154031E+02  0.36968932831E+02  0.00000000000E+00 0. -1.
</event>
<event>
 7    1  0.2688177E-009  0.1092555E+03  0.7561462E-02  0.1261955E+00
         -2   -1    0    0    0  501 -0.00000000000E+00  0.00000000000E+00  0.19525450500E+02  0.19525450500E+02  0.00000000000E+00 0.  1.
          2   -1    0    0  501    0  0.00000000000E+00 -0.00000000000E+00 -0.77710981395E+03  0.77710981395E+03  0.00000000000E+00 0. -1.
         25    2    1    2    0    0  0.20650691620E+02  0.94758934113E+01 -0.45270556317E+03  0.47021468261E+03  0.12507308743E+03 0.  0.
          5    1    3    3  502    0  0.52856659483E+01  0.62646453684E+02 -0.32370845687E+03  0.32978349545E+03  0.41800000000E+01 0.  1.
         -5    1    3    3    0  502  0.15365025672E+02 -0.53170560273E+02 -0.12899710630E+03  0.14043118716E+03  0.41800000000E+01 0.  1.
        -11    1    1    2    0    0 -0.23104240285E+01  0.43694103756E+02 -0.54956393228E+02  0.70247547423E+02  0.00000000000E+00 0.  1.
         11    1    1    2    0    0 -0.18340267592E+02 -0.53169997168E+02 -0.24992240706E+03  0.25617303442E+03  0.00000000000E+00 0. -1.
</event>
<event>
 7    1  0.2688177E-009  0.1015507E+03  0.7561462E-02  0.1277068E+00
          2   -1    0    0  501    0  0.00000000000E+00  0.00000000000E+00  0.77312848263E+03  0.77312848263E+03  0.00000000000E+00 0.  1.
         -2   -1    0    0    0  501 -0.00000000000E+00 -0.00000000000E+00 -0.21407130111E+02  0.21407130111E+02  0.00000000000E+00 0. -1.
         25    2    1    2    0    0 -0.40288717112E+02 -0.29251766089E+02  0.55828569918E+03  0.57429023727E+03  0.12509000027E+03 0.  0.
          5    1    3    3  502    0 -0.65864129715E+02  0.17936032196E+01  0.14850899951E+03  0.16252290894E+03  0.41800000000E+01 0. -1.
         -5    1    3    3    0  502  0.25575412603E+02 -0.31045369308E+02  0.40977669967E+03  0.41176732833E+03  0.41800000000E+01 0. -1.
        -11    1    1    2    0    0  0.28216571960E+02  0.58527067911E+02  0.83274222065E+02  0.10562286056E+03  0.00000000000E+00 0. -1.
         11    1    1    2    0    0  0.12072145152E+02 -0.29275301823E+02  0.11016143128E+03  0.11462251492E+03  0.00000000000E+00 0.  1.
</event>
<event>
 7    1  0.2688177E-009  0.9762227E+02  0.7561462E-02  0.1285377E+00
          1   -1    0    0  501    0  0.00000000000E+00  0.00000000000E+00  0.11636540748E+03  0.11636540748E+03  0.00000000000E+00 0. -1.
         -1   -1    0    0    0  501 -0.00000000000E+00 -0.00000000000E+00 -0.10938584497E+03  0.10938584497E+03  0.00000000000E+00 0.  1.
         25    2    1    2    0    0 -0.13414345639E+02 -0.27835054594E+02 -0.58105466158E+01  0.12897959560E+03  0.12508892316E+03 0.  0.
          5    1    3    3  502    0 -0.51354206536E+02 -0.32662965586E+02  0.37057716007E+02  0.71378362025E+02  0.41800000000E+01 0.  1.
         -5    1    3    3    0  502  0.37939860896E+02  0.48279109917E+01 -0.42868262623E+02  0.57601233578E+02  0.41800000000E+01 0.  1.
        -11    1    1    2    0    0  0.44800819420E+02 -0.10705492366E+02  0.33909402790E+01  0.46186788841E+02  0.00000000000E+00 0.  1.
         11    1    1    2    0    0 -0.31386473780E+02  0.38540546961E+02  0.93991688528E+01  0.50584868009E+02  0.00000000000E+00 0. -1.
</event>
<event>
 7    1  0.2688177E-009  0.9019461E+02  0.7561462E-02  0.1302381E+00
          4   -1    0    0  501    0  0.00000000000E+00  0.00000000000E+00  0.79840607748E+02  0.79840607748E+02  0.00000000000E+00 0. -1.
         -4   -1    0    0    0  501 -0.00000000000E+00 -0.00000000000E+00 -0.18160506610E+03  0.18160506610E+03  0.00000000000E+00 0.  1.
         25    2    1    2    0    0  0.68405845585E+01  0.35133202880E+02 -0.16563577272E+02  0.13115688067E+03  0.12508652890E+03 0.  0.
          5    1    3    3  502    0 -0.42856789147E+01  0.57615113807E+02 -0.58363391385E+02  0.82229108208E+02  0.41800000000E+01 0. -1.
         -5    1    3    3    0  502  0.11126263473E+02 -0.22481910926E+02  0.41799814113E+02  0.48927772457E+02  0.41800000000E+01 0. -1.
        -11    1    1    2    0    0 -0.25424579703E+02  0.24052357735E+02 -0.42114721937E+02  0.54759245516E+02  0.00000000000E+00 0.  1.
         11    1    1    2    0    0  0.18583995144E+02 -0.59185560615E+02 -0.43086159139E+02  0.75529547663E+02  0.00000000000E+00 0. -1.
</event>
<event>
 7    1  0.2688177E-009  0.7791567E+02  0.7561462E-02  0.1335073E+00
          1   -1    0    0  501    0  0.00000000000E+00  0.00000000000E+00  0.11174192969E+03  0.11174192969E+03  0.00000000000E+00 0. -1.
         -1   -1    0    0    0  501 -0.00000000000E+00 -0.00000000000E+00 -0.13611368712E+03  0.13611368712E+03  0.00000000000E+00 0.  1.
         25    2    1    2    0    0 -0.29767153019E+02  0.66785246950E+01 -0.63837681565E+02  0.14371432289E+03  0.12509145025E+03 0.  0.
          5    1    3    3  502    0 -0.30027398644E+02  0.26000667523E+02  0.28640074897E+02  0.49146776812E+02  0.41800000000E+01 0.  1.
         -5    1    3    3    0  502  0.26024562497E+00 -0.19322142828E+02 -0.92477756461E+02  0.94567546079E+02  0.41800000000E+01 0.  1.
        -11    1    1    2    0    0 -0.28449775754E+02  0.17146928726E+02  0.17252911673E+02  0.37430867829E+02  0.00000000000E+00 0.  1.
         11    1    1    2    0    0  0.58216928773E+02 -0.23825453422E+02  0.22213012455E+02  0.66710426087E+02  0.00000000000E+00 0. -1.
</event>
<event>
 7    1  0.2688177E-009  0.1365762E+03  0.7561462E-02  0.1218012E+00
         -2   -1    0    0    0  501 -0.00000000000E+00  0.00000000000E+00  0.31223738235E+02  0.31223738235E+02  0.00000000000E+00 0.  1.
          2   -1    0    0  501    0  0.00000000000E+00 -0.00000000000E+00 -0.80625260378E+03  0.80625260378E+03  0.00000000000E+00 0. -1.
         25    2    1    2    0    0  0.95723972626E+02 -0.59204394881E+02 -0.34914530509E+03  0.38757802401E+03  0.12508413697E+03 0.  0.
          5    1    3    3  502    0 -0.32474959266E+01 -0.44464349826E+02 -0.32112760717E+02  0.55102871396E+02  0.41800000000E+01 0. -1.
         -5    1    3    3    0  502  0.98971468553E+02 -0.14740045055E+02 -0.31703254437E+03  0.33247515261E+03  0.41800000000E+01 0. -1.
        -11    1    1    2    0    0 -0.21643272935E+02  0.48841060933E+02 -0.81241167023E+02  0.97231721757E+02  0.00000000000E+00 0.  1.
         11    1    1    2    0    0 -0.74080699691E+02  0.10363333948E+02 -0.34464239344E+03  0.35266659625E+03  0.00000000000E+00 0. -1.
</event>
<event>
 7    1  0.2688177E-009  0.1210147E+03  0.7561462E-02  0.1241432E+00
          2   -1    0    0  501    0  0.00000000000E+00  0.00000000000E+00  0.45787435337E+03  0.45787435337E+03  0.00000000000E+00 0. -1.
         -2   -1    0    0    0  501 -0.00000000000E+00 -0.00000000000E+00 -0.49047195006E+02  0.49047195006E+02  0.00000000000E+00 0.  1.
         25    2    1    2    0    0 -0.21030960700E+01 -0.93013817505E+02  0.14629115375E+03  0.21378486076E+03  0.12508745647E+03 0.  0.
          5    1    3    3  502    0  0.46831713500E+02 -0.73255061539E+01  0.85386192106E+02  0.97750430343E+02  0.41800000000E+01 0. -1.
         -5    1    3    3    0  502 -0.48934809571E+02 -0.85688311351E+02  0.60904961646E+02  0.11603443042E+03  0.41800000000E+01 0. -1.
        -11    1    1    2    0    0 -0.58880026974E+01  0.81218486561E+02  0.26624068524E+03  0.27841554126E+03  0.00000000000E+00 0. -1.
         11    1    1    2    0    0  0.79910987675E+01  0.11795330944E+02 -0.37046806267E+01  0.14721146359E+02  0.00000000000E+00 0.  1.
</event>
<event>
 7    1  0.2688177E-009  0.2067090E+03  0.7561462E-02  0.1144199E+00
         -2   -1    0    0    0  501 -0.00000000000E+00  0.00000000000E+00  0.40324965645E+03  0.40324965645E+03  0.00000000000E+00 0.  1.
          2   -1    0    0  501    0  0.00000000000E+00 -0.00000000000E+00 -0.13149387573E+03  0.13149387573E+03  0.00000000000E+00 0. -1.
         25    2    1    2    0    0  0.13952637474E+03  0.13334182783E+03  0.95087458740E+02  0.24886991751E+03  0.12508780411E+03 0.  0.
          5    1    3    3  502    0  0.54669253570E+01  0.56772121329E+02  0.73190802875E+02  0.92883405722E+02  0.41800000000E+01 0.  1.
         -5    1    3    3    0  502  0.13405944939E+03  0.76569706497E+02  0.21896655865E+02  0.15598651179E+03  0.41800000000E+01 0.  1.
        -11    1    1    2    0    0 -0.51554639559E+02 -0.13807195682E+02 -0.22390298672E+01  0.53418468411E+02  0.00000000000E+00 0. -1.
         11    1    1    2    0    0 -0.87971735185E+02 -0.11953463214E+03  0.17890735185E+03  0.23245514625E+03  0.00000000000E+00 0.  1.
</event>
<event>
 7    1  0.2688177E-009  0.1324644E+03  0.7561462E-02  0.1223844E+00
         -3   -1    0    0    0  501 -0.00000000000E+00  0.00000000000E+00  0.13332692134E+03  0.13332692134E+03  0.00000000000E+00 0.  1.
          3   -1    0    0  501    0  0.00000000000E+00 -0.00000000000E+00 -0.17022595256E+03  0.17022595256E+03  0.00000000000E+00 0. -1.
         25    2    1    2    0    0  0.43430904461E+02  0.93129100958E+02 -0.36906563762E+02  0.16603861315E+03  0.12508978256E+03 0.  0.
          5    1    3    3  502    0  0.15739182713E+02 -0.13144826015E+02 -0.51104178854E+02  0.55223344880E+02  0.41800000000E+01 0.  1.
         -5    1    3    3    0  502  0.27691721748E+02  0.10627392697E+03  0.14197615092E+02  0.11081526827E+03  0.41800000000E+01 0.  1.
        -11    1    1    2    0    0  0.25274835528E+02 -0.12594519950E+02  0.12572682847E+02  0.30911350629E+02  0.00000000000E+00 0.  1.
         11    1    1    2    0    0 -0.68705739988E+02 -0.80534581008E+02 -0.12565150306E+02  0.10660291013E+03  0.00000000000E+00 0. -1.
</event>
<event>
 7    1  0.2688177E-009  0.9803107E+02  0.7561462E-02  0.1284492E+00
         -1   -1    0    0    0  501 -0.00000000000E+00  0.00000000000E+00  0.42081479590E+02  0.42081479590E+02  0.00000000000E+00 0.  1.
          1   -1    0    0  501    0  0.00000000000E+00 -0.00000000000E+00 -0.28579359190E+03  0.28579359190E+03  0.00000000000E+00 0. -1.
         25    2    1    2    0    0 -0.13591462139E+02 -0.20009615678E+02 -0.12761677862E+03  0.18032291184E+03  0.12508076504E+03 0.  0.
          5    1    3    3  502    0 -0.43038558978E+02 -0.53571855505E+02 -0.34579756884E+02  0.77042152405E+02  0.41800000000E+01 0. -1.
         -5    1    3    3    0  502  0.29447096838E+02  0.33562239827E+02 -0.93037021740E+02  0.10328075943E+03  0.41800000000E+01 0. -1.
        -11    1    1    2    0    0 -0.29771427030E+02 -0.79023888674E+01 -0.15440545297E+02  0.34455711520E+02  0.00000000000E+00 0.  1.
         11    1    1    2    0    0  0.43362889170E+02  0.27912004545E+02 -0.10065478839E+03  0.11309644814E+03  0.00000000000E+00 0. -1.
</event>
<event>
 7    1  0.2688177E-009  0.1241269E+03  0.7561462E-02  0.1236440E+00
         -1   -1    0    0    0  501 -0.00000000000E+00  0.00000000000E+00  0.34690686194E+03  0.34690686194E+03  0.00000000000E+00 0.  1.
          1   -1    0    0  501    0  0.00000000000E+00 -0.00000000000E+00 -0.62026627321E+02  0.62026627321E+02  0.00000000000E+00 0. -1.
         25    2    1    2    0    0  0.47591300001E+02 -0.43535734518E+02  0.25703019323E+03  0.29303897729E+03  0.12508808882E+03 0.  0.
          5    1    3    3  502    0 -0.24702751934E+02  0.25632869475E+02  0.10537549995E+03  0.11130470943E+03  0.41800000000E+01 0.  1.
         -5    1    3    3    0  502  0.72294051936E+02 -0.69168603993E+02  0.15165469328E+03  0.18173426787E+03  0.41800000000E+01 0.  1.
        -11    1    1    2    0    0  0.71740895455E+01 -0.24155646733E+02  0.93681780484E+01  0.26883556123E+02  0.00000000000E+00 0. -1.
         11    1    1    2    0    0 -0.54765389547E+02  0.67691381250E+02  0.18481863341E+02  0.89010955845E+02  0.00000000000E+00 0.  1.
</event>
<event>
 7    1  0.2688177E-009  0.2593343E+03  0.7561462E-02  0.1107544E+00
         -3   -1    0    0    0  501 -0.00000000000E+00  0.00000000000E+00  0.10962342991E+03  0.10962342991E+03  0.00000000000E+00 0.  1.
          3   -1    0    0  501    0  0.00000000000E+00 -0.00000000000E+00 -0.67005269392E+03  0.67005269392E+03  0.00000000000E+00 0. -1.
         25    2    1    2    0    0 -0.18217826221E+03 -0.16158973155E+03 -0.22536500285E+03  0.35459422661E+03  0.12509004946E+03 0.  0.
          5    1    3    3  502    0 -0.20012526235E+03 -0.13509457198E+03 -0.19911178736E+03  0.31299143802E+03  0.41800000000E+01 0.  1.
         -5    1    3    3    0  502  0.17947000143E+02 -0.26495159568E+02 -0.26253215489E+02  0.41602788587E+02  0.41800000000E+01 0.  1.
        -11    1    1    2    0    0  0.17086289971E+03  0.14150406953E+03 -0.23819161176E+03  0.32550388032E+03  0.00000000000E+00 0.  1.
         11    1    1    2    0    0  0.11315362506E+02  0.20085662014E+02 -0.96872649399E+02  0.99578016895E+02  0.00000000000E+00 0. -1.
</event>
<event>
 7    1  0.3010108E-009  0.1292652E+03  0.7561462E-02  0.1228550E+00
          2   -1    0    0  501    0  0.00000000000E+00  0.00000000000E+00  0.66807687246E+03  0.66807687246E+03  0.00000000000E+00 0. -1.
         -2   -1    0    0    0  501 -0.00000000000E+00 -0.00000000000E+00 -0.45433972377E+02  0.45433972377E+02  0.00000000000E+00 0.  1.
         25    2    1    2    0    0  0.10233454235E+03 -0.25006018156E+02  0.50690197276E+03  0.53263063483E+03  0.12509246048E+03 0.  0.
          5    1    3    3  502    0  0.97223438574E+02  0.18050651748E+02  0.45115255599E+03  0.46188128801E+03  0.41800000000E+01 0.  1.
         -5    1    3    3    0  502  0.51111037752E+01 -0.43056669904E+02  0.55749416764E+02  0.70749346814E+02  0.41800000000E+01 0.  1.
        -11    1    1    2    0    0 -0.92451368371E+02  0.37170217724E+01  0.12511083786E+03  0.15560781958E+03  0.00000000000E+00 0. -1.
         11    1    1    2    0    0 -0.98831739782E+01  0.21288996384E+02 -0.93699105311E+01  0.25272390435E+02  0.00000000000E+00 0.  1.
</event>
<event>
 7    1  0.2688177E-009  0.1918756E+03  0.7561462E-02  0.1156780E+00
          2   -1    0    0  501    0  0.00000000000E+00  0.00000000000E+00  0.48766488540E+03  0.48766488540E+03  0.00000000000E+00 0. -1.
         -2   -1    0    0    0  501 -0.00000000000E+00 -0.00000000000E+00 -0.87345761933E+02  0.87345761933E+02  0.00000000000E+00 0.  1.
         25    2    1    2    0    0  0.13385949947E+03  0.11354620561E+03  0.22784133657E+03  0.31364026241E+03  0.12508970041E+03 0.  0.
          5    1    3    3  502    0  0.69406804829E+02 -0.85857328198E+01  0.40697542500E+02  0.81023340651E+02  0.41800000000E+01 0. -1.
         -5    1    3    3    0  502  0.64452694643E+02  0.12213193843E+03  0.18714379406E+03  0.23261692176E+03  0.41800000000E+01 0. -1.
        -11    1    1    2    0    0 -0.54205516233E+02 -0.46344549360E+02  0.13109794884E+03  0.14924050199E+03  0.00000000000E+00 0. -1.
         11    1    1    2    0    0 -0.79653983239E+02 -0.67201656247E+02  0.41379838063E+02  0.11212988293E+03  0.00000000000E+00 0.  1.
</event>
<event>
 7    1  0.2688177E-009  0.1968972E+03  0.7561462E-02  0.1152384E+00
          2   -1    0    0  501    0  0.00000000000E+00  0.00000000000E+00  0.51423206159E+02  0.51423206159E+02  0.00000000000E+00 0. -1.
         -2   -1    0    0    0  501 -0.00000000000E+00 -0.00000000000E+00 -0.99267336819E+03  0.99267336819E+03  0.00000000000E+00 0.  1.
         25    2    1    2    0    0  0.13055775918E+03 -0.12449859426E+03 -0.29884519394E+03  0.37081106049E+03  0.12508862532E+03 0.  0.
          5    1    3    3  502    0  0.14883815596E+03 -0.92134213952E+02 -0.27638468465E+03  0.32718110636E+03  0.41800000000E+01 0.  1.
         -5    1    3    3    0  502 -0.18280396784E+02 -0.32364380310E+02 -0.22460509291E+02  0.43629954126E+02  0.41800000000E+01 0.  1.
        -11    1    1    2    0    0 -0.63695660694E+02  0.48430409825E+02 -0.14440937209E+03  0.16509605851E+03  0.00000000000E+00 0. -1.
         11    1    1    2    0    0 -0.66862098487E+02  0.76068184437E+02 -0.49799559600E+03  0.50818945535E+03  0.00000000000E+00 0.  1.
</event>
<event>
 6    1  0.2688177E-009  0.1236601E+03  0.7561462E-02  0.1237178E+00
          2   -1    0    0  501    0  0.00000000000E+00  0.00000000000E+00  0.25262899244E+03  0.25262899244E+03  0.00000000000E+00 0. -1.
         -2   -1    0    0    0  501 -0.00000000000E+00 -0.00000000000E+00 -0.10836481059E+03  0.10836481059E+03  0.00000000000E+00 0.  1.
          5    1    1    2  502    0  0.81378908488E+02 -0.19670125482E+02 -0.39403345179E+02  0.92625787956E+02  0.41800000000E+01 0.  1.
         -5    1    1    2    0  502  0.28933688890E+02  0.39598356593E+02  0.58360395657E+02  0.76345244639E+02  0.41800000000E+01 0.  1.
        -11    1    1    2    0    0 -0.82068816236E+02 -0.47429783430E+01  0.13540308494E+03  0.15840385681E+03  0.00000000000E+00 0. -1.
         11    1    1    2    0    0 -0.28243781143E+02 -0.15185252769E+02 -0.10095953570E+02  0.33618913626E+02  0.00000000000E+00 0.  1.
</event>
<event>
 7    1  0.2688177E-009  0.6943527E+02  0.7561462E-02  0.1362024E+00
         -1   -1    0    0    0  501 -0.00000000000E+00  0.00000000000E+00  0.29997801762E+02  0.29997801762E+02  0.00000000000E+00 0. -1.
          1   -1    0    0  501    0  0.00000000000E+00 -0.00000000000E+00 -0.41980021969E+03  0.41980021969E+03  0.00000000000E+00 0.  1.
         25    2    1    2    0    0  0.34076248527E+01 -0.11179211931E+02 -0.16706650740E+03  0.20903431478E+03  0.12509012820E+03 0.  0.
          5    1    3    3  502    0 -0.17886365693E+02  0.21777693401E+02  0.79873491872E+01  0.29588175926E+02  0.41800000000E+01 0. -1.
         -5    1    3    3    0  502  0.21293990546E+02 -0.32956905333E+02 -0.17505385659E+03  0.17944613885E+03  0.41800000000E+01 0. -1.
        -11    1    1    2    0    0  0.33312793900E+02  0.55390318623E+01 -0.32273750319E+02  0.46712076287E+02  0.00000000000E+00 0. -1.
         11    1    1    2    0    0 -0.36720418753E+02  0.56401800691E+01 -0.19046216021E+03  0.19405163038E+03  0.00000000000E+00 0.  1.
</event>
<event>
 7    1  0.2688177E-009  0.9556336E+02  0.7561462E-02  0.1289912E+00
          2   -1    0    0  501    0  0.00000000000E+00  0.00000000000E+00  0.46820232055E+03  0.46820232055E+03  0.00000000000E+00 0. -1.
         -2   -1    0    0    0  501 -0.00000000000E+00 -0.00000000000E+00 -0.43966963259E+02  0.43966963259E+02  0.00000000000E+00 0.  1.
         25    2    1    2    0    0  0.90118153330E+02 -0.24296274003E+02  0.26247472958E+03  0.30537084464E+03  0.12508708406E+03 0.  0.
          5    1    3    3  502    0  0.79102994728E+02 -0.16964981860E+02  0.27499624831E+03  0.28668014121E+03  0.41800000000E+01 0.  1.
         -5    1    3    3    0  502  0.11015158602E+02 -0.73312921428E+01 -0.12521518723E+02  0.18690703428E+02  0.41800000000E+01 0.  1.
        -11    1    1    2    0    0 -0.90781105141E+01  0.10759852945E+02 -0.94076266545E+01  0.16931921485E+02  0.00000000000E+00 0.  1.
         11    1    1    2    0    0 -0.81040042816E+02  0.13536421058E+02  0.17116825437E+03  0.18986651769E+03  0.00000000000E+00 0. -1.
</event>
<event>
 7    1  0.2688177E-009  0.9890665E+02  0.7561462E-02  0.1282612E+00
          2   -1    0    0  501    0  0.00000000000E+00  0.00000000000E+00  0.81654675053E+03  0.81654675053E+03  0.00000000000E+00 0. -1.
         -2   -1    0    0    0  501 -0.00000000000E+00 -0.00000000000E+00 -0.19306606955E+02  0.19306606955E+02  0.00000000000E+00 0.  1.
         25    2    1    2    0    0 -0.10710152273E+02  0.41145483367E+02  0.59128383489E+03  0.60586450983E+03  0.12509025825E+03 0.  0.
          5    1    3    3  502    0  0.45807581640E+02  0.53964364110E+02  0.38861664121E+03  0.39503272441E+03  0.41800000000E+01 0. -1.
         -5    1    3    3    0  502 -0.56517733913E+02 -0.12818880743E+02  0.20266719368E+03  0.21083178542E+03  0.41800000000E+01 0. -1.
        -11    1    1    2    0    0 -0.14995443536E+02 -0.40390973666E+02  0.19862988679E+03  0.20324892621E+03  0.00000000000E+00 0. -1.
         11    1    1    2    0    0  0.25705595810E+02 -0.75450970034E+00  0.73264218938E+01  0.26739921439E+02  0.00000000000E+00 0.  1.
</event>
<event>
 7    1  0.2688177E-009  0.1037384E+03  0.7561462E-02  0.1272625E+00
         -2   -1    0    0    0  501 -0.00000000000E+00  0.00000000000E+00  0.31366734448E+03  0.31366734448E+03  0.00000000000E+00 0.  1.
          2   -1    0    0  501    0  0.00000000000E+00 -0.00000000000E+00 -0.56270203377E+02  0.56270203377E+02  0.00000000000E+00 0. -1.
         25    2    1    2    0    0  0.23798193372E+02 -0.58309655375E+02  0.82233261645E+02  0.16240689266E+03  0.12508924632E+03 0.  0.
          5    1    3    3  502    0 -0.35386489238E+02 -0.22049453639E+02  0.82878214417E+02  0.92869009100E+02  0.41800000000E+01 0. -1.
         -5    1    3    3    0  502  0.59184682610E+02 -0.36260201735E+02 -0.64495277210E+00  0.69537883557E+02  0.41800000000E+01 0. -1.
        -11    1    1    2    0    0 -0.49690831334E+02  0.31871871367E+02  0.51141879276E+02  0.78105612596E+02  0.00000000000E+00 0. -1.
         11    1    1    2    0    0  0.25892637962E+02  0.26437784008E+02  0.12402200018E+03  0.12942504261E+03  0.00000000000E+00 0.  1.
</event>
<event>
 7    1  0.2688177E-009  0.1280270E+03  0.7561462E-02  0.1230413E+00
         -1   -1    0    0    0  501 -0.00000000000E+00  0.00000000000E+00  0.49612011838E+02  0.49612011838E+02  0.00000000000E+00 0.  1.
          1   -1    0    0  501    0  0.00000000000E+00 -0.00000000000E+00 -0.40484051493E+03  0.40484051493E+03  0.00000000000E+00 0. -1.
         25    2    1    2    0    0  0.27907631644E+02  0.86571716268E+02 -0.18256362440E+03  0.23925829337E+03  0.12506620658E+03 0.  0.
          5    1    3    3  502    0 -0.19082874454E+02 -0.87952347107E+01 -0.10608376058E+03  0.10822545408E+03  0.41800000000E+01 0.  1.
         -5    1    3    3    0  502  0.46990506098E+02  0.95366950979E+02 -0.76479863821E+02  0.13103283929E+03  0.41800000000E+01 0.  1.
        -11    1    1    2    0    0  0.31417211610E+02 -0.13722172117E+02 -0.40949587772E+02  0.53406066432E+02  0.00000000000E+00 0.  1.
         11    1    1    2    0    0 -0.59324843254E+02 -0.72849544151E+02 -0.13171529092E+03  0.16178816697E+03  0.00000000000E+00 0. -1.
</event>
<event>
 7    1  0.2688177E-009  0.6611508E+02  0.7561462E-02  0.1373825E+00
          2   -1    0    0  501    0  0.00000000000E+00  0.00000000000E+00  0.90287009672E+03  0.90287009672E+03  0.00000000000E+00 0. -1.
         -2   -1    0    0    0  501 -0.00000000000E+00 -0.00000000000E+00 -0.19884236190E+02  0.19884236190E+02  0.00000000000E+00 0.  1.
         25    2    1    2    0    0 -0.30008511296E+01 -0.11605410159E+02  0.74949448444E+03  0.75995671010E+03  0.12509407806E+03 0.  0.
          5    1    3    3  502    0 -0.20141079150E+02 -0.98126032907E+01  0.20222651196E+02  0.30469300518E+02  0.41800000000E+01 0.  1.
         -5    1    3    3    0  502  0.17140228021E+02 -0.17928068683E+01  0.72927183324E+03  0.72948740958E+03  0.41800000000E+01 0.  1.
        -11    1    1    2    0    0 -0.35877078891E+02  0.31759268301E+02  0.84075318278E+02  0.96770217817E+02  0.00000000000E+00 0. -1.
         11    1    1    2    0    0  0.38877930021E+02 -0.20153858142E+02  0.49416057813E+02  0.66027404996E+02  0.00000000000E+00 0.  1.
</event>
<event>
 7    1  0.2688177E-009  0.1185896E+03  0.7561462E-02  0.1245442E+00
          2   -1    0    0  501    0  0.00000000000E+00  0.00000000000E+00  0.14298835034E+03  0.14298835034E+03  0.00000000000E+00 0. -1.
         -2   -1    0    0    0  501 -0.00000000000E+00 -0.00000000000E+00 -0.11069411862E+03  0.11069411862E+03  0.00000000000E+00 0.  1.
         25    2    1    2    0    0 -0.63145015132E+02 -0.58791168779E+01  0.35553151142E+02  0.14468520896E+03  0.12509167113E+03 0.  0.
          5    1    3    3  502    0 -0.57556196549E+02  0.52911271514E+02  0.34278880189E+02  0.85468312499E+02  0.41800000000E+01 0. -1.
         -5    1    3    3    0  502 -0.55888185833E+01 -0.58790388392E+02  0.12742709525E+01  0.59216896464E+02  0.41800000000E+01 0. -1.
        -11    1    1    2    0    0  0.24098945739E+02  0.40743381019E+02 -0.23530915760E+02  0.52862900782E+02  0.00000000000E+00 0.  1.
         11    1    1    2    0    0  0.39046069393E+02 -0.34864264142E+02  0.20271996335E+02  0.56134359216E+02  0.00000000000E+00 0. -1.
</event>
<event>
 7    1  0.2688177E-009  0.9709694E+02  0.7561462E-02  0.1286522E+00
          2   -1    0    0  501    0  0.00000000000E+00  0.00000000000E+00  0.34496709706E+03  0.34496709706E+03  0.00000000000E+00 0. -1.
         -2   -1    0    0    0  501 -0.00000000000E+00 -0.00000000000E+00 -0.61699832882E+02  0.61699832882E+02  0.00000000000E+00 0.  1.
         25    2    1    2    0    0  0.43801247839E+02  0.15517182927E+02  0.34531071649E+02  0.13784638881E+03  0.12509955923E+03 0.  0.
          5    1    3    3  502    0 -0.15187536600E+02  0.42406106768E+02  0.53604287189E+02  0.70141508141E+02  0.41800000000E+01 0. -1.
         -5    1    3    3    0  502  0.58988784439E+02 -0.26888923842E+02 -0.19073215540E+02  0.67704880666E+02  0.41800000000E+01 0. -1.
        -11    1    1    2    0    0 -0.63082490911E+02 -0.14243565718E+02  0.23817655184E+03  0.24680022219E+03  0.00000000000E+00 0. -1.
         11    1    1    2    0    0  0.19281243072E+02 -0.12736172083E+01  0.10559640687E+02  0.22020318950E+02  0.00000000000E+00 0.  1.
</event>
<event>
 7    1  0.2688177E-009  0.9538328E+02  0.7561462E-02  0.1290315E+00
         -2   -1    0    0    0  501 -0.00000000000E+00  0.00000000000E+00  0.20461367544E+02  0.20461367544E+02  0.00000000000E+00 0. -1.
          2   -1    0    0  501    0  0.00000000000E+00 -0.00000000000E+00 -0.78347157099E+03  0.78347157099E+03  0.00000000000E+00 0.  1.
         25    2    1    2    0    0  0.83932106898E+01 -0.62546630586E+02 -0.37050790207E+03  0.39611561388E+03  0.12509575162E+03 0.  0.
          5    1    3    3  502    0 -0.15819863537E+02 -0.59590160306E+02 -0.65294556012E+02  0.89900537999E+02  0.41800000000E+01 0.  1.
         -5    1    3    3    0  502  0.24213074227E+02 -0.29564702800E+01 -0.30521334606E+03  0.30621507588E+03  0.41800000000E+01 0.  1.
        -11    1    1    2    0    0 -0.45472882911E+02  0.41624104380E+02 -0.16032318374E+03  0.17176691296E+03  0.00000000000E+00 0.  1.
         11    1    1    2    0    0  0.37079672221E+02  0.20922526206E+02 -0.23217911763E+03  0.23605041169E+03  0.00000000000E+00 0. -1.
</event>
<event>
 7    1  0.2688177E-009  0.1616823E+03  0.7561462E-02  0.1186810E+00
          1   -1    0    0  501    0  0.00000000000E+00  0.00000000000E+00  0.21231591977E+03  0.21231591977E+03  0.00000000000E+00 0. -1.
         -1   -1    0    0    0  501 -0.00000000000E+00 -0.00000000000E+00 -0.15304833641E+03  0.15304833641E+03  0.00000000000E+00 0.  1.
         25    2    1    2    0    0  0.82725691199E+02  0.10356976133E+03  0.86455647214E+02  0.20172642022E+03  0.12509490091E+03 0.  0.
          5    1    3    3  502    0 -0.11134585721E+01  0.72290425853E+02 -0.64012606371E+01  0.72702090738E+02  0.41800000000E+01 0. -1.
         -5    1    3    3    0  502  0.83839149771E+02  0.31279335479E+02  0.92856907851E+02  0.12902432948E+03  0.41800000000E+01 0. -1.
        -11    1    1    2    0    0  0.15700619588E+02 -0.43039419895E+02 -0.75870917922E+01  0.46437754922E+02  0.00000000000E+00 0.  1.
         11    1    1    2    0    0 -0.98426310787E+02 -0.60530341437E+02 -0.19600972063E+02  0.11720008104E+03  0.00000000000E+00 0. -1.
</event>
<event>
 7    1  0.2688177E-009  0.9726573E+02  0.7561462E-02  0.1286153E+00
          1   -1    0    0  501    0  0.00000000000E+00  0.00000000000E+00  0.52574730171E+03  0.52574730171E+03  0.00000000000E+00 0. -1.
         -1   -1    0    0    0  501 -0.00000000000E+00 -0.00000000000E+00 -0.28845717200E+02  0.28845717200E+02  0.00000000000E+00 0.  1.
         25    2    1    2    0    0  0.17371055976E+02 -0.45592134893E+02  0.20081448184E+03  0.24156426814E+03  0.12508574330E+03 0.  0.
          5    1    3    3  502    0 -0.35136908742E+02 -0.42491519306E+02  0.17360097700E+03  0.18219468484E+03  0.41800000000E+01 0. -1.
         -5    1    3    3    0  502  0.52507964718E+02 -0.31006155872E+01  0.27213504837E+02  0.59369583301E+02  0.41800000000E+01 0. -1.
        -11    1    1    2    0    0  0.13711667681E+02  0.52809830298E+02  0.25621535884E+03  0.26196029873E+03  0.00000000000E+00 0. -1.
         11    1    1    2    0    0 -0.31082723657E+02 -0.72176954047E+01  0.39871743828E+02  0.51068452030E+02  0.00000000000E+00 0.  1.
</event>
<event>
 7    1  0.2688177E-009  0.1055637E+03  0.7561462E-02  0.1269013E+00
          1   -1    0    0  501    0  0.00000000000E+00  0.00000000000E+00  0.75995256119E+03  0.75995256119E+03  0.00000000000E+00 0. -1.
         -1   -1    0    0    0  501 -0.00000000000E+00 -0.00000000000E+00 -0.21654009953E+02  0.21654009953E+02  0.00000000000E+00 0.  1.
         25    2    1    2    0    0  0.15600225786E+02  0.40167460821E+02  0.56263634806E+03  0.57798229635E+03  0.12508829996E+03 0.  0.
          5    1    3    3  502    0 -0.52705994053E+02  0.10367111986E+02  0.30619476486E+03  0.31089886659E+03  0.41800000000E+01 0.  1.
         -5    1    3    3    0  502  0.68306219839E+02  0.29800348835E+02  0.25644158320E+03  0.26708342977E+03  0.41800000000E+01 0.  1.
        -11    1    1    2    0    0  0.28015302550E+02 -0.10789274656E+02  0.13076019220E+02  0.32745196643E+02  0.00000000000E+00 0.  1.
         11    1    1    2    0    0 -0.43615528336E+02 -0.29378186166E+02  0.16258618395E+03  0.17087907814E+03  0.00000000000E+00 0. -1.
</event>
<event>
 7    1  0.2688177E-009  0.2123049E+03  0.7561462E-02  0.1139754E+00
          2   -1    0    0  501    0  0.00000000000E+00  0.00000000000E+00  0.12875875301E+04  0.12875875301E+04  0.00000000000E+00 0. -1.
         -2   -1    0    0    0  501 -0.00000000000E+00 -0.00000000000E+00 -0.41796602185E+02  0.41796602185E+02  0.00000000000E+00 0.  1.
         25    2    1    2    0    0  0.12509845252E+03 -0.16169048020E+03  0.66617563151E+03  0.70797541832E+03  0.12508311922E+03 0.  0.
          5    1    3    3  502    0  0.10669630467E+03 -0.11850695364E+03  0.30939583239E+03  0.34809661445E+03  0.41800000000E+01 0.  1.
         -5    1    3    3    0  502  0.18402147846E+02 -0.43183526562E+02  0.35677979913E+03  0.35987880387E+03  0.41800000000E+01 0.  1.
        -11    1    1    2    0    0 -0.35835659720E+02  0.30853438026E+01  0.51531347746E+02  0.62842610182E+02  0.00000000000E+00 0.  1.
         11    1    1    2    0    0 -0.89262792797E+02  0.15860513640E+03  0.52808394871E+03  0.55856610383E+03  0.00000000000E+00 0. -1.
</event>
<event>
 7    1  0.2688177E-009  0.8073694E+02  0.7561462E-02  0.1326973E+00
          2   -1    0    0  501    0  0.00000000000E+00  0.00000000000E+00  0.10510548703E+03  0.10510548703E+03  0.00000000000E+00 0. -1.
         -2   -1    0    0    0  501 -0.00000000000E+00 -0.00000000000E+00 -0.12534219876E+03  0.12534219876E+03  0.00000000000E+00 0.  1.
         25    2    1    2    0    0 -0.10511013472E+02  0.31670637663E+02 -0.29576602992E+02  0.13279361753E+03  0.12508340705E+03 0.  0.
          5    1    3    3  502    0  0.13481681847E+02 -0.42792273155E+02  0.82277009777E+01  0.45805041759E+02  0.41800000000E+01 0. -1.
         -5    1    3    3    0  502 -0.23992695319E+02  0.74462910818E+02 -0.37804303969E+02  0.86988575772E+02  0.41800000000E+01 0. -1.
        -11    1    1    2    0    0  0.10712152263E+02 -0.57686219722E+01  0.48887446472E+02  0.50378662429E+02  0.00000000000E+00 0. -1.
         11    1    1    2    0    0 -0.20113879057E+00 -0.25902015691E+02 -0.39547555212E+02  0.47275405835E+02  0.00000000000E+00 0.  1.
</event>
<event>
 7    1  0.2688177E-009  0.1144853E+03  0.7561462E-02  0.1252482E+00
         -2   -1    0    0    0  501 -0.00000000000E+00  0.00000000000E+00  0.15351153939E+03  0.15351153939E+03  0.00000000000E+00 0. -1.
          2   -1    0    0  501    0  0.00000000000E+00 -0.00000000000E+00 -0.18240519205E+03  0.18240519205E+03  0.00000000000E+00 0.  1.
         25    2    1    2    0    0  0.99263488514E+01  0.76848558645E+02  0.85651262434E+02  0.17025939768E+03  0.12509152798E+03 0.  0.
          5    1    3    3  502    0 -0.27955309462E+02  0.63279665817E+02  0.10468714106E+03  0.12554953339E+03  0.41800000000E+01 0.  1.
         -5    1    3    3    0  502  0.37881658314E+02  0.13568892828E+02 -0.19035878623E+02  0.44709864282E+02  0.41800000000E+01 0.  1.
        -11    1    1    2    0    0  0.13868257511E+02 -0.90648438340E+02 -0.94024947377E+02  0.13133985941E+03  0.00000000000E+00 0.  1.
         11    1    1    2    0    0 -0.23794606362E+02  0.13799879695E+02 -0.20519967716E+02  0.34317474362E+02  0.00000000000E+00 0. -1.
</event>
<event>
 7    1  0.2688177E-009  0.7281578E+02  0.7561462E-02  0.1350771E+00
         -2   -1    0    0    0  501 -0.00000000000E+00  0.00000000000E+00  0.22736464803E+02  0.22736464803E+02  0.00000000000E+00 0.  1.
          2   -1    0    0  501    0  0.00000000000E+00 -0.00000000000E+00 -0.63877413890E+03  0.63877413890E+03  0.00000000000E+00 0. -1.
         25    2    1    2    0    0 -0.49884852233E+02  0.10549963723E+02 -0.39227357379E+03  0.41488027807E+03  0.12508912112E+03 0.  0.
          5    1    3    3  502    0 -0.46113084270E+02 -0.68518735087E+01 -0.38422405034E+02  0.60556736372E+02  0.41800000000E+01 0.  1.
         -5    1    3    3    0  502 -0.37717679630E+01  0.17401837231E+02 -0.35385116875E+03  0.35432354170E+03  0.41800000000E+01 0.  1.
        -11    1    1    2    0    0  0.20012527351E+02 -0.36067632636E+02 -0.19120890215E+03  0.19560730977E+03  0.00000000000E+00 0. -1.
         11    1    1    2    0    0  0.29872324882E+02  0.25517668913E+02 -0.32555198166E+02  0.51023015867E+02  0.00000000000E+00 0.  1.
</event>
<event>
 7    1  0.2688177E-009  0.1279306E+03  0.7561462E-02  0.1230559E+00
         -2   -1    0    0    0  501 -0.00000000000E+00  0.00000000000E+00  0.28370589969E+03  0.28370589969E+03  0.00000000000E+00 0.  1.
          2   -1    0    0  501    0  0.00000000000E+00 -0.00000000000E+00 -0.99984410842E+02  0.99984410842E+02  0.00000000000E+00 0. -1.
         25    2    1    2    0    0 -0.92892986026E+02 -0.71182288076E+02  0.15833185032E+03  0.23326641581E+03  0.12509284925E+03 0.  0.
          5    1    3    3  502    0 -0.93871724345E+02 -0.39929319007E+02  0.17109036015E+03  0.19923763421E+03  0.41800000000E+01 0. -1.
         -5    1    3    3    0  502  0.97873831976E+00 -0.31252969070E+02 -0.12758509833E+02  0.34028781605E+02  0.41800000000E+01 0. -1.
        -11    1    1    2    0    0  0.64595727890E+02  0.67921792417E+02 -0.20934545706E+02  0.96042871420E+02  0.00000000000E+00 0. -1.
         11    1    1    2    0    0  0.28297258136E+02  0.32604956595E+01  0.46324184238E+02  0.54381023301E+02  0.00000000000E+00 0.  1.
</event>
<event>
 7    1  0.2688177E-009  0.8663935E+02  0.7561462E-02  0.1311200E+00
         -2   -1    0    0    0  501 -0.00000000000E+00  0.00000000000E+00  0.13943333088E+02  0.13943333088E+02  0.00000000000E+00 0.  1.
          2   -1    0    0  501    0  0.00000000000E+00 -0.00000000000E+00 -0.10875509332E+04  0.10875509332E+04  0.00000000000E+00 0. -1.
         25    2    1    2    0    0 -0.12732366578E+02 -0.55192011135E+01 -0.82929536699E+03  0.83879130348E+03  0.12508984905E+03 0.  0.
          5    1    3    3  502    0  0.25955194112E+02 -0.22170871061E+02 -0.66897674344E+02  0.75219617506E+02  0.41800000000E+01 0.  1.
         -5    1    3    3    0  502 -0.38687560690E+02  0.16651669947E+02 -0.76239769264E+03  0.76357168597E+03  0.41800000000E+01 0.  1.
        -11    1    1    2    0    0  0.41923590675E+01 -0.45066481983E+02 -0.11482652832E+03  0.12342485681E+03  0.00000000000E+00 0. -1.
         11    1    1    2    0    0  0.85400075108E+01  0.50585683097E+02 -0.12948570478E+03  0.13927810598E+03  0.00000000000E+00 0.  1.
</event>
<event>
 7    1  0.2688177E-009  0.1042434E+03  0.7561462E-02  0.1271617E+00
          2   -1    0    0  501    0  0.00000000000E+00  0.00000000000E+00  0.91317679759E+02  0.91317679759E+02  0.00000000000E+00 0. -1.
         -2   -1    0    0    0  501 -0.00000000000E+00 -0.00000000000E+00 -0.14969189519E+03  0.14969189519E+03  0.00000000000E+00 0.  1.
         25    2    1    2    0    0 -0.46141992858E+02  0.11460014585E+02 -0.36485060416E+02  0.13870663045E+03  0.12509178333E+03 0.  0.
          5    1    3    3  502    0  0.30384322205E+02 -0.33135499461E+02 -0.12249785582E+02  0.46783522817E+02  0.41800000000E+01 0.  1.
         -5    1    3    3    0  502 -0.76526315063E+02  0.44595514046E+02 -0.24235274834E+02  0.91923107631E+02  0.41800000000E+01 0.  1.
        -11    1    1    2    0    0  0.39671097269E+02 -0.33357185801E+02 -0.45853113996E+02  0.69202643491E+02  0.00000000000E+00 0.  1.
         11    1    1    2    0    0  0.64708955892E+01  0.21897171215E+02  0.23963958980E+02  0.33100301010E+02  0.00000000000E+00 0. -1.
</event>
<event>
 7    1  0.2688177E-009  0.2412162E+03  0.7561462E-02  0.1118985E+00
         -2   -1    0    0    0  501 -0.00000000000E+00  0.00000000000E+00  0.13064268216E+03  0.13064268216E+03  0.00000000000E+00 0. -1.
          2   -1    0    0  501    0  0.00000000000E+00 -0.00000000000E+00 -0.57958870136E+03  0.57958870136E+03  0.00000000000E+00 0.  1.
         25    2    1    2    0    0 -0.43507542000E+02 -0.21894784634E+03 -0.38280548050E+03  0.46045403361E+03  0.12508723170E+03 0.  0.
          5    1    3    3  502    0 -0.79952543491E+01 -0.21989725960E+03 -0.33185880279E+03  0.39820405103E+03  0.41800000000E+01 0.  1.
         -5    1    3    3    0  502 -0.35512287651E+02  0.94941326786E+00 -0.50946677717E+02  0.62249982572E+02  0.41800000000E+01 0.  1.
        -11    1    1    2    0    0  0.19723527359E+02  0.28537720112E+02 -0.44864093826E+02  0.56711603006E+02  0.00000000000E+00 0.  1.
         11    1    1    2    0    0  0.23784014641E+02  0.19041012622E+03 -0.21276444872E+02  0.19306574690E+03  0.00000000000E+00 0. -1.
</event>
<event>
 7    1  0.2688177E-009  0.1138971E+03  0.7561462E-02  0.1253519E+00
          4   -1    0    0  501    0  0.00000000000E+00  0.00000000000E+00  0.48973014553E+03  0.48973014553E+03  0.00000000000E+00 0. -1.
         -4   -1    0    0    0  501 -0.00000000000E+00 -0.00000000000E+00 -0.27923659312E+02  0.27923659312E+02  0.00000000000E+00 0.  1.
         25    2    1    2    0    0  0.39438165118E+02  0.12537613242E+02  0.23408164287E+03  0.26861548857E+03  0.12508998585E+03 0.  0.
          5    1    3    3  502    0  0.46949836857E+02  0.61430969937E+02  0.10615419396E+03  0.13139344178E+03  0.41800000000E+01 0. -1.
         -5    1    3    3    0  502 -0.75116717396E+01 -0.48893356695E+02  0.12792744891E+03  0.13722204679E+03  0.41800000000E+01 0. -1.
        -11    1    1    2    0    0  0.26837828742E+02 -0.20768260900E+02  0.81591870469E+02  0.88367545168E+02  0.00000000000E+00 0. -1.
         11    1    1    2    0    0 -0.66275993859E+02  0.82306476579E+01  0.14613297288E+03  0.16067077110E+03  0.00000000000E+00 0.  1.
</event>
<event>
 7    1  0.2688177E-009  0.9108366E+02  0.7561462E-02  0.1300248E+00
         -2   -1    0    0    0  501 -0.00000000000E+00  0.00000000000E+00  0.25942806557E+02  0.25942806557E+02  0.00000000000E+00 0.  1.
          2   -1    0    0  501    0  0.00000000000E+00 -0.00000000000E+00 -0.46011428216E+03  0.46011428216E+03  0.00000000000E+00 0. -1.
         25    2    1    2    0    0 -0.24942249346E+01 -0.61563282717E+01 -0.21784500419E+03  0.25129982700E+03  0.12510409932E+03 0.  0.
          5    1    3    3  502    0 -0.13150180769E+02 -0.59820000795E+02 -0.67435701369E+02  0.91194330791E+02  0.41800000000E+01 0.  1.
         -5    1    3    3    0  502  0.10655955835E+02  0.53663672523E+02 -0.15040930282E+03  0.16010549621E+03  0.41800000000E+01 0.  1.
        -11    1    1    2    0    0 -0.25802219260E+02  0.21617124496E+02 -0.19048223533E+03  0.19343354561E+03  0.00000000000E+00 0. -1.
         11    1    1    2    0    0  0.28296444195E+02 -0.15460796224E+02 -0.25844236090E+02  0.41323716109E+02  0.00000000000E+00 0.  1.
</event>
<event>
 7    1  0.2688177E-009  0.2263315E+03  0.7561462E-02  0.1129249E+00
          2   -1    0    0  501    0  0.00000000000E+00  0.00000000000E+00  0.32774851625E+03  0.32774851625E+03  0.00000000000E+00 0. -1.
         -2   -1    0    0    0  501 -0.00000000000E+00 -0.00000000000E+00 -0.17161290951E+03  0.17161290951E+03  0.00000000000E+00 0.  1.
         25    2    1    2    0    0  0.12403343656E+03 -0.15928580093E+03  0.18672038532E+02  0.23822756871E+03  0.12508984653E+03 0.  0.
          5    1    3    3  502    0  0.11500860194E+03 -0.17808306882E+03  0.29979435308E+02  0.21414200163E+03  0.41800000000E+01 0. -1.
         -5    1    3    3    0  502  0.90248346178E+01  0.18797267883E+02 -0.11307396776E+02  0.24085567080E+02  0.41800000000E+01 0. -1.
        -11    1    1    2    0    0 -0.66196954435E+02  0.20964511425E+02  0.62895099020E+02  0.93687464457E+02  0.00000000000E+00 0. -1.
         11    1    1    2    0    0 -0.57836482126E+02  0.13832128951E+03  0.74568469191E+02  0.16744639260E+03  0.00000000000E+00 0.  1.
</event>
<event>
 7    1  0.2688177E-009  0.1047939E+03  0.7561462E-02  0.1270526E+00
         -1   -1    0    0    0  501 -0.00000000000E+00  0.00000000000E+00  0.28166495945E+02  0.28166495945E+02  0.00000000000E+00 0.  1.
          1   -1    0    0  501    0  0.00000000000E+00 -0.00000000000E+00 -0.72578832416E+03  0.72578832416E+03  0.00000000000E+00 0. -1.
         25    2    1    2    0    0  0.66822914269E+02 -0.23430745171E+02 -0.53253127779E+03  0.55158982570E+03  0.12508985689E+03 0.  0.
          5    1    3    3  502    0 -0.24497172739E+01 -0.56015686650E+02 -0.12721040657E+03  0.13908169615E+03  0.41800000000E+01 0. -1.
         -5    1    3    3    0  502  0.69272631543E+02  0.32584941479E+02 -0.40532087122E+03  0.41250812954E+03  0.41800000000E+01 0. -1.
        -11    1    1    2    0    0 -0.49277018863E+01  0.13032074719E+02  0.94819171407E+01  0.16853010711E+02  0.00000000000E+00 0.  1.
         11    1    1    2    0    0 -0.61895212382E+02  0.10398670452E+02 -0.17457246756E+03  0.18551198369E+03  0.00000000000E+00 0. -1.
</event>
<event>
 7    1  0.2688177E-009  0.1037742E+03  0.7561462E-02  0.1272554E+00
         -3   -1    0    0    0  501 -0.00000000000E+00  0.00000000000E+00  0.20089766126E+02  0.20089766126E+02  0.00000000000E+00 0.  1.
          3   -1    0    0  501    0  0.00000000000E+00 -0.00000000000E+00 -0.65447676411E+03  0.65447676411E+03  0.00000000000E+00 0. -1.
         25    2    1    2    0    0 -0.23222764883E+02 -0.29044573983E+00 -0.27839246773E+03  0.30608704476E+03  0.12509009438E+03 0.  0.
          5    1    3    3  502    0 -0.22944233395E+02  0.58946625049E+02 -0.10332377781E+03  0.12122053420E+03  0.41800000000E+01 0.  1.
         -5    1    3    3    0  502 -0.27853148801E+00 -0.59237070789E+02 -0.17506868993E+03  0.18486651056E+03  0.41800000000E+01 0.  1.
        -11    1    1    2    0    0 -0.29721909589E+02 -0.89187452349E+01 -0.59007012921E+02  0.66669059541E+02  0.00000000000E+00 0.  1.
         11    1    1    2    0    0  0.52944674472E+02  0.92091909747E+01 -0.29698751733E+03  0.30181042593E+03  0.00000000000E+00 0. -1.
</event>
<event>
 7    1  0.2688177E-009  0.2998452E+03  0.7561462E-02  0.1085318E+00
         -1   -1    0    0    0  501 -0.00000000000E+00  0.00000000000E+00  0.12321800438E+03  0.12321800438E+03  0.00000000000E+00 0.  1.
          1   -1    0    0  501    0  0.00000000000E+00 -0.00000000000E+00 -0.79871522914E+03  0.79871522914E+03  0.00000000000E+00 0. -1.
         25    2    1    2    0    0  0.21975812680E+03  0.19518729248E+03 -0.36149883912E+03  0.48241093169E+03  0.12508870006E+03 0.  0.
          5    1    3    3  502    0  0.18794214136E+03  0.13678926420E+03 -0.19629152021E+03  0.30427189256E+03  0.41800000000E+01 0. -1.
         -5    1    3    3    0  502  0.31815985446E+02  0.58398028284E+02 -0.16520731892E+03  0.17813903913E+03  0.41800000000E+01 0. -1.
        -11    1    1    2    0    0 -0.16149572348E+03 -0.17683902628E+03 -0.20808719639E+03  0.31725887099E+03  0.00000000000E+00 0.  1.
         11    1    1    2    0    0 -0.58262403325E+02 -0.18348266202E+02 -0.10591118925E+03  0.12226343085E+03  0.00000000000E+00 0. -1.
</event>
<event>
 7    1  0.2688177E-009  0.1458728E+03  0.7561462E-02  0.1205638E+00
          2   -1    0    0  501    0  0.00000000000E+00  0.00000000000E+00  0.82210751663E+03  0.82210751663E+03  0.00000000000E+00 0. -1.
         -2   -1    0    0    0  501 -0.00000000000E+00 -0.00000000000E+00 -0.31006660852E+02  0.31006660852E+02  0.00000000000E+00 0.  1.
         25    2    1    2    0    0  0.10816321976E+02 -0.10210072091E+03  0.57432463823E+03  0.59668906140E+03  0.12508995118E+03 0.  0.
          5    1    3    3  502    0 -0.49411519144E+02 -0.90345977403E+01  0.15850603257E+03  0.16632725857E+03  0.41800000000E+01 0. -1.
         -5    1    3    3    0  502  0.60227841119E+02 -0.93066123171E+02  0.41581860566E+03  0.43036180283E+03  0.41800000000E+01 0. -1.
        -11    1    1    2    0    0 -0.41484710091E+02  0.27560254650E+02  0.12340206898E+03  0.13307373684E+03  0.00000000000E+00 0.  1.
         11    1    1    2    0    0  0.30668388115E+02  0.74540466261E+02  0.93374148570E+02  0.12335137924E+03  0.00000000000E+00 0. -1.
</event>
<event>
 7    1  0.3613616E-009  0.1350809E+03  0.7561462E-02  0.1220105E+00
         -2   -1    0    0    0  501 -0.00000000000E+00  0.00000000000E+00  0.65553878727E+02  0.65553878727E+02  0.00000000000E+00 0. -1.
          2   -1    0    0  501    0  0.00000000000E+00 -0.00000000000E+00 -0.36606125854E+03  0.36606125854E+03  0.00000000000E+00 0.  1.
         25    2    1    2    0    0 -0.94930883046E+02 -0.49544387660E+02 -0.12704334013E+03  0.20797477402E+03  0.12508787892E+03 0.  0.
          5    1    3    3  502    0 -0.72915423638E+02  0.31078291794E+02 -0.76379048376E+02  0.11015330524E+03  0.41800000000E+01 0.  1.
         -5    1    3    3    0  502 -0.22015459408E+02 -0.80622679454E+02 -0.50664291757E+02  0.97821468781E+02  0.41800000000E+01 0.  1.
        -11    1    1    2    0    0  0.61509797026E+02  0.30763861577E+02 -0.29806022791E+02  0.74955115262E+02  0.00000000000E+00 0. -1.
         11    1    1    2    0    0  0.33421086020E+02  0.18780526083E+02 -0.14365801689E+03  0.14868524798E+03  0.00000000000E+00 0.  1.
</event>
<event>
 7    1  0.2688177E-009  0.1889822E+03  0.7561462E-02  0.1159383E+00
          2   -1    0    0  501    0  0.00000000000E+00  0.00000000000E+00  0.18894943999E+04  0.18894943999E+04  0.00000000000E+00 0. -1.
         -2   -1    0    0    0  501 -0.00000000000E+00 -0.00000000000E+00 -0.21888040525E+02  0.21888040525E+02  0.00000000000E+00 0.  1.
         25    2    1    2    0    0 -0.10700449452E+03  0.12715367031E+03  0.11693060774E+04  0.11876633575E+04  0.12509808312E+03 0.  0.
          5    1    3    3  502    0 -0.11411305223E+03  0.14713686817E+03  0.10336521077E+04  0.10502976715E+04  0.41800000000E+01 0.  1.
         -5    1    3    3    0  502  0.71085577118E+01 -0.19983197858E+02  0.13565396976E+03  0.13736568604E+03  0.41800000000E+01 0.  1.
        -11    1    1    2    0    0  0.32103922565E+02 -0.15503174597E+02  0.48718660372E+02  0.60369844584E+02  0.00000000000E+00 0.  1.
         11    1    1    2    0    0  0.74900571957E+02 -0.11165049571E+03  0.64958162155E+03  0.66334923828E+03  0.00000000000E+00 0. -1.
</event>
<event>
 7    1  0.2688177E-009  0.1072161E+03  0.7561462E-02  0.1265814E+00
          2   -1    0    0  501    0  0.00000000000E+00  0.00000000000E+00  0.44030600782E+03  0.44030600782E+03  0.00000000000E+00 0. -1.
         -2   -1    0    0    0  501 -0.00000000000E+00 -0.00000000000E+00 -0.44643078603E+02  0.44643078603E+02  0.00000000000E+00 0.  1.
         25    2    1    2    0    0  0.15049481310E+02 -0.14216584179E+02  0.66322265616E+02  0.14308422031E+03  0.12508338431E+03 0.  0.
          5    1    3    3  502    0 -0.89576621319E+00  0.54427960125E+02  0.40245293523E+02  0.67825963253E+02  0.41800000000E+01 0. -1.
         -5    1    3    3    0  502  0.15945247523E+02 -0.68644544304E+02  0.26076972093E+02  0.75258257054E+02  0.41800000000E+01 0. -1.
        -11    1    1    2    0    0 -0.49237780104E+02  0.22389192917E+02  0.23614357263E+03  0.24225899745E+03  0.00000000000E+00 0. -1.
         11    1    1    2    0    0  0.34188298794E+02 -0.81726087381E+01  0.93197090963E+02  0.99605868663E+02  0.00000000000E+00 0.  1.
</event>
<event>
 7    1  0.2688177E-009  0.2018836E+03  0.7561462E-02  0.1148159E+00
         -2   -1    0    0    0  501 -0.00000000000E+00  0.00000000000E+00  0.57207382240E+02  0.57207382240E+02  0.00000000000E+00 0.  1.
          2   -1    0    0  501    0  0.00000000000E+00 -0.00000000000E+00 -0.82354927335E+03  0.82354927335E+03  0.00000000000E+00 0. -1.
         25    2    1    2    0    0  0.14480498929E+03 -0.11614701545E+03 -0.33516074309E+03  0.40303622319E+03  0.12508740694E+03 0.  0.
          5    1    3    3  502    0  0.12575163783E+03 -0.48209767915E+02 -0.13488797108E+03  0.19065647978E+03  0.41800000000E+01 0. -1.
         -5    1    3    3    0  502  0.19053351460E+02 -0.67937247538E+02 -0.20027277200E+03  0.21237974341E+03  0.41800000000E+01 0. -1.
        -11    1    1    2    0    0 -0.47715400071E+02  0.83025874260E+02 -0.27183652078E+03  0.28821025178E+03  0.00000000000E+00 0. -1.
         11    1    1    2    0    0 -0.97089589216E+02  0.33121141193E+02 -0.15934462725E+03  0.18951018062E+03  0.00000000000E+00 0.  1.
</event>
<event>
 7    1  0.2688177E-009  0.2505364E+03  0.7561462E-02  0.1112966E+00
         -1   -1    0    0    0  501 -0.00000000000E+00  0.00000000000E+00  0.54348798140E+02  0.54348798140E+02  0.00000000000E+00 0.  1.
          1   -1    0    0  501    0  0.00000000000E+00 -0.00000000000E+00 -0.14014271358E+04  0.14014271358E+04  0.00000000000E+00 0. -1.
         25    2    1    2    0    0 -0.31572582491E+02  0.23258754752E+03 -0.43625061928E+03  0.51093626641E+03  0.12508984882E+03 0.  0.
          5    1    3    3  502    0 -0.97629465502E+01  0.24059255159E+03 -0.37939677694E+03  0.44937676593E+03  0.41800000000E+01 0. -1.
         -5    1    3    3    0  502 -0.21809635941E+02 -0.80050040627E+01 -0.56853842346E+02  0.61559500481E+02  0.41800000000E+01 0. -1.
        -11    1    1    2    0    0  0.60391853885E+01 -0.15166981775E+03 -0.41681941937E+03  0.44359737797E+03  0.00000000000E+00 0.  1.
         11    1    1    2    0    0  0.25533397102E+02 -0.80917729770E+02 -0.49400829901E+03  0.50124228957E+03  0.00000000000E+00 0. -1.
</event>
<event>
 7    1  0.2688177E-009  0.1871625E+03  0.7561462E-02  0.1161046E+00
          4   -1    0    0  501    0  0.00000000000E+00  0.00000000000E+00  0.17601133773E+03  0.17601133773E+03  0.00000000000E+00 0. -1.
         -4   -1    0    0    0  501 -0.00000000000E+00 -0.00000000000E+00 -0.25756953414E+03  0.25756953414E+03  0.00000000000E+00 0.  1.
         25    2    1    2    0    0 -0.75270731249E+02  0.15597262056E+03  0.21636637872E+02  0.21473130194E+03  0.12509295180E+03 0.  0.
          5    1    3    3  502    0 -0.83714455499E+02  0.59936880716E+02  0.49465880392E+02  0.11430172988E+03  0.41800000000E+01 0.  1.
         -5    1    3    3    0  502  0.84437242504E+01  0.96035739846E+02 -0.27829242520E+02  0.10042957207E+03  0.41800000000E+01 0.  1.
        -11    1    1    2    0    0  0.56677705731E+02 -0.91029349603E+02 -0.15798746914E+02  0.10838959922E+03  0.00000000000E+00 0. -1.
         11    1    1    2    0    0  0.18593025518E+02 -0.64943270958E+02 -0.87396087366E+02  0.11045997070E+03  0.00000000000E+00 0.  1.
</event>
<event>
 7    1  0.2688177E-009  0.1070395E+03  0.7561462E-02  0.1266153E+00
          2   -1    0    0  501    0  0.00000000000E+00  0.00000000000E+00  0.27723107522E+03  0.27723107522E+03  0.00000000000E+00 0. -1.
         -2   -1    0    0    0  501 -0.00000000000E+00 -0.00000000000E+00 -0.67450914663E+02  0.67450914663E+02  0.00000000000E+00 0.  1.
         25    2    1    2    0    0 -0.47936262208E+01 -0.11160863810E+02  0.11685683449E+02  0.12621600244E+03  0.12508549213E+03 0.  0.
          5    1    3    3  502    0  0.48075512228E+02 -0.42266846139E+02  0.75707283199E+01  0.64595119675E+02  0.41800000000E+01 0.  1.
         -5    1    3    3    0  502 -0.52869138449E+02  0.31105982330E+02  0.41149551295E+01  0.61620882765E+02  0.41800000000E+01 0.  1.
        -11    1    1    2    0    0  0.83025169962E+01  0.49376328331E+02  0.14141126340E+03  0.15001366272E+03  0.00000000000E+00 0.  1.
         11    1    1    2    0    0 -0.35088907754E+01 -0.38215464522E+02  0.56683213715E+02  0.68452324724E+02  0.00000000000E+00 0. -1.
</event>
<event>
 6    1  0.2688177E-009  0.1884231E+03  0.7561462E-02  0.1159891E+00
         -1   -1    0    0    0  501 -0.00000000000E+00  0.00000000000E+00  0.96505584564E+02  0.96505584564E+02  0.00000000000E+00 0.  1.
          1   -1    0    0  501    0  0.00000000000E+00 -0.00000000000E+00 -0.47223641205E+03  0.47223641205E+03  0.00000000000E+00 0. -1.
          5    1    1    2  502    0 -0.21992491551E+02 -0.93952281953E+01  0.20629534092E+02  0.31858908869E+02  0.41800000000E+01 0.  1.
         -5    1    1    2    0  502 -0.13195694405E+03 -0.89657208544E+02 -0.18371316541E+03  0.24334964490E+03  0.41800000000E+01 0.  1.
        -11    1    1    2    0    0  0.10033262198E+03  0.96645421206E+02 -0.18922457384E+03  0.23497427906E+03  0.00000000000E+00 0. -1.
         11    1    1    2    0    0  0.53616813622E+02  0.24070155325E+01 -0.23422622322E+02  0.58559163785E+02  0.00000000000E+00 0.  1.
</event>
<event>
 7    1  0.2688177E-009  0.1261383E+03  0.7561462E-02  0.1233301E+00
         -3   -1    0    0    0  501 -0.00000000000E+00  0.00000000000E+00  0.27765388612E+03  0.27765388612E+03  0.00000000000E+00 0.  1.
          3   -1    0    0  501    0  0.00000000000E+00 -0.00000000000E+00 -0.10142903615E+03  0.10142903615E+03  0.00000000000E+00 0. -1.
         25    2    1    2    0    0  0.92988024725E+02  0.58916845544E+02  0.16361584587E+03  0.23352791226E+03  0.12508866198E+03 0.  0.
          5    1    3    3  502    0  0.40630904987E+02  0.45230162753E+02 -0.21085225059E+00  0.60943866972E+02  0.41800000000E+01 0.  1.
         -5    1    3    3    0  502  0.52357119737E+02  0.13686682791E+02  0.16382669812E+03  0.17258404529E+03  0.41800000000E+01 0.  1.
        -11    1    1    2    0    0 -0.94006679589E+02 -0.17494720701E+02  0.30579274671E+02  0.10039129992E+03  0.00000000000E+00 0.  1.
         11    1    1    2    0    0  0.10186548641E+01 -0.41422124843E+02 -0.17970270574E+02  0.45163710086E+02  0.00000000000E+00 0. -1.
</event>
<event>
 7    1  0.2688177E-009  0.1653058E+03  0.7561462E-02  0.1182833E+00
          1   -1    0    0  501    0  0.00000000000E+00  0.00000000000E+00  0.15754222048E+03  0.15754222048E+03  0.00000000000E+00 0. -1.
         -1   -1    0    0    0  501 -0.00000000000E+00 -0.00000000000E+00 -0.17691255923E+03  0.17691255923E+03  0.00000000000E+00 0.  1.
         25    2    1    2    0    0 -0.97681404272E+02 -0.71823285947E+02 -0.17078139995E+01  0.17421875185E+03  0.12509602601E+03 0.  0.
          5    1    3    3  502    0 -0.11823034069E+03 -0.87563399242E+02  0.45794882251E+01  0.14725558209E+03  0.41800000000E+01 0. -1.
         -5    1    3    3    0  502  0.20548936414E+02  0.15740113295E+02 -0.62873022246E+01  0.26963169761E+02  0.41800000000E+01 0. -1.
        -11    1    1    2    0    0 -0.11276787025E+02 -0.14378757486E+02 -0.10594101152E+02  0.21122252996E+02  0.00000000000E+00 0.  1.
         11    1    1    2    0    0  0.10895819130E+03  0.86202043432E+02 -0.70684235941E+01  0.13911377486E+03  0.00000000000E+00 0. -1.
</event>
<event>
 7    1  0.2688177E-009  0.8889873E+02  0.7561462E-02  0.1305541E+00
          1   -1    0    0  501    0  0.00000000000E+00  0.00000000000E+00  0.89232115791E+03  0.89232115791E+03  0.00000000000E+00 0. -1.
         -1   -1    0    0    0  501 -0.00000000000E+00 -0.00000000000E+00 -0.27152333399E+02  0.27152333399E+02  0.00000000000E+00 0.  1.
         25    2    1    2    0    0 -0.70665007972E+02  0.84462421144E+01  0.70819542794E+03  0.72267121245E+03  0.12509210523E+03 0.  0.
          5    1    3    3  502    0 -0.16373476536E+02  0.29805654475E+02  0.58801808330E+03  0.58901545519E+03  0.41800000000E+01 0. -1.
         -5    1    3    3    0  502 -0.54291531437E+02 -0.21359412361E+02  0.12017734464E+03  0.13365575726E+03  0.41800000000E+01 0. -1.
        -11    1    1    2    0    0  0.32095574786E+02  0.19371643752E+02  0.53155117883E+01  0.37863454254E+02  0.00000000000E+00 0.  1.
         11    1    1    2    0    0  0.38569433187E+02 -0.27817885866E+02  0.15165788478E+03  0.15893882460E+03  0.00000000000E+00 0. -1.
</event>
<event>
 7    1  0.2688177E-009  0.1346666E+03  0.7561462E-02  0.1220691E+00
         -1   -1    0    0    0  501 -0.00000000000E+00  0.00000000000E+00  0.25944832081E+02  0.25944832081E+02  0.00000000000E+00 0.  1.
          1   -1    0    0  501    0  0.00000000000E+00 -0.00000000000E+00 -0.71714087541E+03  0.71714087541E+03  0.00000000000E+00 0. -1.
         25    2    1    2    0    0 -0.61311728644E+02  0.52042578723E+02 -0.32203439745E+03  0.35471268298E+03  0.12508947300E+03 0.  0.
          5    1    3    3  502    0 -0.49297338018E+02  0.93254571389E+02 -0.22635334692E+03  0.24975978996E+03  0.41800000000E+01 0. -1.
         -5    1    3    3    0  502 -0.12014390626E+02 -0.41211992666E+02 -0.95681050538E+02  0.10495289302E+03  0.41800000000E+01 0. -1.
        -11    1    1    2    0    0 -0.22329741227E+02 -0.39237709694E+00 -0.68363904900E+02  0.71919363153E+02  0.00000000000E+00 0.  1.
         11    1    1    2    0    0  0.83641469871E+02 -0.51650201627E+02 -0.30079774098E+03  0.31645366136E+03  0.00000000000E+00 0. -1.
</event>
<event>
 7    1  0.2688177E-009  0.1521107E+03  0.7561462E-02  0.1197903E+00
         -1   -1    0    0    0  501 -0.00000000000E+00  0.00000000000E+00  0.20619048282E+02  0.20619048282E+02  0.00000000000E+00 0.  1.
          1   -1    0    0  501    0  0.00000000000E+00 -0.00000000000E+00 -0.15301061264E+04  0.15301061264E+04  0.00000000000E+00 0. -1.
         25    2    1    2    0    0  0.12755170702E+03 -0.44541227609E+01 -0.10375261383E+04  0.10528045626E+04  0.12509069634E+03 0.  0.
          5    1    3    3  502    0  0.85670537862E+02  0.33896703357E+02 -0.88844672244E+03  0.89322084535E+03  0.41800000000E+01 0. -1.
         -5    1    3    3    0  502  0.41881169155E+02 -0.38350826118E+02 -0.14907941583E+03  0.15958371727E+03  0.41800000000E+01 0. -1.
        -11    1    1    2    0    0 -0.56113355085E+02 -0.41779529628E+02 -0.26663649764E+03  0.27566149457E+03  0.00000000000E+00 0. -1.
         11    1    1    2    0    0 -0.71438351931E+02  0.46233652389E+02 -0.20532444223E+03  0.22225911751E+03  0.00000000000E+00 0.  1.
</event>
<event>
 7    1  0.2688177E-009  0.1135558E+03  0.7561462E-02  0.1254123E+00
          1   -1    0    0  501    0  0.00000000000E+00  0.00000000000E+00  0.91169215542E+03  0.91169215542E+03  0.00000000000E+00 0. -1.
         -1   -1    0    0    0  501 -0.00000000000E+00 -0.00000000000E+00 -0.15845871889E+02  0.15845871889E+02  0.00000000000E+00 0.  1.
         25    2    1    2    0    0 -0.14549692166E+02 -0.40260251193E+02  0.62584317681E+03  0.63965569013E+03  0.12508852303E+03 0.  0.
          5    1    3    3  502    0  0.44663508939E+02  0.16749437109E+02  0.28653363538E+03  0.29050708990E+03  0.41800000000E+01 0.  1.
         -5    1    3    3    0  502 -0.59213201105E+02 -0.57009688302E+02  0.33930954143E+03  0.34914860024E+03  0.41800000000E+01 0.  1.
        -11    1    1    2    0    0 -0.36175016358E+02  0.87785168744E+01  0.71694965290E+02  0.80782808907E+02  0.00000000000E+00 0.  1.
         11    1    1    2    0    0  0.50724708525E+02  0.31481734319E+02  0.19830814143E+03  0.20709952827E+03  0.00000000000E+00 0. -1.
</event>
<event>
 7    1  0.2688177E-009  0.1524131E+03  0.7561462E-02  0.1197539E+00
          2   -1    0    0  501    0  0.00000000000E+00  0.00000000000E+00  0.17867081820E+03  0.17867081820E+03  0.00000000000E+00 0. -1.
         -2   -1    0    0    0  501 -0.00000000000E+00 -0.00000000000E+00 -0.18845298958E+03  0.18845298958E+03  0.00000000000E+00 0.  1.
         25    2    1    2    0    0 -0.11899853901E+03 -0.78520146753E+02 -0.40320990805E+02  0.19390596367E+03  0.12509066597E+03 0.  0.
          5    1    3    3  502    0  0.18331108544E+01 -0.23136008255E+02 -0.55262448175E+02  0.60083656278E+02  0.41800000000E+01 0.  1.
         -5    1    3    3    0  502 -0.12083164987E+03 -0.55384138498E+02  0.14941457371E+02  0.13382230739E+03  0.41800000000E+01 0.  1.
        -11    1    1    2    0    0  0.88233904659E+02  0.34909767322E+02  0.59989501725E+02  0.11226154330E+03  0.00000000000E+00 0. -1.
         11    1    1    2    0    0  0.30764634356E+02  0.43610379431E+02 -0.29450682299E+02  0.60956300815E+02  0.00000000000E+00 0.  1.
</event>
<event>
 7    1  0.2688177E-009  0.1539509E+03  0.7561462E-02  0.1195701E+00
         -3   -1    0    0    0  501 -0.00000000000E+00  0.00000000000E+00  0.28444915128E+02  0.28444915128E+02  0.00000000000E+00 0.  1.
          3   -1    0    0  501    0  0.00000000000E+00 -0.00000000000E+00 -0.10462193573E+04  0.10462193573E+04  0.00000000000E+00 0. -1.
         25    2    1    2    0    0 -0.94922718035E+02 -0.67799365644E+02 -0.73272185329E+03  0.75241874006E+03  0.12508225180E+03 0.  0.
          5    1    3    3  502    0 -0.30278482051E+01 -0.65766912453E+02 -0.17236742076E+03  0.18456016574E+03  0.41800000000E+01 0. -1.
         -5    1    3    3    0  502 -0.91894869830E+02 -0.20324531913E+01 -0.56035443253E+03  0.56785857432E+03  0.41800000000E+01 0. -1.
        -11    1    1    2    0    0 -0.79013818494E+01  0.43569147902E+02 -0.74162385722E+02  0.86375702255E+02  0.00000000000E+00 0. -1.
         11    1    1    2    0    0  0.10282409988E+03  0.24230217742E+02 -0.21089020312E+03  0.23586983008E+03  0.00000000000E+00 0.  1.
</event>
<event>
 7    1  0.2688177E-009  0.9563809E+02  0.7561462E-02  0.1289745E+00
          1   -1    0    0  501    0  0.00000000000E+00  0.00000000000E+00  0.64939201937E+03  0.64939201937E+03  0.00000000000E+00 0. -1.
         -1   -1    0    0    0  501 -0.00000000000E+00 -0.00000000000E+00 -0.27477747655E+02  0.27477747655E+02  0.00000000000E+00 0.  1.
         25    2    1    2    0    0  0.16524527216E+02  0.53141980791E+02  0.33371343281E+03  0.36070651173E+03  0.12508957687E+03 0.  0.
          5    1    3    3  502    0  0.14713757238E+02  0.66788172366E+02  0.33863834376E+03  0.34550044122E+03  0.41800000000E+01 0.  1.
         -5    1    3    3    0  502  0.18107699785E+01 -0.13646191575E+02 -0.49249109478E+01  0.15206070507E+02  0.41800000000E+01 0.  1.
        -11    1    1    2    0    0 -0.45814130227E+02 -0.62617750161E+02  0.10589782129E+03  0.13127934231E+03  0.00000000000E+00 0.  1.
         11    1    1    2    0    0  0.29289603011E+02  0.94757693702E+01  0.18230301762E+03  0.18488391299E+03  0.00000000000E+00 0. -1.
</event>
<event>
 7    1  0.4424282E-009  0.4735838E+02  0.7561462E-02  0.1460134E+00
         -1   -1    0    0    0  501 -0.00000000000E+00  0.00000000000E+00  0.54688580089E+02  0.54688580089E+02  0.00000000000E+00 0.  1.
          1   -1    0    0  501    0  0.00000000000E+00 -0.00000000000E+00 -0.26576768516E+03  0.26576768516E+03  0.00000000000E+00 0. -1.
         25    2    1    2    0    0  0.21097550371E+02  0.26576927581E+02 -0.65177133596E+02  0.14507807828E+03  0.12509256709E+03 0.  0.
          5    1    3    3  502    0  0.23294519653E+02  0.43348252290E+01  0.34933603523E+02  0.42417619107E+02  0.41800000000E+01 0.  1.
         -5    1    3    3    0  502 -0.21969692811E+01  0.22242102352E+02 -0.10011073712E+03  0.10266045917E+03  0.41800000000E+01 0.  1.
        -11    1    1    2    0    0  0.57115606709E+01 -0.19317268782E+02  0.59521464704E+01  0.21004924330E+02  0.00000000000E+00 0.  1.
         11    1    1    2    0    0 -0.26809111042E+02 -0.72596587991E+01 -0.15185411794E+03  0.15437326264E+03  0.00000000000E+00 0. -1.
</event>
<event>
 7    1  0.2688177E-009  0.9479066E+02  0.7561462E-02  0.1291648E+00
          1   -1    0    0  501    0  0.00000000000E+00  0.00000000000E+00  0.69972398282E+02  0.69972398282E+02  0.00000000000E+00 0. -1.
         -1   -1    0    0    0  501 -0.00000000000E+00 -0.00000000000E+00 -0.17432607469E+03  0.17432607469E+03  0.00000000000E+00 0.  1.
         25    2    1    2    0    0  0.13603110841E+02  0.20687782830E+02 -0.44765183142E+02  0.13514656244E+03  0.12509053815E+03 0.  0.
          5    1    3    3  502    0 -0.28033393485E+02 -0.41011985022E+02 -0.35949858423E+01  0.49982500827E+02  0.41800000000E+01 0. -1.
         -5    1    3    3    0  502  0.41636504327E+02  0.61699767852E+02 -0.41170197299E+02  0.85164061617E+02  0.41800000000E+01 0. -1.
        -11    1    1    2    0    0 -0.13559182942E+02 -0.41861639324E+02 -0.72166641257E+02  0.84523797828E+02  0.00000000000E+00 0.  1.
         11    1    1    2    0    0 -0.43927899892E-01  0.21173856494E+02  0.12578147988E+02  0.24628112703E+02  0.00000000000E+00 0. -1.
</event>
<event>
 7    1  0.2688177E-009  0.1207986E+03  0.7561462E-02  0.1241785E+00
         -2   -1    0    0    0  501 -0.00000000000E+00  0.00000000000E+00  0.17548732122E+03  0.17548732122E+03  0.00000000000E+00 0. -1.
          2   -1    0    0  501    0  0.00000000000E+00 -0.00000000000E+00 -0.10350775678E+03  0.10350775678E+03  0.00000000000E+00 0.  1.
         25    2    1    2    0    0  0.77513118878E+02  0.16556758814E+02  0.49355199245E+02  0.15609183743E+03  0.12508523558E+03 0.  0.
          5    1    3    3  502    0  0.90672864190E+01 -0.46797327653E+02  0.39809621543E+02  0.62245352645E+02  0.41800000000E+01 0. -1.
         -5    1    3    3    0  502  0.68445832459E+02  0.63354086468E+02  0.95455777016E+01  0.93846484787E+02  0.41800000000E+01 0. -1.
        -11    1    1    2    0    0 -0.81017977887E+02  0.24546479360E+01 -0.13269876923E+02  0.82134205243E+02  0.00000000000E+00 0.  1.
         11    1    1    2    0    0  0.35048590085E+01 -0.19011406750E+02  0.35894242120E+02  0.40769035317E+02  0.00000000000E+00 0. -1.
</event>
<event>
 7    1  0.2922382E-009  0.2339350E+03  0.7561462E-02  0.1123900E+00
         -2   -1    0    0    0  501 -0.00000000000E+00  0.00000000000E+00  0.24565875472E+02  0.24565875472E+02  0.00000000000E+00 0.  1.
          2   -1    0    0  501    0  0.00000000000E+00 -0.00000000000E+00 -0.23350336883E+04  0.23350336883E+04  0.00000000000E+00 0. -1.
         25    2    1    2    0    0  0.37080612206E+01  0.21145282988E+03 -0.13153084047E+04  0.13380620750E+04  0.12509143863E+03 0.  0.
          5    1    3    3  502    0  0.17246404807E+02  0.22169031075E+03 -0.11131625557E+04  0.11351618299E+04  0.41800000000E+01 0.  1.
         -5    1    3    3    0  502 -0.13538343586E+02 -0.10237480876E+02 -0.20214584901E+03  0.20290024503E+03  0.41800000000E+01 0.  1.
        -11    1    1    2    0    0  0.39836584282E+02 -0.12493039664E+03 -0.64705361372E+03  0.66020673768E+03  0.00000000000E+00 0. -1.
         11    1    1    2    0    0 -0.43544645503E+02 -0.86522433235E+02 -0.34810579445E+03  0.36133075116E+03  0.00000000000E+00 0.  1.
</event>
<event>
 7    1  0.2688177E-009  0.2694535E+03  0.7561462E-02  0.1101593E+00
         -2   -1    0    0    0  501 -0.00000000000E+00  0.00000000000E+00  0.18694898034E+03  0.18694898034E+03  0.00000000000E+00 0. -1.
          2   -1    0    0  501    0  0.00000000000E+00 -0.00000000000E+00 -0.39848196039E+03  0.39848196039E+03  0.00000000000E+00 0.  1.
         25    2    1    2    0    0 -0.22980757843E+03 -0.76547994913E+02 -0.13084675865E+03  0.30238884439E+03  0.12508805032E+03 0.  0.
          5    1    3    3  502    0 -0.24740491603E+02 -0.62050512078E+02 -0.29402738016E+02  0.73105070801E+02  0.41800000000E+01 0. -1.
         -5    1    3    3    0  502 -0.20506708682E+03 -0.14497482835E+02 -0.10144402064E+03  0.22928377358E+03  0.41800000000E+01 0. -1.
        -11    1    1    2    0    0  0.16702313438E+03 -0.42381798773E+00 -0.76269197872E+02  0.18361344609E+03  0.00000000000E+00 0.  1.
         11    1    1    2    0    0  0.62784444043E+02  0.76971812901E+02 -0.44170235202E+01  0.99428650257E+02  0.00000000000E+00 0. -1.
</event>
<event>
 7    1  0.2688177E-009  0.1171484E+03  0.7561462E-02  0.1247877E+00
          2   -1    0    0  501    0  0.00000000000E+00  0.00000000000E+00  0.15213906320E+03  0.15213906320E+03  0.00000000000E+00 0. -1.
         -2   -1    0    0    0  501 -0.00000000000E+00 -0.00000000000E+00 -0.12137804890E+03  0.12137804890E+03  0.00000000000E+00 0.  1.
         25    2    1    2    0    0 -0.91227116053E+01 -0.70268246129E+02 -0.73188730157E+01  0.14395343308E+03  0.12509266450E+03 0.  0.
          5    1    3    3  502    0 -0.44810591424E+02 -0.57087221167E+02 -0.48767621105E+02  0.87536810500E+02  0.41800000000E+01 0.  1.
         -5    1    3    3    0  502  0.35687879818E+02 -0.13181024962E+02  0.41448748089E+02  0.56416622578E+02  0.41800000000E+01 0.  1.
        -11    1    1    2    0    0  0.53530906674E+02  0.22382745326E+02  0.12052425639E+02  0.59260494610E+02  0.00000000000E+00 0.  1.
         11    1    1    2    0    0 -0.44408195068E+02  0.47885500803E+02  0.26027461674E+02  0.70303184405E+02  0.00000000000E+00 0. -1.
</event>
<event>
 7    1  0.2688177E-009  0.9738853E+02  0.7561462E-02  0.1285885E+00
         -1   -1    0    0    0  501 -0.00000000000E+00  0.00000000000E+00  0.77915412744E+02  0.77915412744E+02  0.00000000000E+00 0.  1.
          1   -1    0    0  501    0  0.00000000000E+00 -0.00000000000E+00 -0.42655814578E+03  0.42655814578E+03  0.00000000000E+00 0. -1.
         25    2    1    2    0    0  0.21647100508E+02 -0.18948526029E+02 -0.38406368112E+03  0.40494459485E+03  0.12509024802E+03 0.  0.
          5    1    3    3  502    0 -0.31687223155E+02 -0.46109085723E+02 -0.27306033870E+03  0.27876432496E+03  0.41800000000E+01 0.  1.
         -5    1    3    3    0  502  0.53334323663E+02  0.27160559694E+02 -0.11100334242E+03  0.12618026990E+03  0.41800000000E+01 0.  1.
        -11    1    1    2    0    0  0.26371990166E+02  0.15369073780E+02 -0.11192170487E+02  0.32510843951E+02  0.00000000000E+00 0. -1.
         11    1    1    2    0    0 -0.48019090674E+02  0.35794522487E+01  0.46613118571E+02  0.67018119718E+02  0.00000000000E+00 0.  1.
</event>
<event>
 7    1  0.2688177E-009  0.5979630E+02  0.7561462E-02  0.1398689E+00
          1   -1    0    0  501    0  0.00000000000E+00  0.00000000000E+00  0.13500790163E+03  0.13500790163E+03  0.00000000000E+00 0. -1.
         -1   -1    0    0    0  501 -0.00000000000E+00 -0.00000000000E+00 -0.91130287788E+02  0.91130287788E+02  0.00000000000E+00 0.  1.
         25    2    1    2    0    0  0.11659961200E+02  0.22996009365E+02  0.20771452913E+02  0.12940446223E+03  0.12509712406E+03 0.  0.
          5    1    3    3  502    0  0.19564268473E+02 -0.94680556464E+01 -0.47985949192E+02  0.52844379062E+02  0.41800000000E+01 0. -1.
         -5    1    3    3    0  502 -0.79043072729E+01  0.32464065011E+02  0.68757402105E+02  0.76560083169E+02  0.41800000000E+01 0. -1.
        -11    1    1    2    0    0 -0.35080834414E+02 -0.19410434993E+02  0.47882742981E+02  0.62451477206E+02  0.00000000000E+00 0. -1.
         11    1    1    2    0    0  0.23420873214E+02 -0.35855743719E+01 -0.24776582051E+02  0.34282249982E+02  0.00000000000E+00 0.  1.
</event>
<event>
 7    1  0.2688177E-009  0.2474589E+03  0.7561462E-02  0.1114921E+00
         -2   -1    0    0    0  501 -0.00000000000E+00  0.00000000000E+00  0.12705442430E+03  0.12705442430E+03  0.00000000000E+00 0.  1.
          2   -1    0    0  501    0  0.00000000000E+00 -0.00000000000E+00 -0.51017786767E+03  0.51017786767E+03  0.00000000000E+00 0. -1.
         25    2    1    2    0    0  0.21718455056E+03  0.40807006595E+02 -0.26582812838E+03  0.36762341282E+03  0.12509212217E+03 0.  0.
          5    1    3    3  502    0  0.87604264981E+02  0.78009788749E+02 -0.14484929885E+03  0.18643719093E+03  0.41800000000E+01 0. -1.
         -5    1    3    3    0  502  0.12958028558E+03 -0.37202782154E+02 -0.12097882952E+03  0.18118622189E+03  0.41800000000E+01 0. -1.
        -11    1    1    2    0    0 -0.19802660642E+03 -0.68017492450E+02 -0.10378734134E+03  0.23369366348E+03  0.00000000000E+00 0.  1.
         11    1    1    2    0    0 -0.19157944142E+02  0.27210485855E+02 -0.13507973651E+02  0.35915215666E+02  0.00000000000E+00 0. -1.
</event>
<event>
 7    1  0.2688177E-009  0.1271272E+03  0.7561462E-02  0.1231782E+00
          1   -1    0    0  501    0  0.00000000000E+00  0.00000000000E+00  0.65079958565E+03  0.65079958565E+03  0.00000000000E+00 0. -1.
         -1   -1    0    0    0  501 -0.00000000000E+00 -0.00000000000E+00 -0.39145815282E+02  0.39145815282E+02  0.00000000000E+00 0.  1.
         25    2    1    2    0    0 -0.57266529216E+01 -0.87557915087E+02  0.16448865569E+03  0.22451263956E+03  0.12510085700E+03 0.  0.
          5    1    3    3  502    0 -0.44639284645E+02 -0.17130809175E+02  0.12676700316E+03  0.13554879508E+03  0.41800000000E+01 0.  1.
         -5    1    3    3    0  502  0.38912631723E+02 -0.70427105913E+02  0.37721652530E+02  0.88963844479E+02  0.41800000000E+01 0.  1.
        -11    1    1    2    0    0 -0.42004199994E+02  0.34843218621E+02  0.24853754325E+03  0.25445886329E+03  0.00000000000E+00 0.  1.
         11    1    1    2    0    0  0.47730852915E+02  0.52714696467E+02  0.19862757142E+03  0.21097389809E+03  0.00000000000E+00 0. -1.
</event>
<event>
 7    1  0.2688177E-009  0.9129183E+02  0.7561462E-02  0.1299753E+00
         -1   -1    0    0    0  501 -0.00000000000E+00  0.00000000000E+00  0.58648380135E+02  0.58648380135E+02  0.00000000000E+00 0.  1.
          1   -1    0    0  501    0  0.00000000000E+00 -0.00000000000E+00 -0.30542199977E+03  0.30542199977E+03  0.00000000000E+00 0. -1.
         25    2    1    2    0    0  0.56950868730E+02 -0.47846407716E+02 -0.12178220995E+03  0.18976386354E+03  0.12508691804E+03 0.  0.
          5    1    3    3  502    0  0.26136452482E+01 -0.21945235963E+02  0.23451607020E+02  0.32494227099E+02  0.41800000000E+01 0.  1.
         -5    1    3    3    0  502  0.54337223482E+02 -0.25901171753E+02 -0.14523381697E+03  0.15726963644E+03  0.41800000000E+01 0.  1.
        -11    1    1    2    0    0 -0.48300862725E+02 -0.27905101202E+01 -0.11498552535E+02  0.49729035755E+02  0.00000000000E+00 0.  1.
         11    1    1    2    0    0 -0.86500060053E+01  0.50636917836E+02 -0.11349285715E+03  0.12457748062E+03  0.00000000000E+00 0. -1.
</event>
<event>
 7    1  0.2688177E-009  0.1202120E+03  0.7561462E-02  0.1242748E+00
          2   -1    0    0  501    0  0.00000000000E+00  0.00000000000E+00  0.75132529306E+03  0.75132529306E+03  0.00000000000E+00 0. -1.
         -2   -1    0    0    0  501 -0.00000000000E+00 -0.00000000000E+00 -0.36451359114E+02  0.36451359114E+02  0.00000000000E+00 0.  1.
         25    2    1    2    0    0 -0.76634377185E+02  0.40221235272E+02  0.60579633528E+03  0.62460173386E+03  0.12509016974E+03 0.  0.
          5    1    3    3  502    0 -0.51607211510E+02 -0.25781499899E+02  0.11488295107E+03  0.12862175113E+03  0.41800000000E+01 0.  1.
         -5    1    3    3    0  502 -0.25027165675E+02  0.66002735171E+02  0.49091338421E+03  0.49597998273E+03  0.41800000000E+01 0.  1.
        -11    1    1    2    0    0  0.63187975702E+02  0.62483356925E+01  0.29424909780E+02  0.69982764219E+02  0.00000000000E+00 0.  1.
         11    1    1    2    0    0  0.13446401483E+02 -0.46469570964E+02  0.79652688884E+02  0.93192154095E+02  0.00000000000E+00 0. -1.
</event>
<event>
 7    1  0.2688177E-009  0.1057186E+03  0.7561462E-02  0.1268710E+00
          1   -1    0    0  501    0  0.00000000000E+00  0.00000000000E+00  0.17312348620E+03  0.17312348620E+03  0.00000000000E+00 0. -1.
         -1   -1    0    0    0  501 -0.00000000000E+00 -0.00000000000E+00 -0.10643090170E+03  0.10643090170E+03  0.00000000000E+00 0.  1.
         25    2    1    2    0    0 -0.28415265959E+02  0.78636874797E+02  0.36792380029E+02  0.15488011284E+03  0.12507191814E+03 0.  0.
          5    1    3    3  502    0 -0.55516340540E+02  0.16336712661E+02  0.59517396345E+02  0.83118861369E+02  0.41800000000E+01 0. -1.
         -5    1    3    3    0  502  0.27101074581E+02  0.62300162135E+02 -0.22725016316E+02  0.71761251467E+02  0.41800000000E+01 0. -1.
        -11    1    1    2    0    0  0.20098958420E+02 -0.30691549633E+02  0.57891030522E+02  0.68536929923E+02  0.00000000000E+00 0. -1.
         11    1    1    2    0    0  0.83163075386E+01 -0.47945325163E+02 -0.27990826054E+02  0.56137345139E+02  0.00000000000E+00 0.  1.
</event>
<event>
 7    1  0.2688177E-009  0.1350826E+03  0.7561462E-02  0.1220103E+00
         -2   -1    0    0    0  501 -0.00000000000E+00  0.00000000000E+00  0.66182579331E+03  0.66182579331E+03  0.00000000000E+00 0. -1.
          2   -1    0    0  501    0  0.00000000000E+00 -0.00000000000E+00 -0.36239433942E+02  0.36239433942E+02  0.00000000000E+00 0.  1.
         25    2    1    2    0    0 -0.56343276556E+02 -0.64523385130E+02  0.18035560193E+03  0.23561441373E+03  0.12509267272E+03 0.  0.
          5    1    3    3  502    0 -0.51219266577E+02  0.24300673486E+02  0.40473715160E+02  0.69782017880E+02  0.41800000000E+01 0. -1.
         -5    1    3    3    0  502 -0.51240099790E+01 -0.88824058616E+02  0.13988188677E+03  0.16583239585E+03  0.41800000000E+01 0. -1.
        -11    1    1    2    0    0  0.35457515887E+02  0.86770222810E+02  0.35661962599E+03  0.36873278216E+03  0.00000000000E+00 0. -1.
         11    1    1    2    0    0  0.20885760668E+02 -0.22246837679E+02  0.88611131451E+02  0.93718031363E+02  0.00000000000E+00 0.  1.
</event>
<event>
 7    1  0.2688177E-009  0.1665051E+03  0.7561462E-02  0.1181542E+00
         -2   -1    0    0    0  501 -0.00000000000E+00  0.00000000000E+00  0.36953003275E+03  0.36953003275E+03  0.00000000000E+00 0.  1.
          2   -1    0    0  501    0  0.00000000000E+00 -0.00000000000E+00 -0.93088020201E+02  0.93088020201E+02  0.00000000000E+00 0. -1.
         25    2    1    2    0    0  0.86064165541E+02 -0.12250749913E+03  0.14126369797E+03  0.24087048250E+03  0.12509208225E+03 0.  0.
          5    1    3    3  502    0  0.11974933897E+02 -0.84678238175E+02  0.13162213775E+03  0.15702121707E+03  0.41800000000E+01 0. -1.
         -5    1    3    3    0  502  0.74089231644E+02 -0.37829260953E+02  0.96415602205E+01  0.83849265431E+02  0.41800000000E+01 0. -1.
        -11    1    1    2    0    0 -0.24083558481E+02 -0.28496113461E+01 -0.38498117465E+01  0.24555226010E+02  0.00000000000E+00 0. -1.
         11    1    1    2    0    0 -0.61980607061E+02  0.12535711047E+03  0.13902812632E+03  0.19719234444E+03  0.00000000000E+00 0.  1.
</event>
<event>
 7    1  0.2688177E-009  0.1243286E+03  0.7561462E-02  0.1236122E+00
         -2   -1    0    0    0  501 -0.00000000000E+00  0.00000000000E+00  0.36026496147E+03  0.36026496147E+03  0.00000000000E+00 0.  1.
          2   -1    0    0  501    0  0.00000000000E+00 -0.00000000000E+00 -0.46581288891E+02  0.46581288891E+02  0.00000000000E+00 0. -1.
         25    2    1    2    0    0  0.35545329345E+02  0.61112194072E+02  0.16947562772E+03  0.22219433078E+03  0.12510060567E+03 0.  0.
          5    1    3    3  502    0  0.43259122415E+02  0.95713265858E+02  0.14423584319E+03  0.17847641803E+03  0.41800000000E+01 0.  1.
         -5    1    3    3    0  502 -0.77137930698E+01 -0.34601071786E+02  0.25239784526E+02  0.43717912750E+02  0.41800000000E+01 0.  1.
        -11    1    1    2    0    0 -0.53040833338E+02 -0.10205538938E+02  0.39493985088E+02  0.66912314893E+02  0.00000000000E+00 0. -1.
         11    1    1    2    0    0  0.17495503993E+02 -0.50906655134E+02  0.10471405978E+03  0.11773960469E+03  0.00000000000E+00 0.  1.
</event>
<event>
 7    1  0.2688177E-009  0.1379136E+03  0.7561462E-02  0.1216164E+00
          1   -1    0    0  501    0  0.00000000000E+00  0.00000000000E+00  0.45158172846E+03  0.45158172846E+03  0.00000000000E+00 0. -1.
         -1   -1    0    0    0  501 -0.00000000000E+00 -0.00000000000E+00 -0.68733463171E+02  0.68733463171E+02  0.00000000000E+00 0.  1.
         25    2    1    2    0    0 -0.12386427817E+03  0.15131388583E+02  0.28067511463E+03  0.33165824958E+03  0.12508939289E+03 0.  0.
          5    1    3    3  502    0  0.10021193452E+02 -0.96391989805E+01  0.12058272487E+03  0.12145371304E+03  0.41800000000E+01 0.  1.
         -5    1    3    3    0  502 -0.13388547163E+03  0.24770587563E+02  0.16009238976E+03  0.21020453653E+03  0.41800000000E+01 0.  1.
        -11    1    1    2    0    0  0.95473971156E+02 -0.15318771857E+02  0.16105037681E+02  0.98027119606E+02  0.00000000000E+00 0.  1.
         11    1    1    2    0    0  0.28390307018E+02  0.18738327469E+00  0.86068112979E+02  0.90629822448E+02  0.00000000000E+00 0. -1.
</event>
<event>
 7    1  0.2688177E-009  0.1010279E+03  0.7561462E-02  0.1278149E+00
          3   -1    0    0  501    0  0.00000000000E+00  0.00000000000E+00  0.31089956422E+03  0.31089956422E+03  0.00000000000E+00 0. -1.
         -3   -1    0    0    0  501 -0.00000000000E+00 -0.00000000000E+00 -0.46416886491E+02  0.46416886491E+02  0.00000000000E+00 0.  1.
         25    2    1    2    0    0 -0.99695961755E+01  0.12229726274E+02  0.23148278004E+03  0.26359212741E+03  0.12509025991E+03 0.  0.
          5    1    3    3  502    0  0.53519090755E+02  0.27970555371E+02  0.11233222907E+03  0.12760347617E+03  0.41800000000E+01 0. -1.
         -5    1    3    3    0  502 -0.63488686930E+02 -0.15740829097E+02  0.11915055098E+03  0.13598865124E+03  0.41800000000E+01 0. -1.
        -11    1    1    2    0    0 -0.30358135087E+02  0.72223629342E+01 -0.88510343185E+01  0.32436394695E+02  0.00000000000E+00 0.  1.
         11    1    1    2    0    0  0.40327731263E+02 -0.19452089208E+02  0.41850932007E+02  0.61287928609E+02  0.00000000000E+00 0. -1.
</event>
<event>
 7    1  0.2688177E-009  0.1039734E+03  0.7561462E-02  0.1272156E+00
         -2   -1    0    0    0  501 -0.00000000000E+00  0.00000000000E+00  0.71457518257E+02  0.71457518257E+02  0.00000000000E+00 0.  1.
          2   -1    0    0  501    0  0.00000000000E+00 -0.00000000000E+00 -0.18970856416E+03  0.18970856416E+03  0.00000000000E+00 0. -1.
         25    2    1    2    0    0 -0.14652766645E+02  0.38612521642E+02 -0.69209413052E+02  0.14880708212E+03  0.12509186399E+03 0.  0.
          5    1    3    3  502    0 -0.57753635654E+02  0.59878376503E+02 -0.47681379502E+02  0.95978584877E+02  0.41800000000E+01 0. -1.
         -5    1    3    3    0  502  0.43100869009E+02 -0.21265854861E+02 -0.21528033550E+02  0.52828497242E+02  0.41800000000E+01 0. -1.
        -11    1    1    2    0    0 -0.22433791237E+02  0.59005480115E+00 -0.53692440446E+02  0.58193653562E+02  0.00000000000E+00 0. -1.
         11    1    1    2    0    0  0.37086557882E+02 -0.39202576443E+02  0.46508075987E+01  0.54165346732E+02  0.00000000000E+00 0.  1.
</event>
<event>
 7    1  0.2688177E-009  0.9842046E+02  0.7561462E-02  0.1283653E+00
         -2   -1    0    0    0  501 -0.00000000000E+00  0.00000000000E+00  0.23075077403E+02  0.23075077403E+02  0.00000000000E+00 0.  1.
          2   -1    0    0  501    0  0.00000000000E+00 -0.00000000000E+00 -0.57211098272E+03  0.57211098272E+03  0.00000000000E+00 0. -1.
         25    2    1    2    0    0  0.77083833269E+01  0.33039767565E+02 -0.26200251774E+03  0.29230474630E+03  0.12508277258E+03 0.  0.
          5    1    3    3  502    0 -0.30384424761E+02  0.49685816096E+02 -0.23594898133E+03  0.24306642668E+03  0.41800000000E+01 0.  1.
         -5    1    3    3    0  502  0.38092808088E+02 -0.16646048531E+02 -0.26053536405E+02  0.49238319619E+02  0.41800000000E+01 0.  1.
        -11    1    1    2    0    0  0.27006291935E+02  0.19772270512E+02 -0.10228310402E+03  0.10762023905E+03  0.00000000000E+00 0.  1.
         11    1    1    2    0    0 -0.34714675262E+02 -0.52812038077E+02 -0.18475028357E+03  0.19526107477E+03  0.00000000000E+00 0. -1.
</event>
<event>
 7    1  0.2688177E-009  0.1361775E+03  0.7561462E-02  0.1218567E+00
          2   -1    0    0  501    0  0.00000000000E+00  0.00000000000E+00  0.65154994238E+03  0.65154994238E+03  0.00000000000E+00 0. -1.
         -2   -1    0    0    0  501 -0.00000000000E+00 -0.00000000000E+00 -0.37737166053E+02  0.37737166053E+02  0.00000000000E+00 0.  1.
         25    2    1    2    0    0 -0.11293787780E+03 -0.21277382843E+02  0.31368461359E+03  0.35672591446E+03  0.12509056712E+03 0.  0.
          5    1    3    3  502    0 -0.11976726847E+03 -0.19360301805E+02  0.15060345134E+03  0.19343704877E+03  0.41800000000E+01 0.  1.
         -5    1    3    3    0  502  0.68293906702E+01 -0.19170810373E+01  0.16308116225E+03  0.16328886569E+03  0.41800000000E+01 0.  1.
        -11    1    1    2    0    0  0.83264755766E+02  0.53462826705E+02  0.19458393132E+03  0.21829841896E+03  0.00000000000E+00 0.  1.
         11    1    1    2    0    0  0.29673122035E+02 -0.32185443862E+02  0.10554423141E+03  0.11426277501E+03  0.00000000000E+00 0. -1.
</event>
<event>
 7    1  0.2688177E-009  0.1057956E+03  0.7561462E-02  0.1268560E+00
         -2   -1    0    0    0  501 -0.00000000000E+00  0.00000000000E+00  0.68097437221E+02  0.68097437221E+02  0.00000000000E+00 0.  1.
          2   -1    0    0  501    0  0.00000000000E+00 -0.00000000000E+00 -0.31060749215E+03  0.31060749215E+03  0.00000000000E+00 0. -1.
         25    2    1    2    0    0 -0.14008762222E+01  0.27505727890E+02 -0.25086504346E+03  0.28167225940E+03  0.12508982436E+03 0.  0.
          5    1    3    3  502    0  0.54883511831E+02 -0.15358421695E+02 -0.10738364288E+03  0.12164209858E+03  0.41800000000E+01 0. -1.
         -5    1    3    3    0  502 -0.56284388053E+02  0.42864149585E+02 -0.14348140058E+03  0.16003016082E+03  0.41800000000E+01 0. -1.
        -11    1    1    2    0    0  0.11121611770E+02 -0.54114820703E+02  0.28603207010E+02  0.62211313435E+02  0.00000000000E+00 0.  1.
         11    1    1    2    0    0 -0.97207355480E+01  0.26609092813E+02 -0.20248218471E+02  0.34821356538E+02  0.00000000000E+00 0. -1.
</event>
<event>
 7    1  0.2688177E-009  0.1252294E+03  0.7561462E-02  0.1234711E+00
          2   -1    0    0  501    0  0.00000000000E+00  0.00000000000E+00  0.92669737323E+02  0.92669737323E+02  0.00000000000E+00 0. -1.
         -2   -1    0    0    0  501 -0.00000000000E+00 -0.00000000000E+00 -0.19884466747E+03  0.19884466747E+03  0.00000000000E+00 0.  1.
         25    2    1    2    0    0 -0.16442165073E+02  0.78348022137E+02 -0.74420716158E+02  0.16611665159E+03  0.12509013381E+03 0.  0.
          5    1    3    3  502    0  0.34773259859E+02 -0.82408136301E+01  0.69668124083E+01  0.36648321730E+02  0.41800000000E+01 0.  1.
         -5    1    3    3    0  502 -0.51215424933E+02  0.86588835768E+02 -0.81387528566E+02  0.12946832986E+03  0.41800000000E+01 0.  1.
        -11    1    1    2    0    0 -0.27373373343E+02 -0.42416286659E+01 -0.27757780021E+02  0.39214631626E+02  0.00000000000E+00 0. -1.
         11    1    1    2    0    0  0.43815538416E+02 -0.74106393472E+02 -0.39964339670E+01  0.86183121575E+02  0.00000000000E+00 0.  1.
</event>
<event>
 7    1  0.2688177E-009  0.9303972E+02  0.7561462E-02  0.1295653E+00
          1   -1    0    0  501    0  0.00000000000E+00  0.00000000000E+00  0.67739097701E+03  0.67739097701E+03  0.00000000000E+00 0. -1.
         -1   -1    0    0    0  501 -0.00000000000E+00 -0.00000000000E+00 -0.18411138350E+02  0.18411138350E+02  0.00000000000E+00 0.  1.
         25    2    1    2    0    0 -0.29390800447E+02 -0.55405299869E+01  0.40844029252E+03  0.42821304191E+03  0.12509364526E+03 0.  0.
          5    1    3    3  502    0  0.98406594457E+01 -0.47764885720E+02  0.73385311300E+02  0.88211105881E+02  0.41800000000E+01 0.  1.
         -5    1    3    3    0  502 -0.39231459892E+02  0.42224355733E+02  0.33505498122E+03  0.34000193603E+03  0.41800000000E+01 0.  1.
        -11    1    1    2    0    0  0.34071010075E+02  0.35392935362E+02  0.76294006398E+02  0.90742873072E+02  0.00000000000E+00 0.  1.
         11    1    1    2    0    0 -0.46802096288E+01 -0.29852405375E+02  0.17424553975E+03  0.17684620038E+03  0.00000000000E+00 0. -1.
</event>
<event>
 7    1  0.2688177E-009  0.1044300E+03  0.7561462E-02  0.1271247E+00
          1   -1    0    0  501    0  0.00000000000E+00  0.00000000000E+00  0.11034198500E+04  0.11034198500E+04  0.00000000000E+00 0. -1.
         -1   -1    0    0    0  501 -0.00000000000E+00 -0.00000000000E+00 -0.17742755497E+02  0.17742755497E+02  0.00000000000E+00 0.  1.
         25    2    1    2    0    0 -0.30838783271E+02  0.72501681250E+02  0.72119078299E+03  0.73618574928E+03  0.12508312291E+03 0.  0.
          5    1    3    3  502    0 -0.17808086597E+02  0.70158090616E+02  0.71836826233E+03  0.72201781027E+03  0.41800000000E+01 0.  1.
         -5    1    3    3    0  502 -0.13030696674E+02  0.23435906344E+01  0.28225206592E+01  0.14167939008E+02  0.41800000000E+01 0.  1.
        -11    1    1    2    0    0 -0.22219393306E+02 -0.65239716269E+02  0.23371539464E+03  0.24366536010E+03  0.00000000000E+00 0.  1.
         11    1    1    2    0    0  0.53058176578E+02 -0.72619649812E+01  0.13077091691E+03  0.14131149616E+03  0.00000000000E+00 0. -1.
</event>
<event>
 7    1  0.2688177E-009  0.7229214E+02  0.7561462E-02  0.1352468E+00
          2   -1    0    0  501    0  0.00000000000E+00  0.00000000000E+00  0.60468561725E+03  0.60468561725E+03  0.00000000000E+00 0. -1.
         -2   -1    0    0    0  501 -0.00000000000E+00 -0.00000000000E+00 -0.24171107556E+02  0.24171107556E+02  0.00000000000E+00 0.  1.
         25    2    1    2    0    0  0.16232654751E+02  0.85548897369E+01  0.45530691266E+03  0.47253510649E+03  0.12509339283E+03 0.  0.
          5    1    3    3  502    0  0.83877157280E+01  0.33365683047E+02  0.44135739228E+03  0.44271598424E+03  0.41800000000E+01 0. -1.
         -5    1    3    3    0  502  0.78449390228E+01 -0.24810793310E+02  0.13949520382E+02  0.29819122252E+02  0.41800000000E+01 0. -1.
        -11    1    1    2    0    0  0.29033645175E+02 -0.21914507641E+02  0.21190738579E+02  0.42098047446E+02  0.00000000000E+00 0.  1.
         11    1    1    2    0    0 -0.45266299926E+02  0.13359617904E+02  0.10401685845E+03  0.11422357087E+03  0.00000000000E+00 0. -1.
</event>
<event>
 7    1  0.2688177E-009  0.2462519E+03  0.7561462E-02  0.1115697E+00
          1   -1    0    0  501    0  0.00000000000E+00  0.00000000000E+00  0.59472494214E+03  0.59472494214E+03  0.00000000000E+00 0. -1.
         -1   -1    0    0    0  501 -0.00000000000E+00 -0.00000000000E+00 -0.11379048697E+03  0.11379048697E+03  0.00000000000E+00 0.  1.
         25    2    1    2    0    0  0.23587685874E+03  0.46541387825E+01  0.22187855616E+03  0.34718250154E+03  0.12508414044E+03 0.  0.
          5    1    3    3  502    0  0.10555898417E+03  0.30565484364E+02  0.30429901234E+02  0.11410696413E+03  0.41800000000E+01 0.  1.
         -5    1    3    3    0  502  0.13031787457E+03 -0.25911345582E+02  0.19144865493E+03  0.23307553741E+03  0.41800000000E+01 0.  1.
        -11    1    1    2    0    0 -0.15836388186E+03 -0.41585633362E+02  0.14603214295E+03  0.21939432708E+03  0.00000000000E+00 0. -1.
         11    1    1    2    0    0 -0.77512976878E+02  0.36931494579E+02  0.11302375606E+03  0.14193860049E+03  0.00000000000E+00 0.  1.
</event>
<event>
 7    1  0.2688177E-009  0.1351015E+03  0.7561462E-02  0.1220076E+00
          2   -1    0    0  501    0  0.00000000000E+00  0.00000000000E+00  0.62392062351E+03  0.62392062351E+03  0.00000000000E+00 0. -1.
         -2   -1    0    0    0  501 -0.00000000000E+00 -0.00000000000E+00 -0.31421200629E+02  0.31421200629E+02  0.00000000000E+00 0.  1.
         25    2    1    2    0    0  0.66702288050E+02 -0.57320995799E+02  0.31063942305E+03  0.34623567527E+03  0.12508956746E+03 0.  0.
          5    1    3    3  502    0  0.73135468477E+02 -0.88552162242E+02  0.27598892397E+03  0.29896093514E+03  0.41800000000E+01 0. -1.
         -5    1    3    3    0  502 -0.64331804275E+01  0.31231166443E+02  0.34650499080E+02  0.47274740129E+02  0.41800000000E+01 0. -1.
        -11    1    1    2    0    0 -0.57824028969E+02  0.80030813675E+02  0.19073488965E+03  0.21477510934E+03  0.00000000000E+00 0.  1.
         11    1    1    2    0    0 -0.88782590807E+01 -0.22709817876E+02  0.91125110181E+02  0.94331039524E+02  0.00000000000E+00 0. -1.
</event>
<event>
 7    1  0.2688177E-009  0.1084271E+03  0.7561462E-02  0.1263511E+00
          2   -1    0    0  501    0  0.00000000000E+00  0.00000000000E+00  0.35606541152E+03  0.35606541152E+03  0.00000000000E+00 0. -1.
         -2   -1    0    0    0  501 -0.00000000000E+00 -0.00000000000E+00 -0.38609793123E+02  0.38609793123E+02  0.00000000000E+00 0.  1.
         25    2    1    2    0    0  0.31596851592E+02  0.22168201870E+02  0.21856611349E+03  0.25478300062E+03  0.12511371322E+03 0.  0.
          5    1    3    3  502    0  0.52053327223E+02 -0.34306635653E+02  0.66588152737E+02  0.91312368328E+02  0.41800000000E+01 0. -1.
         -5    1    3    3    0  502 -0.20456475631E+02  0.56474837523E+02  0.15197796075E+03  0.16347063229E+03  0.41800000000E+01 0. -1.
        -11    1    1    2    0    0  0.18292797477E+02 -0.37705372918E+02  0.23152026357E+02  0.47878365791E+02  0.00000000000E+00 0.  1.
         11    1    1    2    0    0 -0.49889649070E+02  0.15537171047E+02  0.75737478553E+02  0.92013838232E+02  0.00000000000E+00 0. -1.
</event>
<event>
 7    1  0.2688177E-009  0.1084898E+03  0.7561462E-02  0.1263392E+00
         -1   -1    0    0    0  501 -0.00000000000E+00  0.00000000000E+00  0.73005238200E+02  0.73005238200E+02  0.00000000000E+00 0.  1.
          1   -1    0    0  501    0  0.00000000000E+00 -0.00000000000E+00 -0.19312699453E+03  0.19312699453E+03  0.00000000000E+00 0. -1.
         25    2    1    2    0    0  0.17244134107E+02 -0.43453054316E+02 -0.46541427231E+02  0.14141818405E+03  0.12508984867E+03 0.  0.
          5    1    3    3  502    0  0.53910485967E+02 -0.66396036627E+02 -0.13185476380E+02  0.86637771003E+02  0.41800000000E+01 0. -1.
         -5    1    3    3    0  502 -0.36666351860E+02  0.22942982311E+02 -0.33355950851E+02  0.54780413044E+02  0.41800000000E+01 0. -1.
        -11    1    1    2    0    0  0.29173682281E+00 -0.21050259778E+02 -0.49282033289E+02  0.53590272925E+02  0.00000000000E+00 0. -1.
         11    1    1    2    0    0 -0.17535870930E+02  0.64503314094E+02 -0.24298295806E+02  0.71123775754E+02  0.00000000000E+00 0.  1.
</event>
<event>
 7    1  0.2688177E-009  0.9798957E+02  0.7561462E-02  0.1284581E+00
         -2   -1    0    0    0  501 -0.00000000000E+00  0.00000000000E+00  0.20262203130E+02  0.20262203130E+02  0.00000000000E+00 0.  1.
          2   -1    0    0  501    0  0.00000000000E+00 -0.00000000000E+00 -0.85138073777E+03  0.85138073777E+03  0.00000000000E+00 0. -1.
         25    2    1    2    0    0  0.28000361222E+02  0.85397616590E+01 -0.68819747017E+03  0.70008575928E+03  0.12508942656E+03 0.  0.
          5    1    3    3  502    0  0.88678634553E+01 -0.46329280340E+02 -0.12151298099E+03  0.13041440935E+03  0.41800000000E+01 0. -1.
         -5    1    3    3    0  502  0.19132497766E+02  0.54869041999E+02 -0.56668448919E+03  0.56967134992E+03  0.41800000000E+01 0. -1.
        -11    1    1    2    0    0 -0.54931601762E+01 -0.46181632513E+02 -0.99542733980E+02  0.10987116946E+03  0.00000000000E+00 0.  1.
         11    1    1    2    0    0 -0.22507201045E+02  0.37641870854E+02 -0.43378330485E+02  0.61686012158E+02  0.00000000000E+00 0. -1.
</event>
<event>
 7    1  0.2688177E-009  0.1477503E+03  0.7561462E-02  0.1203265E+00
         -1   -1    0    0    0  501 -0.00000000000E+00  0.00000000000E+00  0.23907729584E+02  0.23907729584E+02  0.00000000000E+00 0.  1.
          1   -1    0    0  501    0  0.00000000000E+00 -0.00000000000E+00 -0.97673408893E+03  0.97673408893E+03  0.00000000000E+00 0. -1.
         25    2    1    2    0    0  0.10643519009E+03 -0.10788282059E+02 -0.54244845362E+03  0.56687043104E+03  0.12508766539E+03 0.  0.
          5    1    3    3  502    0  0.12321875347E+03 -0.34091141029E+02 -0.35829305001E+03  0.38044243874E+03  0.41800000000E+01 0.  1.
         -5    1    3    3    0  502 -0.16783563385E+02  0.23302858970E+02 -0.18415540361E+03  0.18642799231E+03  0.41800000000E+01 0.  1.
        -11    1    1    2    0    0 -0.12121262075E+03  0.17173990083E+01 -0.37908009804E+03  0.39799141903E+03  0.00000000000E+00 0. -1.
         11    1    1    2    0    0  0.14777430661E+02  0.90708830506E+01 -0.31297807686E+02  0.35779968449E+02  0.00000000000E+00 0.  1.
</event>
<event>
 7    1  0.2688177E-009  0.1404747E+03  0.7561462E-02  0.1212692E+00
         -2   -1    0    0    0  501 -0.00000000000E+00  0.00000000000E+00  0.31860002237E+02  0.31860002237E+02  0.00000000000E+00 0.  1.
          2   -1    0    0  501    0  0.00000000000E+00 -0.00000000000E+00 -0.77730488902E+03  0.77730488902E+03  0.00000000000E+00 0. -1.
         25    2    1    2    0    0 -0.58602949632E+02  0.91021490426E+02 -0.48074618961E+03  0.50841371384E+03  0.12509351769E+03 0.  0.
          5    1    3    3  502    0  0.19793318139E+01 -0.17311387541E+02 -0.79937825784E+01  0.19620776053E+02  0.41800000000E+01 0.  1.
         -5    1    3    3    0  502 -0.60582281445E+02  0.10833287797E+03 -0.47275240703E+03  0.48879293778E+03  0.41800000000E+01 0.  1.
        -11    1    1    2    0    0 -0.80466098697E+01 -0.67775628219E+02 -0.16532390630E+03  0.17885826150E+03  0.00000000000E+00 0. -1.
         11    1    1    2    0    0  0.66649559501E+02 -0.23245862206E+02 -0.99374790878E+02  0.12189291593E+03  0.00000000000E+00 0.  1.
</event>
<event>
 7    1  0.2688177E-009  0.1236662E+03  0.7561462E-02  0.1237169E+00
         -2   -1    0    0    0  501 -0.00000000000E+00  0.00000000000E+00  0.20451855367E+03  0.20451855367E+03  0.00000000000E+00 0. -1.
          2   -1    0    0  501    0  0.00000000000E+00 -0.00000000000E+00 -0.13757906503E+03  0.13757906503E+03  0.00000000000E+00 0.  1.
         25    2    1    2    0    0  0.47307806295E+02 -0.63711997506E+02 -0.65371552719E+02  0.16190111557E+03  0.12506511966E+03 0.  0.
          5    1    3    3  502    0  0.72264578648E+02  0.70709809003E+01 -0.36523803364E+02  0.81385678779E+02  0.41800000000E+01 0. -1.
         -5    1    3    3    0  502 -0.24956772354E+02 -0.70782978407E+02 -0.28847749354E+02  0.80515436789E+02  0.41800000000E+01 0. -1.
        -11    1    1    2    0    0 -0.51380516110E+02  0.19380317733E+02  0.18431821620E+02  0.57924832321E+02  0.00000000000E+00 0.  1.
         11    1    1    2    0    0  0.40727098156E+01  0.44331679773E+02  0.11387921973E+03  0.12227167081E+03  0.00000000000E+00 0. -1.
</event>
<event>
 7    1  0.2688177E-009  0.1224054E+03  0.7561462E-02  0.1239181E+00
         -1   -1    0    0    0  501 -0.00000000000E+00  0.00000000000E+00  0.42143975047E+02  0.42143975047E+02  0.00000000000E+00 0.  1.
          1   -1    0    0  501    0  0.00000000000E+00 -0.00000000000E+00 -0.38430983405E+03  0.38430983405E+03  0.00000000000E+00 0. -1.
         25    2    1    2    0    0  0.46540539695E+01  0.67212519737E+02 -0.22587798756E+03  0.26682732163E+03  0.12504707625E+03 0.  0.
          5    1    3    3  502    0  0.28033664573E+02  0.98035919039E+02 -0.17746169144E+03  0.20471212006E+03  0.41800000000E+01 0. -1.
         -5    1    3    3    0  502 -0.23379610603E+02 -0.30823399302E+02 -0.48416296123E+02  0.62115201575E+02  0.41800000000E+01 0. -1.
        -11    1    1    2    0    0  0.34387984976E+02 -0.12406925950E+02 -0.66619999039E+02  0.75991378421E+02  0.00000000000E+00 0.  1.
         11    1    1    2    0    0 -0.39042038946E+02 -0.54805593787E+02 -0.49667872402E+02  0.83635109042E+02  0.00000000000E+00 0. -1.
</event>
<event>
 7    1  0.2688177E-009  0.9409154E+02  0.7561462E-02  0.1293235E+00
         -2   -1    0    0    0  501 -0.00000000000E+00  0.00000000000E+00  0.14953141325E+04  0.14953141325E+04  0.00000000000E+00 0.  1.
          2   -1    0    0  501    0  0.00000000000E+00 -0.00000000000E+00 -0.15128997310E+02  0.15128997310E+02  0.00000000000E+00 0. -1.
         25    2    1    2    0    0  0.78551420478E+02 -0.10821104470E+01  0.11468472848E+04  0.11563227454E+04  0.12510835407E+03 0.  0.
          5    1    3    3  502    0  0.53947384997E+02 -0.22238849134E+02  0.10830171381E+04  0.10845959988E+04  0.41800000000E+01 0.  1.
         -5    1    3    3    0  502  0.24604035481E+02  0.21156738687E+02  0.63830146774E+02  0.71726746692E+02  0.41800000000E+01 0.  1.
        -11    1    1    2    0    0 -0.15291551341E+02  0.25023465280E+02  0.25260310801E+02  0.38705150288E+02  0.00000000000E+00 0. -1.
         11    1    1    2    0    0 -0.63259869137E+02 -0.23941354834E+02  0.30807753952E+03  0.31541523405E+03  0.00000000000E+00 0.  1.
</event>
<event>
 7    1  0.2688177E-009  0.2127436E+03  0.7561462E-02  0.1139412E+00
          2   -1    0    0  501    0  0.00000000000E+00  0.00000000000E+00  0.16920215481E+04  0.16920215481E+04  0.00000000000E+00 0. -1.
         -2   -1    0    0    0  501 -0.00000000000E+00 -0.00000000000E+00 -0.42138641098E+02  0.42138641098E+02  0.00000000000E+00 0.  1.
         25    2    1    2    0    0  0.16129185448E+03 -0.98141232447E+02  0.13477990381E+04  0.13666957033E+04  0.12509250266E+03 0.  0.
          5    1    3    3  502    0  0.74860921618E+02 -0.10688355062E+03  0.61179731458E+03  0.62557307927E+03  0.41800000000E+01 0.  1.
         -5    1    3    3    0  502  0.86430932862E+02  0.87423181705E+01  0.73600172357E+03  0.74112262398E+03  0.41800000000E+01 0.  1.
        -11    1    1    2    0    0 -0.13050499473E+03  0.31064922349E+02  0.17498565945E+03  0.22049164171E+03  0.00000000000E+00 0.  1.
         11    1    1    2    0    0 -0.30786859752E+02  0.67076310098E+02  0.12709820938E+03  0.14697284422E+03  0.00000000000E+00 0. -1.
</event>
<event>
 7    1  0.2688177E-009  0.1358511E+03  0.7561462E-02  0.1219023E+00
         -1   -1    0    0    0  501 -0.00000000000E+00  0.00000000000E+00  0.49931668251E+03  0.49931668251E+03  0.00000000000E+00 0.  1.
          1   -1    0    0  501    0  0.00000000000E+00 -0.00000000000E+00 -0.61660600264E+02  0.61660600264E+02  0.00000000000E+00 0. -1.
         25    2    1    2    0    0  0.61237485555E+02 -0.84706789121E+02  0.37475253123E+03  0.40867147230E+03  0.12509053860E+03 0.  0.
          5    1    3    3  502    0  0.97191098769E+02 -0.69167095706E+02  0.31733091557E+03  0.33903772531E+03  0.41800000000E+01 0. -1.
         -5    1    3    3    0  502 -0.35953613214E+02 -0.15539693415E+02  0.57421615657E+02  0.69633746985E+02  0.41800000000E+01 0. -1.
        -11    1    1    2    0    0 -0.69153715840E+01  0.45332132706E+02  0.71214705972E+02  0.84701587745E+02  0.00000000000E+00 0.  1.
         11    1    1    2    0    0 -0.54322113971E+02  0.39374656415E+02 -0.83111549548E+01  0.67604222729E+02  0.00000000000E+00 0. -1.
</event>
<event>
 7    1  0.2688177E-009  0.9916331E+02  0.7561462E-02  0.1282065E+00
          2   -1    0    0  501    0  0.00000000000E+00  0.00000000000E+00  0.15027093927E+03  0.15027093927E+03  0.00000000000E+00 0.  1.
         -2   -1    0    0    0  501 -0.00000000000E+00 -0.00000000000E+00 -0.89436727303E+02  0.89436727303E+02  0.00000000000E+00 0. -1.
         25    2    1    2    0    0  0.25937231534E+01 -0.14430066890E+02  0.57489123188E+02  0.13844707107E+03  0.12509051912E+03 0.  0.
          5    1    3    3  502    0  0.49530892901E+02  0.86480465948E+01  0.68260070319E+02  0.84882316542E+02  0.41800000000E+01 0.  1.
         -5    1    3    3    0  502 -0.46937169747E+02 -0.23078113484E+02 -0.10770947131E+02  0.53564754531E+02  0.41800000000E+01 0.  1.
        -11    1    1    2    0    0 -0.18902161701E+02 -0.36945658868E+02 -0.15291244134E+02  0.44227769255E+02  0.00000000000E+00 0. -1.
         11    1    1    2    0    0  0.16308438547E+02  0.51375725757E+02  0.18636332911E+02  0.57032826244E+02  0.00000000000E+00 0.  1.
</event>
<event>
 7    1  0.2688177E-009  0.1141940E+03  0.7561462E-02  0.1252995E+00
          1   -1    0    0  501    0  0.00000000000E+00  0.00000000000E+00  0.25844581555E+02  0.25844581555E+02  0.00000000000E+00 0. -1.
         -1   -1    0    0    0  501 -0.00000000000E+00 -0.00000000000E+00 -0.85806567551E+03  0.85806567551E+03  0.00000000000E+00 0.  1.
         25    2    1    2    0    0  0.75531807025E+02 -0.67455764939E+02 -0.41844355924E+03  0.44832782294E+03  0.12508992948E+03 0.  0.
          5    1    3    3  502    0  0.28395548111E+02 -0.11871808060E+02 -0.88727011497E+01  0.32302386984E+02  0.41800000000E+01 0. -1.
         -5    1    3    3    0  502  0.47136258914E+02 -0.55583956879E+02 -0.40957085809E+03  0.41602543596E+03  0.41800000000E+01 0. -1.
        -11    1    1    2    0    0 -0.82123989542E+02  0.31795029068E+02 -0.36072887507E+03  0.37132276370E+03  0.00000000000E+00 0.  1.
         11    1    1    2    0    0  0.65921825175E+01  0.35660735871E+02 -0.53048659652E+02  0.64259670432E+02  0.00000000000E+00 0. -1.
</event>
<event>
 7    1  0.2688177E-009  0.1068720E+03  0.7561462E-02  0.1266475E+00
         -3   -1    0    0    0  501 -0.00000000000E+00  0.00000000000E+00  0.38204890138E+02  0.38204890138E+02  0.00000000000E+00 0.  1.
          3   -1    0    0  501    0  0.00000000000E+00 -0.00000000000E+00 -0.34048821729E+03  0.34048821729E+03  0.00000000000E+00 0. -1.
         25    2    1    2    0    0  0.94211256898E+01 -0.32303332166E+02 -0.14619323249E+03  0.19532515598E+03  0.12508873832E+03 0.  0.
          5    1    3    3  502    0  0.45611671670E+02 -0.65040622547E+02 -0.78405711188E+02  0.11169438267E+03  0.41800000000E+01 0. -1.
         -5    1    3    3    0  502 -0.36190545980E+02  0.32737290381E+02 -0.67787521300E+02  0.83630773306E+02  0.41800000000E+01 0. -1.
        -11    1    1    2    0    0 -0.31750802329E+02  0.48261398366E+02 -0.14024388862E+03  0.15167605057E+03  0.00000000000E+00 0. -1.
         11    1    1    2    0    0  0.22329676639E+02 -0.15958066200E+02 -0.15846206050E+02  0.31691900887E+02  0.00000000000E+00 0.  1.
</event>
<event>
 7    1  0.2688177E-009  0.1408634E+03  0.7561462E-02  0.1212172E+00
         -2   -1    0    0    0  501 -0.00000000000E+00  0.00000000000E+00  0.73080303842E+02  0.73080303842E+02  0.00000000000E+00 0.  1.
          2   -1    0    0  501    0  0.00000000000E+00 -0.00000000000E+00 -0.45549146490E+03  0.45549146490E+03  0.00000000000E+00 0. -1.
         25    2    1    2    0    0 -0.12380650627E+03  0.40233992575E+02 -0.10585776261E+03  0.20928606321E+03  0.12509182706E+03 0.  0.
          5    1    3    3  502    0  0.64490996513E+01 -0.55508380877E+01 -0.64362178015E+02  0.65056629552E+02  0.41800000000E+01 0.  1.
         -5    1    3    3    0  502 -0.13025560592E+03  0.45784830663E+02 -0.41495584592E+02  0.14422943366E+03  0.41800000000E+01 0.  1.
        -11    1    1    2    0    0  0.69889211197E+02 -0.57758433799E+01 -0.56315226632E+02  0.89940352230E+02  0.00000000000E+00 0.  1.
         11    1    1    2    0    0  0.53917295075E+02 -0.34458149196E+02 -0.22023817182E+03  0.22934535330E+03  0.00000000000E+00 0. -1.
</event>
<event>
 7    1  0.2688177E-009  0.1668510E+03  0.7561462E-02  0.1181172E+00
          2   -1    0    0  501    0  0.00000000000E+00  0.00000000000E+00  0.10667634008E+04  0.10667634008E+04  0.00000000000E+00 0. -1.
         -2   -1    0    0    0  501 -0.00000000000E+00 -0.00000000000E+00 -0.29108115976E+02  0.29108115976E+02  0.00000000000E+00 0.  1.
         25    2    1    2    0    0  0.10194072308E+02  0.13761993446E+03  0.57600923811E+03  0.60537329713E+03  0.12508805303E+03 0.  0.
          5    1    3    3  502    0  0.50410274422E+02  0.45765758664E+02  0.11623192304E+03  0.13477029631E+03  0.41800000000E+01 0.  1.
         -5    1    3    3    0  502 -0.40216202114E+02  0.91854175800E+02  0.45977731507E+03  0.47060300082E+03  0.41800000000E+01 0.  1.
        -11    1    1    2    0    0  0.20564933343E+02 -0.13232923287E+03  0.35673511114E+03  0.38104314963E+03  0.00000000000E+00 0.  1.
         11    1    1    2    0    0 -0.30759005651E+02 -0.52907015938E+01  0.10491093561E+03  0.10945507007E+03  0.00000000000E+00 0. -1.
</event>
<event>
 7    1  0.2688177E-009  0.1508953E+03  0.7561462E-02  0.1199377E+00
          2   -1    0    0  501    0  0.00000000000E+00  0.00000000000E+00  0.10404606984E+04  0.10404606984E+04  0.00000000000E+00 0. -1.
         -2   -1    0    0    0  501 -0.00000000000E+00 -0.00000000000E+00 -0.42016198328E+02  0.42016198328E+02  0.00000000000E+00 0.  1.
         25    2    1    2    0    0  0.12682655214E+03 -0.59484036988E+02  0.80598897115E+03  0.82757924035E+03  0.12508338206E+03 0.  0.
          5    1    3    3  502    0  0.10933055904E+03 -0.74921450440E+02  0.41062334084E+03  0.43150364462E+03  0.41800000000E+01 0.  1.
         -5    1    3    3    0  502  0.17495993101E+02  0.15437413453E+02  0.39536563030E+03  0.39607559573E+03  0.41800000000E+01 0.  1.
        -11    1    1    2    0    0 -0.10384721079E+03  0.29985899864E+02  0.74811236558E+02  0.13145386451E+03  0.00000000000E+00 0.  1.
         11    1    1    2    0    0 -0.22979341348E+02  0.29498137123E+02  0.11764429233E+03  0.12344379183E+03  0.00000000000E+00 0. -1.
</event>
<event>
 7    1  0.2688177E-009  0.9324610E+02  0.7561462E-02  0.1295176E+00
          2   -1    0    0  501    0  0.00000000000E+00  0.00000000000E+00  0.18497689144E+03  0.18497689144E+03  0.00000000000E+00 0.  1.
         -2   -1    0    0    0  501 -0.00000000000E+00 -0.00000000000E+00 -0.80487598620E+02  0.80487598620E+02  0.00000000000E+00 0. -1.
         25    2    1    2    0    0 -0.42476642567E+02 -0.33814215485E+02  0.47107311022E+02  0.14427084994E+03  0.12508922039E+03 0.  0.
          5    1    3    3  502    0  0.15257431828E+02  0.43558320118E+01 -0.33887458786E+02  0.37650959636E+02  0.41800000000E+01 0.  1.
         -5    1    3    3    0  502 -0.57734074395E+02 -0.38170047497E+02  0.80994769809E+02  0.10661989030E+03  0.41800000000E+01 0.  1.
        -11    1    1    2    0    0  0.52904963023E+02 -0.11590514153E+02  0.10630122865E+02  0.55193066982E+02  0.00000000000E+00 0. -1.
         11    1    1    2    0    0 -0.10428320456E+02  0.45404729638E+02  0.46751858935E+02  0.66000573140E+02  0.00000000000E+00 0.  1.
</event>
<event>
 7    1  0.2688177E-009  0.1910213E+03  0.7561462E-02  0.1157543E+00
         -4   -1    0    0    0  501 -0.00000000000E+00  0.00000000000E+00  0.70433040619E+03  0.70433040619E+03  0.00000000000E+00 0. -1.
          4   -1    0    0  501    0  0.00000000000E+00 -0.00000000000E+00 -0.90491973653E+02  0.90491973653E+02  0.00000000000E+00 0.  1.
         25    2    1    2    0    0 -0.63777388165E+02 -0.15502139282E+03  0.72633783172E+02  0.22140685331E+03  0.12508453446E+03 0.  0.
          5    1    3    3  502    0  0.21508412976E+02 -0.83653874602E+02 -0.35397244900E+01  0.86548163552E+02  0.41800000000E+01 0.  1.
         -5    1    3    3    0  502 -0.85285801141E+02 -0.71367518219E+02  0.76173507662E+02  0.13485868976E+03  0.41800000000E+01 0.  1.
        -11    1    1    2    0    0  0.99402842545E+01  0.11920515307E+03  0.28309826256E+03  0.30733256260E+03  0.00000000000E+00 0.  1.
         11    1    1    2    0    0  0.53837103911E+02  0.35816239752E+02  0.25810638681E+03  0.26608296394E+03  0.00000000000E+00 0. -1.
</event>
<event>
 7    1  0.2688177E-009  0.1045534E+03  0.7561462E-02  0.1271002E+00
          2   -1    0    0  501    0  0.00000000000E+00  0.00000000000E+00  0.82465607951E+03  0.82465607951E+03  0.00000000000E+00 0.  1.
         -2   -1    0    0    0  501 -0.00000000000E+00 -0.00000000000E+00 -0.19271075175E+02  0.19271075175E+02  0.00000000000E+00 0. -1.
         25    2    1    2    0    0 -0.86975564084E+01  0.46364630728E+02  0.59176729581E+03  0.60668097819E+03  0.12509176811E+03 0.  0.
          5    1    3    3  502    0 -0.46756499827E+02  0.57317435912E+02  0.51398106722E+03  0.51929323951E+03  0.41800000000E+01 0.  1.
         -5    1    3    3    0  502  0.38058943418E+02 -0.10952805184E+02  0.77786228583E+02  0.87387738686E+02  0.41800000000E+01 0.  1.
        -11    1    1    2    0    0  0.23534239537E+02 -0.66295618409E+02  0.19138385870E+03  0.20390377834E+03  0.00000000000E+00 0.  1.
         11    1    1    2    0    0 -0.14836683128E+02  0.19930987681E+02  0.22233849832E+02  0.33342398152E+02  0.00000000000E+00 0. -1.
</event>
<event>
 7    1  0.2688177E-009  0.1853063E+03  0.7561462E-02  0.1162764E+00
         -2   -1    0    0    0  501 -0.00000000000E+00  0.00000000000E+00  0.64929021921E+02  0.64929021921E+02  0.00000000000E+00 0. -1.
          2   -1    0    0  501    0  0.00000000000E+00 -0.00000000000E+00 -0.56473946139E+03  0.56473946139E+03  0.00000000000E+00 0.  1.
         25    2    1    2    0    0 -0.19328654139E+02 -0.15497262462E+03 -0.30484270060E+03  0.36464257648E+03  0.12508007524E+03 0.  0.
          5    1    3    3  502    0  0.39121252556E+02 -0.14030356334E+02 -0.34460846753E+02  0.54151137193E+02  0.41800000000E+01 0. -1.
         -5    1    3    3    0  502 -0.58449906695E+02 -0.14094226829E+03 -0.27038185384E+03  0.31049143929E+03  0.41800000000E+01 0. -1.
        -11    1    1    2    0    0  0.46680276765E+02  0.53000477136E+02 -0.10371365161E+03  0.12547756910E+03  0.00000000000E+00 0.  1.
         11    1    1    2    0    0 -0.27351622627E+02  0.10197214749E+03 -0.91254087263E+02  0.13954833774E+03  0.00000000000E+00 0. -1.
</event>
<event>
 7    1  0.2688177E-009  0.1016562E+03  0.7561462E-02  0.1276851E+00
          1   -1    0    0  501    0  0.00000000000E+00  0.00000000000E+00  0.20255078455E+03  0.20255078455E+03  0.00000000000E+00 0. -1.
         -1   -1    0    0    0  501 -0.00000000000E+00 -0.00000000000E+00 -0.67136959229E+02  0.67136959229E+02  0.00000000000E+00 0.  1.
         25    2    1    2    0    0 -0.42753087447E+02 -0.89878736702E+00  0.75819353906E+02  0.15239945478E+03  0.12509350537E+03 0.  0.
          5    1    3    3  502    0  0.39404291533E+02 -0.18604448287E+02  0.45015891704E+02  0.62791134670E+02  0.41800000000E+01 0. -1.
         -5    1    3    3    0  502 -0.82157378980E+02  0.17705660920E+02  0.30803462202E+02  0.89608320111E+02  0.41800000000E+01 0. -1.
        -11    1    1    2    0    0  0.59048043100E+02 -0.32083869321E+00  0.74573651302E+02  0.95120995579E+02  0.00000000000E+00 0. -1.
         11    1    1    2    0    0 -0.16294955653E+02  0.12196260602E+01 -0.14979179887E+02  0.22167293419E+02  0.00000000000E+00 0.  1.
</event>
<event>
 7    1  0.2688177E-009  0.8354278E+02  0.7561462E-02  0.1319288E+00
         -1   -1    0    0    0  501 -0.00000000000E+00  0.00000000000E+00  0.43225398163E+02  0.43225398163E+02  0.00000000000E+00 0.  1.
          1   -1    0    0  501    0  0.00000000000E+00 -0.00000000000E+00 -0.34320571203E+03  0.34320571203E+03  0.00000000000E+00 0. -1.
         25    2    1    2    0    0 -0.19508429675E+02  0.10803983295E+02 -0.98866867536E+02  0.16099976079E+03  0.12509580567E+03 0.  0.
          5    1    3    3  502    0 -0.14900162149E+01 -0.40557500092E+02  0.74615624503E+01  0.41476237489E+02  0.41800000000E+01 0. -1.
         -5    1    3    3    0  502 -0.18018413460E+02  0.51361483387E+02 -0.10632842999E+03  0.11952352330E+03  0.41800000000E+01 0. -1.
        -11    1    1    2    0    0 -0.25037540854E+02  0.26109283351E+01 -0.74414384983E+01  0.26250150585E+02  0.00000000000E+00 0.  1.
         11    1    1    2    0    0  0.44545970529E+02 -0.13414911630E+02 -0.19367200783E+03  0.19918119881E+03  0.00000000000E+00 0. -1.
</event>
<event>
 7    1  0.2688177E-009  0.1352570E+03  0.7561462E-02  0.1219857E+00
          2   -1    0    0  501    0  0.00000000000E+00  0.00000000000E+00  0.27091136538E+03  0.27091136538E+03  0.00000000000E+00 0. -1.
         -2   -1    0    0    0  501 -0.00000000000E+00 -0.00000000000E+00 -0.77611296439E+02  0.77611296439E+02  0.00000000000E+00 0.  1.
         25    2    1    2    0    0  0.79678442820E+02  0.54703107013E+02  0.10017659372E+03  0.18714428906E+03  0.12508617363E+03 0.  0.
          5    1    3    3  502    0  0.45446914928E+02 -0.29686169095E+02  0.74797350552E+02  0.92513819301E+02  0.41800000000E+01 0. -1.
         -5    1    3    3    0  502  0.34231527891E+02  0.84389276108E+02  0.25379243169E+02  0.94630469763E+02  0.41800000000E+01 0. -1.
        -11    1    1    2    0    0 -0.42260573032E+02  0.15776750564E+02  0.59793250245E+02  0.74900565193E+02  0.00000000000E+00 0. -1.
         11    1    1    2    0    0 -0.37417869788E+02 -0.70479857577E+02  0.33330224972E+02  0.86477807559E+02  0.00000000000E+00 0.  1.
</event>
<event>
 7    1  0.2688177E-009  0.2232692E+03  0.7561462E-02  0.1131469E+00
         -2   -1    0    0    0  501 -0.00000000000E+00  0.00000000000E+00  0.64246281952E+02  0.64246281952E+02  0.00000000000E+00 0.  1.
          2   -1    0    0  501    0  0.00000000000E+00 -0.00000000000E+00 -0.94829048177E+03  0.94829048177E+03  0.00000000000E+00 0. -1.
         25    2    1    2    0    0  0.21164888745E+03  0.13625358158E+01 -0.58931401442E+03  0.63854652579E+03  0.12511414763E+03 0.  0.
          5    1    3    3  502    0  0.40910209241E+01  0.24589142501E+02 -0.20359062569E+02  0.32454987441E+02  0.41800000000E+01 0. -1.
         -5    1    3    3    0  502  0.20755786653E+03 -0.23226606685E+02 -0.56895495185E+03  0.60609153834E+03  0.41800000000E+01 0. -1.
        -11    1    1    2    0    0 -0.19560787683E+03  0.33914741366E+01 -0.29844511519E+03  0.35685211273E+03  0.00000000000E+00 0.  1.
         11    1    1    2    0    0 -0.16041010617E+02 -0.47540099524E+01  0.37149297970E+01  0.17138125208E+02  0.00000000000E+00 0. -1.
</event>
<event>
 7    1  0.2688177E-009  0.1264336E+03  0.7561462E-02  0.1232846E+00
         -1   -1    0    0    0  501 -0.00000000000E+00  0.00000000000E+00  0.71056334309E+02  0.71056334309E+02  0.00000000000E+00 0. -1.
          1   -1    0    0  501    0  0.00000000000E+00 -0.00000000000E+00 -0.34967668504E+03  0.34967668504E+03  0.00000000000E+00 0.  1.
         25    2    1    2    0    0 -0.10178745643E+00 -0.96351084225E+02 -0.23553797653E+03  0.28356410158E+03  0.12508764739E+03 0.  0.
          5    1    3    3  502    0 -0.53863459137E+02 -0.34522697465E+02 -0.52089770839E+02  0.82606933707E+02  0.41800000000E+01 0. -1.
         -5    1    3    3    0  502  0.53761671680E+02 -0.61828386761E+02 -0.18344820569E+03  0.20095716788E+03  0.41800000000E+01 0. -1.
        -11    1    1    2    0    0 -0.22764056587E+02  0.53549672912E+02  0.16351165111E+02  0.60441131208E+02  0.00000000000E+00 0. -1.
         11    1    1    2    0    0  0.22865844044E+02  0.42801411314E+02 -0.59433539315E+02  0.76727786556E+02  0.00000000000E+00 0.  1.
</event>
<event>
 7    1  0.2688177E-009  0.1215372E+03  0.7561462E-02  0.1240582E+00
          2   -1    0    0  501    0  0.00000000000E+00  0.00000000000E+00  0.54489529013E+03  0.54489529013E+03  0.00000000000E+00 0. -1.
         -2   -1    0    0    0  501 -0.00000000000E+00 -0.00000000000E+00 -0.33888904811E+02  0.33888904811E+02  0.00000000000E+00 0.  1.
         25    2    1    2    0    0  0.13190835394E+02 -0.53695844853E+02  0.15789603486E+03  0.20889645912E+03  0.12509728580E+03 0.  0.
          5    1    3    3  502    0  0.42845234699E+02  0.26741716820E+02  0.52451397863E+02  0.72934594622E+02  0.41800000000E+01 0. -1.
         -5    1    3    3    0  502 -0.29654399305E+02 -0.80437561672E+02  0.10544463699E+03  0.13596186449E+03  0.41800000000E+01 0. -1.
        -11    1    1    2    0    0  0.28353902733E+02  0.58236590151E+02  0.16650825549E+03  0.17866293231E+03  0.00000000000E+00 0. -1.
         11    1    1    2    0    0 -0.41544738127E+02 -0.45407452979E+01  0.18660209497E+03  0.19122480352E+03  0.00000000000E+00 0.  1.
</event>
<event>
 7    1  0.2688177E-009  0.1100250E+03  0.7561462E-02  0.1260524E+00
          1   -1    0    0  501    0  0.00000000000E+00  0.00000000000E+00  0.53619186554E+02  0.53619186554E+02  0.00000000000E+00 0. -1.
         -1   -1    0    0    0  501 -0.00000000000E+00 -0.00000000000E+00 -0.35882769502E+03  0.35882769502E+03  0.00000000000E+00 0.  1.
         25    2    1    2    0    0 -0.33389382853E+02 -0.68378050830E+02 -0.22898363602E+03  0.27179387642E+03  0.12509195406E+03 0.  0.
          5    1    3    3  502    0 -0.21265648482E+02 -0.81747664744E+02 -0.64734361228E+02  0.10650313808E+03  0.41800000000E+01 0.  1.
         -5    1    3    3    0  502 -0.12123734371E+02  0.13369613914E+02 -0.16424927480E+03  0.16529073834E+03  0.41800000000E+01 0.  1.
        -11    1    1    2    0    0  0.60870083370E+02  0.25437800611E+02 -0.53032930879E+02  0.84644790194E+02  0.00000000000E+00 0.  1.
         11    1    1    2    0    0 -0.27480700517E+02  0.42940250219E+02 -0.23191941567E+02  0.56008214964E+02  0.00000000000E+00 0. -1.
</event>
<event>
 7    1  0.2688177E-009  0.8058112E+02  0.7561462E-02  0.1327410E+00
          2   -1    0    0  501    0  0.00000000000E+00  0.00000000000E+00  0.21252001317E+03  0.21252001317E+03  0.00000000000E+00 0. -1.
         -2   -1    0    0    0  501 -0.00000000000E+00 -0.00000000000E+00 -0.80872666049E+02  0.80872666049E+02  0.00000000000E+00 0.  1.
         25    2    1    2    0    0  0.58858508738E+01  0.23720427540E+02  0.14275822061E+03  0.19137730601E+03  0.12509221310E+03 0.  0.
          5    1    3    3  502    0  0.10207374762E+02  0.70696261723E+02  0.50195384469E+02  0.87402522522E+02  0.41800000000E+01 0.  1.
         -5    1    3    3    0  502 -0.43215238886E+01 -0.46975834183E+02  0.92562836141E+02  0.10397478348E+03  0.41800000000E+01 0.  1.
        -11    1    1    2    0    0  0.12601852894E+02 -0.55602360331E+00  0.40544549399E+02  0.42461468941E+02  0.00000000000E+00 0. -1.
         11    1    1    2    0    0 -0.18487703768E+02 -0.23164403937E+02 -0.51655422889E+02  0.59553904273E+02  0.00000000000E+00 0.  1.
</event>
<event>
 7    1  0.2688177E-009  0.1040806E+03  0.7561462E-02  0.1271942E+00
         -1   -1    0    0    0  501 -0.00000000000E+00  0.00000000000E+00  0.13681146150E+03  0.13681146150E+03  0.00000000000E+00 0.  1.
          1   -1    0    0  501    0  0.00000000000E+00 -0.00000000000E+00 -0.13162503560E+03  0.13162503560E+03  0.00000000000E+00 0. -1.
         25    2    1    2    0    0  0.20351714904E+02  0.60646084840E+02 -0.91121522485E+01  0.14079757099E+03  0.12509510290E+03 0.  0.
          5    1    3    3  502    0  0.56437077816E+02  0.17831417834E+02  0.35446769085E+02  0.69116199642E+02  0.41800000000E+01 0.  1.
         -5    1    3    3    0  502 -0.36085362912E+02  0.42814667006E+02 -0.44558921333E+02  0.71681371344E+02  0.41800000000E+01 0.  1.
        -11    1    1    2    0    0 -0.44075031753E+02 -0.50064883917E+02  0.50089577550E+02  0.83415027452E+02  0.00000000000E+00 0.  1.
         11    1    1    2    0    0  0.23723316849E+02 -0.10581200923E+02 -0.35790999398E+02  0.44223898666E+02  0.00000000000E+00 0. -1.
</event>
<event>
 7    1  0.2688177E-009  0.1075107E+03  0.7561462E-02  0.1265250E+00
          2   -1    0    0  501    0  0.00000000000E+00  0.00000000000E+00  0.22296537725E+03  0.22296537725E+03  0.00000000000E+00 0. -1.
         -2   -1    0    0    0  501 -0.00000000000E+00 -0.00000000000E+00 -0.10413673431E+03  0.10413673431E+03  0.00000000000E+00 0.  1.
         25    2    1    2    0    0  0.88082077757E+02 -0.88999730004E+01  0.12853585012E+03  0.20001668220E+03  0.12509015329E+03 0.  0.
          5    1    3    3  502    0  0.54845332110E+02 -0.53334792572E+01  0.15014621540E+03  0.15999317128E+03  0.41800000000E+01 0.  1.
         -5    1    3    3    0  502  0.33236745647E+02 -0.35664937433E+01 -0.21610365285E+02  0.40023510923E+02  0.41800000000E+01 0.  1.
        -11    1    1    2    0    0  0.10052324600E+02 -0.21168066190E+02  0.31553661413E+01  0.23645138857E+02  0.00000000000E+00 0.  1.
         11    1    1    2    0    0 -0.98134402357E+02  0.30068039191E+02 -0.12862573320E+02  0.10344029050E+03  0.00000000000E+00 0. -1.
</event>
<event>
 7    1  0.2688177E-009  0.9178483E+02  0.7561462E-02  0.1298586E+00
         -2   -1    0    0    0  501 -0.00000000000E+00  0.00000000000E+00  0.34744466822E+02  0.34744466822E+02  0.00000000000E+00 0.  1.
          2   -1    0    0  501    0  0.00000000000E+00 -0.00000000000E+00 -0.93261153383E+03  0.93261153383E+03  0.00000000000E+00 0. -1.
         25    2    1    2    0    0  0.22648117617E+02  0.18200804841E+02 -0.85683892540E+03  0.86640877544E+03  0.12508803122E+03 0.  0.
          5    1    3    3  502    0 -0.19536203923E+02 -0.33549561993E+02 -0.59077109449E+03  0.59206012774E+03  0.41800000000E+01 0. -1.
         -5    1    3    3    0  502  0.42184321541E+02  0.51750366834E+02 -0.26606783091E+03  0.27434864770E+03  0.41800000000E+01 0. -1.
        -11    1    1    2    0    0 -0.20177539522E+02 -0.45731329472E+02  0.17504245592E+01  0.50015513419E+02  0.00000000000E+00 0.  1.
         11    1    1    2    0    0 -0.24705780951E+01  0.27530524631E+02 -0.42778566168E+02  0.50931711792E+02  0.00000000000E+00 0. -1.
</event>
<event>
 7    1  0.2688177E-009  0.9228491E+02  0.7561462E-02  0.1297411E+00
         -1   -1    0    0    0  501 -0.00000000000E+00  0.00000000000E+00  0.88607517430E+02  0.88607517430E+02  0.00000000000E+00 0.  1.
          1   -1    0    0  501    0  0.00000000000E+00 -0.00000000000E+00 -0.23356370931E+03  0.23356370931E+03  0.00000000000E+00 0. -1.
         25    2    1    2    0    0 -0.32461100454E+02 -0.53065792290E+02  0.14185643058E+01  0.13971360993E+03  0.12509268212E+03 0.  0.
          5    1    3    3  502    0 -0.17709795905E+02  0.22188089291E+01 -0.55771251931E+02  0.58706600361E+02  0.41800000000E+01 0.  1.
         -5    1    3    3    0  502 -0.14751304549E+02 -0.55284601219E+02  0.57189816236E+02  0.81007009567E+02  0.41800000000E+01 0.  1.
        -11    1    1    2    0    0 -0.31049885989E+02  0.12291301397E+02 -0.42134024364E+02  0.53762882354E+02  0.00000000000E+00 0. -1.
         11    1    1    2    0    0  0.63510986442E+02  0.40774490892E+02 -0.10424073182E+03  0.12869473446E+03  0.00000000000E+00 0.  1.
</event>
<event>
 7    1  0.2688177E-009  0.1154345E+03  0.7561462E-02  0.1250825E+00
          3   -1    0    0  501    0  0.00000000000E+00  0.00000000000E+00  0.26334978538E+02  0.26334978538E+02  0.00000000000E+00 0. -1.
         -3   -1    0    0    0  501 -0.00000000000E+00 -0.00000000000E+00 -0.63576059986E+03  0.63576059986E+03  0.00000000000E+00 0.  1.
         25    2    1    2    0    0  0.77596774465E+01 -0.68189615857E+02 -0.31166622342E+03  0.34277254231E+03  0.12508854718E+03 0.  0.
          5    1    3    3  502    0  0.29393433277E+02 -0.90053736800E+02 -0.28949070311E+03  0.30462434082E+03  0.41800000000E+01 0. -1.
         -5    1    3    3    0  502 -0.21633755831E+02  0.21864120943E+02 -0.22175520312E+02  0.38148201492E+02  0.41800000000E+01 0. -1.
        -11    1    1    2    0    0 -0.21402806832E+02 -0.11404577130E+02 -0.14011629953E+03  0.14219958479E+03  0.00000000000E+00 0.  1.
         11    1    1    2    0    0  0.13643129385E+02  0.79594192987E+02 -0.15764309837E+03  0.17712345130E+03  0.00000000000E+00 0. -1.
</event>
<event>
 6    1  0.2688177E-009  0.1065272E+03  0.7561462E-02  0.1267139E+00
         -1   -1    0    0    0  501 -0.00000000000E+00  0.00000000000E+00  0.64791662154E+03  0.64791662154E+03  0.00000000000E+00 0.  1.
          1   -1    0    0  501    0  0.00000000000E+00 -0.00000000000E+00 -0.20304084969E+02  0.20304084969E+02  0.00000000000E+00 0. -1.
          5    1    1    2  502    0 -0.78020244614E+02  0.12094528975E+02  0.13350762837E+03  0.15516183627E+03  0.41800000000E+01 0. -1.
         -5    1    1    2    0  502  0.43999875545E+02 -0.61207188298E+01  0.15028483677E+03  0.15676880050E+03  0.41800000000E+01 0. -1.
        -11    1    1    2    0    0 -0.26648523319E+02  0.65096565941E+01  0.62885857825E+02  0.68608676845E+02  0.00000000000E+00 0.  1.
         11    1    1    2    0    0  0.60668892389E+02 -0.12483466739E+02  0.28093421361E+03  0.28768139290E+03  0.00000000000E+00 0. -1.
</event>
<event>
 7    1  0.2688177E-009  0.2287580E+03  0.7561462E-02  0.1127517E+00
         -2   -1    0    0    0  501 -0.00000000000E+00  0.00000000000E+00  0.12726405397E+03  0.12726405397E+03  0.00000000000E+00 0. -1.
          2   -1    0    0  501    0  0.00000000000E+00 -0.00000000000E+00 -0.12483040158E+04  0.12483040158E+04  0.00000000000E+00 0.  1.
         25    2    1    2    0    0 -0.18896139486E+03  0.10824556309E+03 -0.11102511009E+04  0.11383008086E+04  0.12509081930E+03 0.  0.
          5    1    3    3  502    0 -0.81118509417E+02  0.56142269024E+01 -0.63663259874E+03  0.64181794170E+03  0.41800000000E+01 0.  1.
         -5    1    3    3    0  502 -0.10784288545E+03  0.10263133619E+03 -0.47361850221E+03  0.49648286692E+03  0.41800000000E+01 0.  1.
        -11    1    1    2    0    0  0.11596306236E+03 -0.29231081836E+02  0.28157614575E+02  0.12286064966E+03  0.00000000000E+00 0. -1.
         11    1    1    2    0    0  0.72998332507E+02 -0.79014481255E+02 -0.38946475429E+02  0.11440661146E+03  0.00000000000E+00 0.  1.
</event>
<event>
 7    1  0.2688177E-009  0.9292565E+02  0.7561462E-02  0.1295918E+00
         -1   -1    0    0    0  501 -0.00000000000E+00  0.00000000000E+00  0.12295248882E+03  0.12295248882E+03  0.00000000000E+00 0.  1.
          1   -1    0    0  501    0  0.00000000000E+00 -0.00000000000E+00 -0.12555297760E+03  0.12555297760E+03  0.00000000000E+00 0. -1.
         25    2    1    2    0    0  0.47461516895E+02 -0.34350366119E+02 -0.18646359442E+02  0.13938086174E+03  0.12508714826E+03 0.  0.
          5    1    3    3  502    0  0.18631440883E+02  0.20638336877E+02 -0.58900638625E+02  0.65267366799E+02  0.41800000000E+01 0.  1.
         -5    1    3    3    0  502  0.28830076012E+02 -0.54988702996E+02  0.40254279183E+02  0.74113494942E+02  0.41800000000E+01 0.  1.
        -11    1    1    2    0    0 -0.46654087053E+02 -0.12776776964E+02  0.33525101892E+02  0.58853906626E+02  0.00000000000E+00 0.  1.
         11    1    1    2    0    0 -0.80742984252E+00  0.47127143083E+02 -0.17479231234E+02  0.50270698052E+02  0.00000000000E+00 0. -1.
</event>
<event>
 7    1  0.2688177E-009  0.3829653E+03  0.7561462E-02  0.1049843E+00
          2   -1    0    0  501    0  0.00000000000E+00  0.00000000000E+00  0.22351849904E+03  0.22351849904E+03  0.00000000000E+00 0. -1.
         -2   -1    0    0    0  501 -0.00000000000E+00 -0.00000000000E+00 -0.68588247316E+03  0.68588247316E+03  0.00000000000E+00 0.  1.
         25    2    1    2    0    0 -0.28608798977E+03 -0.24124187158E+03 -0.18641256128E+03  0.43639492018E+03  0.12508758875E+03 0.  0.
          5    1    3    3  502    0 -0.29343720789E+03 -0.23750511152E+03 -0.16299017591E+03  0.41121447301E+03  0.41800000000E+01 0.  1.
         -5    1    3    3    0  502  0.73492181207E+01 -0.37367600592E+01 -0.23422385379E+02  0.25180447167E+02  0.41800000000E+01 0.  1.
        -11    1    1    2    0    0  0.20335399236E+03  0.20524914185E+03 -0.24100951656E+03  0.37625210100E+03  0.00000000000E+00 0. -1.
         11    1    1    2    0    0  0.82733997412E+02  0.35992729732E+02 -0.34941896280E+02  0.96753951015E+02  0.00000000000E+00 0.  1.
</event>
<event>
 7    1  0.2688177E-009  0.1242777E+03  0.7561462E-02  0.1236202E+00
         -2   -1    0    0    0  501 -0.00000000000E+00  0.00000000000E+00  0.61439296189E+03  0.61439296189E+03  0.00000000000E+00 0.  1.
          2   -1    0    0  501    0  0.00000000000E+00 -0.00000000000E+00 -0.29052304609E+02  0.29052304609E+02  0.00000000000E+00 0. -1.
         25    2    1    2    0    0 -0.44711100052E+02  0.61439284640E+02  0.34211675274E+03  0.37211272294E+03  0.12510051122E+03 0.  0.
          5    1    3    3  502    0 -0.55282407061E+02 -0.23826335793E+02  0.14272090924E+03  0.15495344185E+03  0.41800000000E+01 0. -1.
         -5    1    3    3    0  502  0.10571307009E+02  0.85265620433E+02  0.19939584350E+03  0.21715928109E+03  0.41800000000E+01 0. -1.
        -11    1    1    2    0    0  0.13561313942E+02 -0.68850066073E+02  0.22222647254E+03  0.23304258395E+03  0.00000000000E+00 0.  1.
         11    1    1    2    0    0  0.31149786110E+02  0.74107814327E+01  0.20997431999E+02  0.38289959607E+02  0.00000000000E+00 0. -1.
</event>
<event>
 7    1  0.2688177E-009  0.1399640E+03  0.7561462E-02  0.1213377E+00
         -2   -1    0    0    0  501 -0.00000000000E+00  0.00000000000E+00  0.10779932891E+03  0.10779932891E+03  0.00000000000E+00 0.  1.
          2   -1    0    0  501    0  0.00000000000E+00 -0.00000000000E+00 -0.21079789273E+03  0.21079789273E+03  0.00000000000E+00 0. -1.
         25    2    1    2    0    0 -0.72594484596E+02  0.72440420497E+02 -0.48907647990E+02  0.16898984401E+03  0.12509210859E+03 0.  0.
          5    1    3    3  502    0  0.10217351962E+02 -0.26387349992E+02 -0.24574678060E+02  0.37710392764E+02  0.41800000000E+01 0.  1.
         -5    1    3    3    0  502 -0.82811836558E+02  0.98827770489E+02 -0.24332969930E+02  0.13127945125E+03  0.41800000000E+01 0.  1.
        -11    1    1    2    0    0  0.44443812952E+02  0.16933210630E+00 -0.56265337323E+02  0.71701250805E+02  0.00000000000E+00 0. -1.
         11    1    1    2    0    0  0.28150671644E+02 -0.72609752603E+02  0.21744214941E+01  0.77906126819E+02  0.00000000000E+00 0.  1.
</event>
<event>
 7    1  0.2688177E-009  0.5725049E+02  0.7561462E-02  0.1409746E+00
         -1   -1    0    0    0  501 -0.00000000000E+00  0.00000000000E+00  0.46619039327E+02  0.46619039327E+02  0.00000000000E+00 0.  1.
          1   -1    0    0  501    0  0.00000000000E+00 -0.00000000000E+00 -0.27165204809E+03  0.27165204809E+03  0.00000000000E+00 0. -1.
         25    2    1    2    0    0 -0.49383842263E+01  0.20183780960E+02 -0.11058230121E+03  0.16823411159E+03  0.12506997365E+03 0.  0.
          5    1    3    3  502    0 -0.12088870305E+02  0.17852579323E+02  0.24485937768E+02  0.32892079930E+02  0.41800000000E+01 0.  1.
         -5    1    3    3    0  502  0.71504860785E+01  0.23312016367E+01 -0.13506823898E+03  0.13534203166E+03  0.41800000000E+01 0.  1.
        -11    1    1    2    0    0  0.28698454046E+02  0.21565226216E+02 -0.13705034997E+02  0.38425098968E+02  0.00000000000E+00 0.  1.
         11    1    1    2    0    0 -0.23760069820E+02 -0.41749007176E+02 -0.10074567255E+03  0.11161187686E+03  0.00000000000E+00 0. -1.
</event>
<event>
 7    1  0.2688177E-009  0.1384257E+03  0.7561462E-02  0.1215463E+00
          2   -1    0    0  501    0  0.00000000000E+00  0.00000000000E+00  0.92262660251E+03  0.92262660251E+03  0.00000000000E+00 0.  1.
         -2   -1    0    0    0  501 -0.00000000000E+00 -0.00000000000E+00 -0.23507862604E+02  0.23507862604E+02  0.00000000000E+00 0. -1.
         25    2    1    2    0    0  0.79756416044E+02 -0.48823615721E+02  0.59560940477E+03  0.61574660524E+03  0.12509391457E+03 0.  0.
          5    1    3    3  502    0 -0.17263497133E+02 -0.46309294464E+02  0.31305237615E+03  0.31695716067E+03  0.41800000000E+01 0.  1.
         -5    1    3    3    0  502  0.97019913177E+02 -0.25143212573E+01  0.28255702862E+03  0.29878944457E+03  0.41800000000E+01 0.  1.
        -11    1    1    2    0    0  0.14683082915E+02  0.30582937210E+02  0.67958985897E+02  0.75956123758E+02  0.00000000000E+00 0. -1.
         11    1    1    2    0    0 -0.94439498959E+02  0.18240678511E+02  0.23555034924E+03  0.25443173612E+03  0.00000000000E+00 0.  1.
</event>
<event>
 7    1  0.2688177E-009  0.1549310E+03  0.7561462E-02  0.1194541E+00
          3   -1    0    0  501    0  0.00000000000E+00  0.00000000000E+00  0.79039798247E+03  0.79039798247E+03  0.00000000000E+00 0. -1.
         -3   -1    0    0    0  501 -0.00000000000E+00 -0.00000000000E+00 -0.49670158822E+02  0.49670158822E+02  0.00000000000E+00 0.  1.
         25    2    1    2    0    0 -0.13481312129E+03  0.37379518967E+02  0.20157472722E+03  0.27540933548E+03  0.12508447267E+03 0.  0.
          5    1    3    3  502    0 -0.80019234183E+02 -0.35581310295E+01  0.18957079269E+03  0.20584046244E+03  0.41800000000E+01 0.  1.
         -5    1    3    3    0  502 -0.54793887110E+02  0.40937649997E+02  0.12003934529E+02  0.69568873040E+02  0.41800000000E+01 0.  1.
        -11    1    1    2    0    0  0.14084962938E+02 -0.37865400659E+02  0.21478691931E+03  0.21855341557E+03  0.00000000000E+00 0. -1.
         11    1    1    2    0    0  0.12072815836E+03  0.48588169206E+00  0.32436617712E+03  0.34610539025E+03  0.00000000000E+00 0.  1.
</event>
<event>
 7    1  0.2688177E-009  0.1274745E+03  0.7561462E-02  0.1231252E+00
          4   -1    0    0  501    0  0.00000000000E+00  0.00000000000E+00  0.53298341644E+03  0.53298341644E+03  0.00000000000E+00 0. -1.
         -4   -1    0    0    0  501 -0.00000000000E+00 -0.00000000000E+00 -0.54795273751E+02  0.54795273751E+02  0.00000000000E+00 0.  1.
         25    2    1    2    0    0  0.87318132258E+00 -0.10726271937E+03  0.12554780330E+03  0.20716185015E+03  0.12509087829E+03 0.  0.
          5    1    3    3  502    0 -0.40623686355E+01  0.14387556793E+02 -0.14709612387E+02  0.21385736508E+02  0.41800000000E+01 0.  1.
         -5    1    3    3    0  502  0.49355499581E+01 -0.12165027616E+03  0.14025741569E+03  0.18577611364E+03  0.41800000000E+01 0.  1.
        -11    1    1    2    0    0  0.22470723325E+02  0.71049588465E+02  0.31407064305E+03  0.32278994138E+03  0.00000000000E+00 0. -1.
         11    1    1    2    0    0 -0.23343904648E+02  0.36213130903E+02  0.38569696336E+02  0.57826898668E+02  0.00000000000E+00 0.  1.
</event>
<event>
 7    1  0.2739245E-009  0.1299709E+03  0.7561462E-02  0.1227499E+00
         -2   -1    0    0    0  501 -0.00000000000E+00  0.00000000000E+00  0.26023655428E+02  0.26023655428E+02  0.00000000000E+00 0.  1.
          2   -1    0    0  501    0  0.00000000000E+00 -0.00000000000E+00 -0.88293453841E+03  0.88293453841E+03  0.00000000000E+00 0. -1.
         25    2    1    2    0    0 -0.74031387667E+02 -0.74979893335E+02 -0.45805395779E+03  0.48637395224E+03  0.12507422756E+03 0.  0.
          5    1    3    3  502    0 -0.41541471425E+02  0.13875950139E+01 -0.32896731131E+02  0.53172235116E+02  0.41800000000E+01 0.  1.
         -5    1    3    3    0  502 -0.32489916242E+02 -0.76367488349E+02 -0.42515722666E+03  0.43320171712E+03  0.41800000000E+01 0.  1.
        -11    1    1    2    0    0  0.37245329924E+02 -0.13208208719E+02 -0.17092540600E+03  0.17543422070E+03  0.00000000000E+00 0. -1.
         11    1    1    2    0    0  0.36786057743E+02  0.88188102054E+02 -0.22793151919E+03  0.24715002090E+03  0.00000000000E+00 0.  1.
</event>
<event>
 7    1  0.2688177E-009  0.1090508E+03  0.7561462E-02  0.1262338E+00
         -1   -1    0    0    0  501 -0.00000000000E+00  0.00000000000E+00  0.73147663292E+02  0.73147663292E+02  0.00000000000E+00 0.  1.
          1   -1    0    0  501    0  0.00000000000E+00 -0.00000000000E+00 -0.23290837456E+03  0.23290837456E+03  0.00000000000E+00 0. -1.
         25    2    1    2    0    0  0.35925092717E+02  0.63014014781E+02 -0.90748953076E+02  0.17071905826E+03  0.12509294954E+03 0.  0.
          5    1    3    3  502    0 -0.20545593814E+02  0.36622935270E+01 -0.85952203354E+02  0.88548221216E+02  0.41800000000E+01 0.  1.
         -5    1    3    3    0  502  0.56470686531E+02  0.59351721254E+02 -0.47967497213E+01  0.82170837047E+02  0.41800000000E+01 0.  1.
        -11    1    1    2    0    0 -0.31733229549E+02  0.16084874572E+02 -0.32224177304E+02  0.48001235926E+02  0.00000000000E+00 0.  1.
         11    1    1    2    0    0 -0.41918631681E+01 -0.79098889353E+02 -0.36787580893E+02  0.87335743666E+02  0.00000000000E+00 0. -1.
</event>
<event>
 7    1  0.2688177E-009  0.1454467E+03  0.7561462E-02  0.1206182E+00
          1   -1    0    0  501    0  0.00000000000E+00  0.00000000000E+00  0.15821114519E+04  0.15821114519E+04  0.00000000000E+00 0. -1.
         -1   -1    0    0    0  501 -0.00000000000E+00 -0.00000000000E+00 -0.17858075913E+02  0.17858075913E+02  0.00000000000E+00 0.  1.
         25    2    1    2    0    0  0.32813951824E+02 -0.99858357276E+02  0.11491802819E+04  0.11607363852E+04  0.12508072820E+03 0.  0.
          5    1    3    3  502    0 -0.29710263630E+02 -0.93515981952E+02  0.60440722318E+03  0.61233446945E+03  0.41800000000E+01 0.  1.
         -5    1    3    3    0  502  0.62524215455E+02 -0.63423753246E+01  0.54477305875E+03  0.54840191574E+03  0.41800000000E+01 0.  1.
        -11    1    1    2    0    0  0.22819682606E+02  0.50129258837E+02  0.27563557381E+03  0.28108477379E+03  0.00000000000E+00 0.  1.
         11    1    1    2    0    0 -0.55633634430E+02  0.49729098439E+02  0.13943752019E+03  0.15814836879E+03  0.00000000000E+00 0. -1.
</event>
<event>
 7    1  0.2688177E-009  0.7861393E+02  0.7561462E-02  0.1333032E+00
          1   -1    0    0  501    0  0.00000000000E+00  0.00000000000E+00  0.16190324555E+02  0.16190324555E+02  0.00000000000E+00 0. -1.
         -1   -1    0    0    0  501 -0.00000000000E+00 -0.00000000000E+00 -0.10114225387E+04  0.10114225387E+04  0.00000000000E+00 0.  1.
         25    2    1    2    0    0  0.19930520291E+01  0.59621533725E+02 -0.62363503340E+03  0.63884868745E+03  0.12509312945E+03 0.  0.
          5    1    3    3  502    0 -0.13021393394E-01 -0.49109176049E+01 -0.49326690773E+03  0.49330906331E+03  0.41800000000E+01 0.  1.
         -5    1    3    3    0  502  0.20060734225E+01  0.64532451330E+02 -0.13036812567E+03  0.14553962414E+03  0.41800000000E+01 0.  1.
        -11    1    1    2    0    0  0.43911155400E+01  0.12720396756E+02 -0.39670024620E+01  0.14029522367E+02  0.00000000000E+00 0. -1.
         11    1    1    2    0    0 -0.63841675692E+01 -0.72341930481E+02 -0.36763017832E+03  0.37473465348E+03  0.00000000000E+00 0.  1.
</event>
<event>
 7    1  0.2688177E-009  0.1557908E+03  0.7561462E-02  0.1193533E+00
          2   -1    0    0  501    0  0.00000000000E+00  0.00000000000E+00  0.15381020521E+04  0.15381020521E+04  0.00000000000E+00 0.  1.
         -2   -1    0    0    0  501 -0.00000000000E+00 -0.00000000000E+00 -0.22096297005E+02  0.22096297005E+02  0.00000000000E+00 0. -1.
         25    2    1    2    0    0  0.85139787852E+02  0.10871284624E+03  0.10303942501E+04  0.10471044755E+04  0.12509278750E+03 0.  0.
          5    1    3    3  502    0  0.94804343037E+02  0.91009488102E+02  0.10085332355E+04  0.10170680164E+04  0.41800000000E+01 0. -1.
         -5    1    3    3    0  502 -0.96645551852E+01  0.17703358141E+02  0.21861014594E+02  0.30036459103E+02  0.41800000000E+01 0. -1.
        -11    1    1    2    0    0 -0.32713103759E+02 -0.10142318342E+03  0.25285497178E+03  0.27439469027E+03  0.00000000000E+00 0.  1.
         11    1    1    2    0    0 -0.52426684093E+02 -0.72896628192E+01  0.23275653322E+03  0.23869918338E+03  0.00000000000E+00 0. -1.
</event>
<event>
 7    1  0.2688177E-009  0.1041729E+03  0.7561462E-02  0.1271758E+00
         -1   -1    0    0    0  501 -0.00000000000E+00  0.00000000000E+00  0.12037822237E+02  0.12037822237E+02  0.00000000000E+00 0.  1.
          1   -1    0    0  501    0  0.00000000000E+00 -0.00000000000E+00 -0.19503978172E+04  0.19503978172E+04  0.00000000000E+00 0. -1.
         25    2    1    2    0    0 -0.46277351435E+02  0.37230660095E+02 -0.16276014285E+04  0.16334812463E+04  0.12508739705E+03 0.  0.
          5    1    3    3  502    0  0.29069194118E+02 -0.79223915521E+01 -0.13922416977E+03  0.14250833023E+03  0.41800000000E+01 0. -1.
         -5    1    3    3    0  502 -0.75346545553E+02  0.45153051647E+02 -0.14883772587E+04  0.14909729161E+04  0.41800000000E+01 0. -1.
        -11    1    1    2    0    0  0.62972821397E+02 -0.37495896224E+02 -0.30060828680E+03  0.30941373687E+03  0.00000000000E+00 0. -1.
         11    1    1    2    0    0 -0.16695469962E+02  0.26523612897E+00 -0.10150279673E+02  0.19540656205E+02  0.00000000000E+00 0.  1.
</event>
<event>
 7    1  0.2688177E-009  0.9934227E+02  0.7561462E-02  0.1281685E+00
          2   -1    0    0  501    0  0.00000000000E+00  0.00000000000E+00  0.38148177821E+03  0.38148177821E+03  0.00000000000E+00 0. -1.
         -2   -1    0    0    0  501 -0.00000000000E+00 -0.00000000000E+00 -0.67322165635E+02  0.67322165635E+02  0.00000000000E+00 0.  1.
         25    2    1    2    0    0 -0.29602392057E+02 -0.58426042719E+02  0.30357274195E+03  0.33480391234E+03  0.12508935198E+03 0.  0.
          5    1    3    3  502    0  0.28309257215E+00  0.19690804275E+02  0.20271334884E+03  0.20371053511E+03  0.41800000000E+01 0.  1.
         -5    1    3    3    0  502 -0.29885484629E+02 -0.78116846994E+02  0.10085939310E+03  0.13109337723E+03  0.41800000000E+01 0.  1.
        -11    1    1    2    0    0  0.43695790879E+02  0.10617004103E+02  0.36414809174E+02  0.57862606612E+02  0.00000000000E+00 0. -1.
         11    1    1    2    0    0 -0.14093398822E+02  0.47809038616E+02 -0.25827938551E+02  0.56137424892E+02  0.00000000000E+00 0.  1.
</event>
<event>
 7    1  0.2688177E-009  0.3307836E+03  0.7561462E-02  0.1070791E+00
         -1   -1    0    0    0  501 -0.00000000000E+00  0.00000000000E+00  0.14409409478E+03  0.14409409478E+03  0.00000000000E+00 0.  1.
          1   -1    0    0  501    0  0.00000000000E+00 -0.00000000000E+00 -0.80550382804E+03  0.80550382804E+03  0.00000000000E+00 0. -1.
         25    2    1    2    0    0 -0.31377949367E+03  0.63812318489E+02 -0.38592665682E+03  0.51683757604E+03  0.12510840470E+03 0.  0.
          5    1    3    3  502    0 -0.31006798507E+03  0.36976721097E+02 -0.32878143018E+03  0.45345797435E+03  0.41800000000E+01 0.  1.
         -5    1    3    3    0  502 -0.37115086003E+01  0.26835597392E+02 -0.57145226634E+02  0.63379601691E+02  0.41800000000E+01 0.  1.
        -11    1    1    2    0    0  0.13935214491E+03 -0.44929555657E+02 -0.69163864882E+02  0.16193000175E+03  0.00000000000E+00 0.  1.
         11    1    1    2    0    0  0.17442734876E+03 -0.18882762833E+02 -0.20631921156E+03  0.27083034503E+03  0.00000000000E+00 0. -1.
</event>
<event>
 7    1  0.2688177E-009  0.1181152E+03  0.7561462E-02  0.1246239E+00
          1   -1    0    0  501    0  0.00000000000E+00  0.00000000000E+00  0.34136240451E+03  0.34136240451E+03  0.00000000000E+00 0. -1.
         -1   -1    0    0    0  501 -0.00000000000E+00 -0.00000000000E+00 -0.48020255911E+02  0.48020255911E+02  0.00000000000E+00 0.  1.
         25    2    1    2    0    0 -0.57016186867E+02 -0.30273706857E+01  0.11107879430E+03  0.17676297258E+03  0.12508652762E+03 0.  0.
          5    1    3    3  502    0 -0.89486054057E+01  0.53662072746E+02  0.17742384075E+02  0.57375606164E+02  0.41800000000E+01 0.  1.
         -5    1    3    3    0  502 -0.48067581461E+02 -0.56689443432E+02  0.93336410229E+02  0.11938736641E+03  0.41800000000E+01 0.  1.
        -11    1    1    2    0    0 -0.17468652865E+02 -0.22501557229E+02  0.31070535227E+02  0.42152723162E+02  0.00000000000E+00 0.  1.
         11    1    1    2    0    0  0.74484839732E+02  0.25528927915E+02  0.15119281907E+03  0.17046696468E+03  0.00000000000E+00 0. -1.
</event>
<event>
 7    1  0.2688177E-009  0.4461854E+03  0.7561462E-02  0.1028866E+00
          1   -1    0    0  501    0  0.00000000000E+00  0.00000000000E+00  0.66682418463E+03  0.66682418463E+03  0.00000000000E+00 0. -1.
         -1   -1    0    0    0  501 -0.00000000000E+00 -0.00000000000E+00 -0.30491821344E+03  0.30491821344E+03  0.00000000000E+00 0.  1.
         25    2    1    2    0    0  0.21166034126E+03 -0.38265874887E+03  0.19382435505E+03  0.49441437606E+03  0.12509946642E+03 0.  0.
          5    1    3    3  502    0 -0.85804989746E+01 -0.53174626024E+02  0.47474681487E+02  0.71919980519E+02  0.41800000000E+01 0. -1.
         -5    1    3    3    0  502  0.22024084024E+03 -0.32948412284E+03  0.14634967356E+03  0.42249439554E+03  0.41800000000E+01 0. -1.
        -11    1    1    2    0    0 -0.77668906053E+02  0.20691784281E+03  0.49346964583E+02  0.22645656439E+03  0.00000000000E+00 0.  1.
         11    1    1    2    0    0 -0.13399143521E+03  0.17574090605E+03  0.11873465155E+03  0.25087145762E+03  0.00000000000E+00 0. -1.
</event>
<event>
 7    1  0.2688177E-009  0.2391517E+03  0.7561462E-02  0.1120359E+00
         -2   -1    0    0    0  501 -0.00000000000E+00  0.00000000000E+00  0.10116074907E+03  0.10116074907E+03  0.00000000000E+00 0. -1.
          2   -1    0    0  501    0  0.00000000000E+00 -0.00000000000E+00 -0.69759517504E+03  0.69759517504E+03  0.00000000000E+00 0.  1.
         25    2    1    2    0    0 -0.21689072560E+03  0.21836246314E+02 -0.14827864176E+03  0.29181146255E+03  0.12509582555E+03 0.  0.
          5    1    3    3  502    0 -0.20132213838E+03  0.58685395735E+02 -0.13509588254E+03  0.24948536822E+03  0.41800000000E+01 0.  1.
         -5    1    3    3    0  502 -0.15568587220E+02 -0.36849149420E+02 -0.13182759222E+02  0.42326094336E+02  0.41800000000E+01 0.  1.
        -11    1    1    2    0    0  0.17971315257E+03 -0.44047849327E+02 -0.29893879169E+03  0.35156995237E+03  0.00000000000E+00 0. -1.
         11    1    1    2    0    0  0.37177573037E+02  0.22211603013E+02 -0.14921699252E+03  0.15537450918E+03  0.00000000000E+00 0.  1.
</event>
<event>
 7    1  0.2688177E-009  0.1200217E+03  0.7561462E-02  0.1243061E+00
         -1   -1    0    0    0  501 -0.00000000000E+00  0.00000000000E+00  0.22495715077E+02  0.22495715077E+02  0.00000000000E+00 0.  1.
          1   -1    0    0  501    0  0.00000000000E+00 -0.00000000000E+00 -0.97729003578E+03  0.97729003578E+03  0.00000000000E+00 0. -1.
         25    2    1    2    0    0  0.70433091365E+02  0.21631506634E+02 -0.28676466244E+03  0.32141883298E+03  0.12508937656E+03 0.  0.
          5    1    3    3  502    0 -0.48774368315E+01  0.43156720948E+02 -0.30025687221E+02  0.52965141802E+02  0.41800000000E+01 0.  1.
         -5    1    3    3    0  502  0.75310528196E+02 -0.21525214314E+02 -0.25673897522E+03  0.26845369117E+03  0.41800000000E+01 0.  1.
        -11    1    1    2    0    0 -0.27422422382E+02 -0.56369966411E+02 -0.35335301541E+03  0.35887033293E+03  0.00000000000E+00 0.  1.
         11    1    1    2    0    0 -0.43010668983E+02  0.34738459778E+02 -0.31467664286E+03  0.31949658495E+03  0.00000000000E+00 0. -1.
</event>
<event>
 7    1  0.2688177E-009  0.8586132E+02  0.7561462E-02  0.1313195E+00
         -1   -1    0    0    0  501 -0.00000000000E+00  0.00000000000E+00  0.12873019401E+03  0.12873019401E+03  0.00000000000E+00 0.  1.
          1   -1    0    0  501    0  0.00000000000E+00 -0.00000000000E+00 -0.15821619525E+03  0.15821619525E+03  0.00000000000E+00 0. -1.
         25    2    1    2    0    0 -0.12026113599E+02  0.20231675741E+02 -0.59199596961E+02  0.14037881212E+03  0.12509064913E+03 0.  0.
          5    1    3    3  502    0 -0.94851262377E+01 -0.52490288170E+02 -0.33337801281E+02  0.63040299541E+02  0.41800000000E+01 0.  1.
         -5    1    3    3    0  502 -0.25409873617E+01  0.72721963912E+02 -0.25861795680E+02  0.77338512578E+02  0.41800000000E+01 0.  1.
        -11    1    1    2    0    0  0.22416423367E+02  0.19248114448E+00 -0.54691333880E+02  0.59107318389E+02  0.00000000000E+00 0. -1.
         11    1    1    2    0    0 -0.10390309768E+02 -0.20424156886E+02  0.84404929592E+02  0.87460258752E+02  0.00000000000E+00 0.  1.
</event>
<event>
 7    1  0.2688177E-009  0.4685562E+03  0.7561462E-02  0.1022329E+00
          2   -1    0    0  501    0  0.00000000000E+00  0.00000000000E+00  0.15101354323E+04  0.15101354323E+04  0.00000000000E+00 0. -1.
         -2   -1    0    0    0  501 -0.00000000000E+00 -0.00000000000E+00 -0.17479892343E+03  0.17479892343E+03  0.00000000000E+00 0.  1.
         25    2    1    2    0    0  0.14344412214E+03 -0.43597080608E+03  0.33919031816E+03  0.58424753152E+03  0.12509335001E+03 0.  0.
          5    1    3    3  502    0  0.15815068516E+03 -0.42220214258E+03  0.33825906042E+03  0.56365144617E+03  0.41800000000E+01 0. -1.
         -5    1    3    3    0  502 -0.14706563021E+02 -0.13768663500E+02  0.93125773899E+00  0.20596085343E+02  0.41800000000E+01 0. -1.
        -11    1    1    2    0    0 -0.62074717222E+02  0.84200967369E+02  0.27448625125E+03  0.29374440513E+03  0.00000000000E+00 0. -1.
         11    1    1    2    0    0 -0.81369404917E+02  0.35176983871E+03  0.72165993950E+03  0.80694241911E+03  0.00000000000E+00 0.  1.
</event>
<event>
 7    1  0.2688177E-009  0.2289619E+03  0.7561462E-02  0.1127373E+00
         -1   -1    0    0    0  501 -0.00000000000E+00  0.00000000000E+00  0.13645314131E+03  0.13645314131E+03  0.00000000000E+00 0.  1.
          1   -1    0    0  501    0  0.00000000000E+00 -0.00000000000E+00 -0.40532649199E+03  0.40532649199E+03  0.00000000000E+00 0. -1.
         25    2    1    2    0    0 -0.15187334037E+03  0.13898205975E+03 -0.99190770523E+02  0.26051493485E+03  0.12509075855E+03 0.  0.
          5    1    3    3  502    0 -0.53281836505E+02  0.12839756759E+03 -0.38994577953E+02  0.14444008784E+03  0.41800000000E+01 0.  1.
         -5    1    3    3    0  502 -0.98591503861E+02  0.10584492160E+02 -0.60196192569E+02  0.11607484701E+03  0.41800000000E+01 0.  1.
        -11    1    1    2    0    0 -0.19001523938E+01 -0.32507809319E+02 -0.68459616140E+01  0.33275147426E+02  0.00000000000E+00 0.  1.
         11    1    1    2    0    0  0.15377349276E+03 -0.10647425043E+03 -0.16283661855E+03  0.24798955103E+03  0.00000000000E+00 0. -1.
</event>
<event>
 7    1  0.2695678E-009  0.8658250E+02  0.7561462E-02  0.1311345E+00
         -1   -1    0    0    0  501 -0.00000000000E+00  0.00000000000E+00  0.22598862322E+02  0.22598862322E+02  0.00000000000E+00 0.  1.
          1   -1    0    0  501    0  0.00000000000E+00 -0.00000000000E+00 -0.73351048070E+03  0.73351048070E+03  0.00000000000E+00 0. -1.
         25    2    1    2    0    0  0.26194543728E+02 -0.54304102814E+02 -0.49001731173E+03  0.50931306565E+03  0.12509094029E+03 0.  0.
          5    1    3    3  502    0 -0.18453573201E+02  0.90292197681E+01 -0.33785610165E+03  0.33850595120E+03  0.41800000000E+01 0.  1.
         -5    1    3    3    0  502  0.44648116929E+02 -0.63333322582E+02 -0.15216121008E+03  0.17080711445E+03  0.41800000000E+01 0.  1.
        -11    1    1    2    0    0  0.12214692921E+02  0.88210038241E+01  0.27923480472E+01  0.15323382108E+02  0.00000000000E+00 0.  1.
         11    1    1    2    0    0 -0.38409236649E+02  0.45483098990E+02 -0.22368665469E+03  0.23147289526E+03  0.00000000000E+00 0. -1.
</event>
<event>
 7    1  0.2688177E-009  0.1362317E+03  0.7561462E-02  0.1218491E+00
         -3   -1    0    0    0  501 -0.00000000000E+00  0.00000000000E+00  0.76074554420E+02  0.76074554420E+02  0.00000000000E+00 0.  1.
          3   -1    0    0  501    0  0.00000000000E+00 -0.00000000000E+00 -0.30080416620E+03  0.30080416620E+03  0.00000000000E+00 0. -1.
         25    2    1    2    0    0  0.15557015937E+02  0.94809367502E+02 -0.17450511115E+03  0.23521475037E+03  0.12507241127E+03 0.  0.
          5    1    3    3  502    0  0.53860282811E+01  0.12517743908E+03 -0.13623471696E+03  0.18513716823E+03  0.41800000000E+01 0.  1.
         -5    1    3    3    0  502  0.10170987656E+02 -0.30368071576E+02 -0.38270394192E+02  0.50077582137E+02  0.41800000000E+01 0.  1.
        -11    1    1    2    0    0 -0.37117317645E+02 -0.81266900773E+02 -0.46539430945E+01  0.89463196996E+02  0.00000000000E+00 0.  1.
         11    1    1    2    0    0  0.21560301708E+02 -0.13542466729E+02 -0.45570557529E+02  0.52200773255E+02  0.00000000000E+00 0. -1.
</event>
<event>
 7    1  0.2688177E-009  0.1941723E+03  0.7561462E-02  0.1154751E+00
         -1   -1    0    0    0  501 -0.00000000000E+00  0.00000000000E+00  0.35585774161E+02  0.35585774161E+02  0.00000000000E+00 0.  1.
          1   -1    0    0  501    0  0.00000000000E+00 -0.00000000000E+00 -0.15054494004E+04  0.15054494004E+04  0.00000000000E+00 0. -1.
         25    2    1    2    0    0 -0.13420860797E+03  0.76435798621E+02 -0.90170890595E+03  0.92335280735E+03  0.12508826492E+03 0.  0.
          5    1    3    3  502    0  0.18912611095E+02 -0.92287769507E+01 -0.14360259454E+03  0.14519653833E+03  0.41800000000E+01 0. -1.
         -5    1    3    3    0  502 -0.15312121907E+03  0.85664575571E+02 -0.75810631140E+03  0.77815626903E+03  0.41800000000E+01 0. -1.
        -11    1    1    2    0    0  0.27797452548E+02 -0.80226486072E+02 -0.75393334133E+02  0.11354797342E+03  0.00000000000E+00 0.  1.
         11    1    1    2    0    0  0.10641115543E+03  0.37906874512E+01 -0.49276138614E+03  0.50413439377E+03  0.00000000000E+00 0. -1.
</event>
<event>
 7    1  0.3031008E-009  0.1229038E+03  0.7561462E-02  0.1238382E+00
         -2   -1    0    0    0  501 -0.00000000000E+00  0.00000000000E+00  0.15201892626E+02  0.15201892626E+02  0.00000000000E+00 0.  1.
          2   -1    0    0  501    0  0.00000000000E+00 -0.00000000000E+00 -0.19966487337E+04  0.19966487337E+04  0.00000000000E+00 0. -1.
         25    2    1    2    0    0  0.69168457656E+01 -0.10304929310E+03 -0.15654606070E+04  0.15738428769E+04  0.12508992528E+03 0.  0.
          5    1    3    3  502    0  0.58838248624E+01 -0.76877152953E+00 -0.94242663230E+03  0.94245458249E+03  0.41800000000E+01 0.  1.
         -5    1    3    3    0  502  0.10330209032E+01 -0.10228052157E+03 -0.62303397471E+03  0.63138829437E+03  0.41800000000E+01 0.  1.
        -11    1    1    2    0    0 -0.47783490376E+02  0.49292237300E+02 -0.18385117516E+03  0.19625045533E+03  0.00000000000E+00 0.  1.
         11    1    1    2    0    0  0.40866644610E+02  0.53757055797E+02 -0.23213505888E+03  0.24175729410E+03  0.00000000000E+00 0. -1.
</event>
<event>
 6    1  0.2688177E-009  0.8260138E+02  0.7561462E-02  0.1321827E+00
         -1   -1    0    0    0  501 -0.00000000000E+00  0.00000000000E+00  0.79405412142E+02  0.79405412142E+02  0.00000000000E+00 0.  1.
          1   -1    0    0  501    0  0.00000000000E+00 -0.00000000000E+00 -0.20079778053E+03  0.20079778053E+03  0.00000000000E+00 0. -1.
          5    1    1    2  502    0 -0.37257808286E+02 -0.15065932523E+02 -0.13211263397E+03  0.13815334616E+03  0.41800000000E+01 0.  1.
         -5    1    1    2    0  502 -0.12249542161E+02  0.36137925554E+02  0.15310719417E+02  0.41326643653E+02  0.41800000000E+01 0.  1.
        -11    1    1    2    0    0 -0.11306730238E+02  0.12574311027E+02  0.20730817902E+02  0.26752985952E+02  0.00000000000E+00 0.  1.
         11    1    1    2    0    0  0.60814080686E+02 -0.33646304058E+02 -0.25321271734E+02  0.73970216902E+02  0.00000000000E+00 0. -1.
</event>
<event>
 7    1  0.2688177E-009  0.1184245E+03  0.7561462E-02  0.1245719E+00
          2   -1    0    0  501    0  0.00000000000E+00  0.00000000000E+00  0.30386903224E+03  0.30386903224E+03  0.00000000000E+00 0. -1.
         -2   -1    0    0    0  501 -0.00000000000E+00 -0.00000000000E+00 -0.51023621137E+02  0.51023621137E+02  0.00000000000E+00 0.  1.
         25    2    1    2    0    0 -0.23067018091E+02 -0.64563510972E+02  0.13748907470E+03  0.19811973058E+03  0.12509055804E+03 0.  0.
          5    1    3    3  502    0 -0.14011905087E+01 -0.95616994969E+02  0.12618857314E+03  0.15838434724E+03  0.41800000000E+01 0. -1.
         -5    1    3    3    0  502 -0.21665827583E+02  0.31053483997E+02  0.11300501566E+02  0.39735383336E+02  0.41800000000E+01 0. -1.
        -11    1    1    2    0    0 -0.11333072919E+02  0.67561399596E+02  0.57699599644E+02  0.89566874771E+02  0.00000000000E+00 0. -1.
         11    1    1    2    0    0  0.34400091010E+02 -0.29978886247E+01  0.57656736756E+02  0.67206048025E+02  0.00000000000E+00 0.  1.
</event>
<event>
 7    1  0.2688177E-009  0.1224865E+03  0.7561462E-02  0.1239051E+00
          2   -1    0    0  501    0  0.00000000000E+00  0.00000000000E+00  0.30815980044E+03  0.30815980044E+03  0.00000000000E+00 0.  1.
         -2   -1    0    0    0  501 -0.00000000000E+00 -0.00000000000E+00 -0.64620568716E+02  0.64620568716E+02  0.00000000000E+00 0. -1.
         25    2    1    2    0    0  0.49457461714E+02  0.57243127393E+02  0.67265986718E+02  0.16091825398E+03  0.12508858998E+03 0.  0.
          5    1    3    3  502    0  0.62593908657E+02  0.90066764669E+02  0.43253478005E+02  0.11797607918E+03  0.41800000000E+01 0.  1.
         -5    1    3    3    0  502 -0.13136446943E+02 -0.32823637276E+02  0.24012508713E+02  0.42942174805E+02  0.41800000000E+01 0.  1.
        -11    1    1    2    0    0 -0.10992491604E+02 -0.60046156683E+02  0.47238739506E+02  0.77187267824E+02  0.00000000000E+00 0. -1.
         11    1    1    2    0    0 -0.38464970110E+02  0.28030292902E+01  0.12903450550E+03  0.13467484735E+03  0.00000000000E+00 0.  1.
</event>
<event>
 7    1  0.2688177E-009  0.1119226E+03  0.7561462E-02  0.1257050E+00
          2   -1    0    0  501    0  0.00000000000E+00  0.00000000000E+00  0.61558061819E+03  0.61558061819E+03  0.00000000000E+00 0. -1.
         -2   -1    0    0    0  501 -0.00000000000E+00 -0.00000000000E+00 -0.24875158227E+02  0.24875158227E+02  0.00000000000E+00 0.  1.
         25    2    1    2    0    0  0.41818531541E+02 -0.33865801952E+02  0.26540941467E+03  0.29830414224E+03  0.12509005461E+03 0.  0.
          5    1    3    3  502    0  0.13793018407E+02  0.43228288387E+02  0.49405667934E+02  0.67211045950E+02  0.41800000000E+01 0. -1.
         -5    1    3    3    0  502  0.28025513134E+02 -0.77094090338E+02  0.21600374673E+03  0.23109309629E+03  0.41800000000E+01 0. -1.
        -11    1    1    2    0    0 -0.39857339353E+02 -0.18357050555E+02  0.78969672048E+02  0.90342669370E+02  0.00000000000E+00 0.  1.
         11    1    1    2    0    0 -0.19611921877E+01  0.52222852506E+02  0.24632637325E+03  0.25180896480E+03  0.00000000000E+00 0. -1.
</event>
<event>
 7    1  0.2688177E-009  0.1137170E+03  0.7561462E-02  0.1253837E+00
          1   -1    0    0  501    0  0.00000000000E+00  0.00000000000E+00  0.16850603904E+03  0.16850603904E+03  0.00000000000E+00 0. -1.
         -1   -1    0    0    0  501 -0.00000000000E+00 -0.00000000000E+00 -0.78050952220E+02  0.78050952220E+02  0.00000000000E+00 0.  1.
         25    2    1    2    0    0  0.19008589348E+02  0.31405114849E+02  0.46589899726E+02  0.13843999462E+03  0.12508959048E+03 0.  0.
          5    1    3    3  502    0  0.65421384421E+02  0.46419733152E+02  0.20225241393E+02  0.82832855528E+02  0.41800000000E+01 0.  1.
         -5    1    3    3    0  502 -0.46412795073E+02 -0.15014618303E+02  0.26364658333E+02  0.55607139095E+02  0.41800000000E+01 0.  1.
        -11    1    1    2    0    0 -0.19932669270E+02 -0.63236549032E+02  0.23638062548E+02  0.70391266779E+02  0.00000000000E+00 0.  1.
         11    1    1    2    0    0  0.92407992169E+00  0.31831434183E+02  0.20227124544E+02  0.37725729856E+02  0.00000000000E+00 0. -1.
</event>
<event>
 7    1  0.2688177E-009  0.1439329E+03  0.7561462E-02  0.1208133E+00
         -2   -1    0    0    0  501 -0.00000000000E+00  0.00000000000E+00  0.27952870018E+03  0.27952870018E+03  0.00000000000E+00 0.  1.
          2   -1    0    0  501    0  0.00000000000E+00 -0.00000000000E+00 -0.11585768725E+03  0.11585768725E+03  0.00000000000E+00 0. -1.
         25    2    1    2    0    0  0.77053760132E+02  0.10421010283E+03  0.18897901387E+02  0.18111696828E+03  0.12509675471E+03 0.  0.
          5    1    3    3  502    0  0.79047850385E+01 -0.96544491677E+00 -0.40774791315E+02  0.41754924466E+02  0.41800000000E+01 0. -1.
         -5    1    3    3    0  502  0.69148975094E+02  0.10517554775E+03  0.59672692702E+02  0.13936204381E+03  0.41800000000E+01 0. -1.
        -11    1    1    2    0    0 -0.10798172660E+02  0.13843232769E+02  0.22490809433E+01  0.17700112750E+02  0.00000000000E+00 0.  1.
         11    1    1    2    0    0 -0.66255587472E+02 -0.11805333560E+03  0.14252403060E+03  0.19656930640E+03  0.00000000000E+00 0. -1.
</event>
<event>
 7    1  0.2688177E-009  0.1336880E+03  0.7561462E-02  0.1222084E+00
          2   -1    0    0  501    0  0.00000000000E+00  0.00000000000E+00  0.13829772303E+04  0.13829772303E+04  0.00000000000E+00 0.  1.
         -2   -1    0    0    0  501 -0.00000000000E+00 -0.00000000000E+00 -0.16062566129E+02  0.16062566129E+02  0.00000000000E+00 0. -1.
         25    2    1    2    0    0  0.77061368316E+02 -0.47777682036E+02  0.95995436623E+03  0.97230728754E+03  0.12509162551E+03 0.  0.
          5    1    3    3  502    0 -0.25998506685E+01 -0.60611248296E+02  0.61582818545E+03  0.61882332619E+03  0.41800000000E+01 0.  1.
         -5    1    3    3    0  502  0.79661218984E+02  0.12833566261E+02  0.34412618079E+03  0.35348396135E+03  0.41800000000E+01 0.  1.
        -11    1    1    2    0    0 -0.32189599775E+02  0.68994203029E+02  0.28658992011E+03  0.29653018850E+03  0.00000000000E+00 0.  1.
         11    1    1    2    0    0 -0.44871768541E+02 -0.21216520993E+02  0.12037037785E+03  0.13020232041E+03  0.00000000000E+00 0. -1.
</event>
<event>
 7    1  0.2688177E-009  0.1089145E+03  0.7561462E-02  0.1262593E+00
         -3   -1    0    0    0  501 -0.00000000000E+00  0.00000000000E+00  0.61956257840E+03  0.61956257840E+03  0.00000000000E+00 0. -1.
          3   -1    0    0  501    0  0.00000000000E+00 -0.00000000000E+00 -0.26731153478E+02  0.26731153478E+02  0.00000000000E+00 0.  1.
         25    2    1    2    0    0 -0.16709332248E+02 -0.71260566432E+01  0.16398687629E+03  0.20704958627E+03  0.12509137905E+03 0.  0.
          5    1    3    3  502    0  0.45950081280E+02 -0.32359326116E+02  0.54918805003E+02  0.78689792853E+02  0.41800000000E+01 0.  1.
         -5    1    3    3    0  502 -0.62659413528E+02  0.25233269473E+02  0.10906807129E+03  0.12835979342E+03  0.41800000000E+01 0.  1.
        -11    1    1    2    0    0  0.28405143017E+02 -0.37849602204E+02  0.18123428642E+03  0.18731073411E+03  0.00000000000E+00 0.  1.
         11    1    1    2    0    0 -0.11695810769E+02  0.44975658848E+02  0.24761026221E+03  0.25193341150E+03  0.00000000000E+00 0. -1.
</event>
<event>
 7    1  0.2688177E-009  0.1239656E+03  0.7561462E-02  0.1236695E+00
          2   -1    0    0  501    0  0.00000000000E+00  0.00000000000E+00  0.63097069805E+02  0.63097069805E+02  0.00000000000E+00 0. -1.
         -2   -1    0    0    0  501 -0.00000000000E+00 -0.00000000000E+00 -0.27335155863E+03  0.27335155863E+03  0.00000000000E+00 0.  1.
         25    2    1    2    0    0  0.20151466950E+02  0.70060214590E+02 -0.99204288208E+02  0.17550685332E+03  0.12508656793E+03 0.  0.
          5    1    3    3  502    0  0.22758347379E+02  0.10022202634E+03 -0.42906674804E+02  0.11144887654E+03  0.41800000000E+01 0. -1.
         -5    1    3    3    0  502 -0.26068804289E+01 -0.30161811755E+02 -0.56297613404E+02  0.64057976778E+02  0.41800000000E+01 0. -1.
        -11    1    1    2    0    0 -0.50472846788E+02 -0.16747038780E+02 -0.66440495928E+02  0.85101768900E+02  0.00000000000E+00 0.  1.
         11    1    1    2    0    0  0.30321379837E+02 -0.53313175810E+02 -0.44609704693E+02  0.75840006216E+02  0.00000000000E+00 0. -1.
</event>
<event>
 7    1  0.2688177E-009  0.1884248E+03  0.7561462E-02  0.1159890E+00
          2   -1    0    0  501    0  0.00000000000E+00  0.00000000000E+00  0.22090375458E+03  0.22090375458E+03  0.00000000000E+00 0. -1.
         -2   -1    0    0    0  501 -0.00000000000E+00 -0.00000000000E+00 -0.32147219584E+03  0.32147219584E+03  0.00000000000E+00 0.  1.
         25    2    1    2    0    0  0.15845497755E+03  0.83962095003E+02 -0.21735686878E+03  0.30830099315E+03  0.12509148917E+03 0.  0.
          5    1    3    3  502    0  0.87381792973E+02  0.69176276660E+02 -0.20661887156E+03  0.23479728593E+03  0.41800000000E+01 0.  1.
         -5    1    3    3    0  502  0.71073184576E+02  0.14785818344E+02 -0.10737997218E+02  0.73503707214E+02  0.41800000000E+01 0.  1.
        -11    1    1    2    0    0 -0.91717153440E+02 -0.86150790319E+02  0.10967950535E+03  0.16692390123E+03  0.00000000000E+00 0. -1.
         11    1    1    2    0    0 -0.66737824109E+02  0.21886953157E+01  0.71089221783E+01  0.67151056049E+02  0.00000000000E+00 0.  1.
</event>
<event>
 7    1  0.2688177E-009  0.7503801E+02  0.7561462E-02  0.1343753E+00
         -2   -1    0    0    0  501 -0.00000000000E+00  0.00000000000E+00  0.43931443294E+02  0.43931443294E+02  0.00000000000E+00 0.  1.
          2   -1    0    0  501    0  0.00000000000E+00 -0.00000000000E+00 -0.44652935355E+03  0.44652935355E+03  0.00000000000E+00 0. -1.
         25    2    1    2    0    0 -0.11121874542E+02  0.52412168245E+02 -0.36509014421E+03  0.38962596013E+03  0.12508734525E+03 0.  0.
          5    1    3    3  502    0  0.21225013712E+01 -0.20277017790E+02 -0.42065835881E+01  0.21232762609E+02  0.41800000000E+01 0.  1.
         -5    1    3    3    0  502 -0.13244375913E+02  0.72689186035E+02 -0.36088356062E+03  0.36839319753E+03  0.41800000000E+01 0.  1.
        -11    1    1    2    0    0  0.29417688498E+00 -0.33242504444E+02 -0.60481027844E+02  0.69015254624E+02  0.00000000000E+00 0. -1.
         11    1    1    2    0    0  0.10827697657E+02 -0.19169663801E+02  0.22973261792E+02  0.31819582086E+02  0.00000000000E+00 0.  1.
</event>
<event>
 7    1  0.2688177E-009  0.1832023E+03  0.7561462E-02  0.1164739E+00
         -3   -1    0    0    0  501 -0.00000000000E+00  0.00000000000E+00  0.88326727493E+02  0.88326727493E+02  0.00000000000E+00 0.  1.
          3   -1    0    0  501    0  0.00000000000E+00 -0.00000000000E+00 -0.46988899974E+03  0.46988899974E+03  0.00000000000E+00 0. -1.
         25    2    1    2    0    0  0.45129706398E+02 -0.15882581407E+03 -0.26437493611E+03  0.33586331539E+03  0.12509088763E+03 0.  0.
          5    1    3    3  502    0 -0.28407974777E+02 -0.10756239892E+03 -0.10539633618E+03  0.15330539055E+03  0.41800000000E+01 0.  1.
         -5    1    3    3    0  502  0.73537681175E+02 -0.51263415146E+02 -0.15897859993E+03  0.18255792484E+03  0.41800000000E+01 0.  1.
        -11    1    1    2    0    0 -0.12339378784E+02  0.58512858266E+02  0.60459511197E+01  0.60104645213E+02  0.00000000000E+00 0.  1.
         11    1    1    2    0    0 -0.32790327614E+02  0.10031295581E+03 -0.12323328726E+03  0.16224776663E+03  0.00000000000E+00 0. -1.
</event>
<event>
 7    1  0.2688177E-009  0.8919039E+02  0.7561462E-02  0.1304824E+00
          3   -1    0    0  501    0  0.00000000000E+00  0.00000000000E+00  0.29657817366E+03  0.29657817366E+03  0.00000000000E+00 0. -1.
         -3   -1    0    0    0  501 -0.00000000000E+00 -0.00000000000E+00 -0.64787995105E+02  0.64787995105E+02  0.00000000000E+00 0.  1.
         25    2    1    2    0    0 -0.61259725657E+02  0.45684540786E+02  0.17960873827E+03  0.23185192448E+03  0.12512467690E+03 0.  0.
          5    1    3    3  502    0 -0.20291718504E+02  0.12548072781E+01  0.16909861348E+03  0.17036766672E+03  0.41800000000E+01 0.  1.
         -5    1    3    3    0  502 -0.40968007154E+02  0.44429733508E+02  0.10510124784E+02  0.61484257763E+02  0.41800000000E+01 0.  1.
        -11    1    1    2    0    0  0.23585873465E+02 -0.53590634399E+02 -0.69442550975E+01  0.58961616339E+02  0.00000000000E+00 0.  1.
         11    1    1    2    0    0  0.37673852192E+02  0.79060936133E+01  0.59125695385E+02  0.70552627946E+02  0.00000000000E+00 0. -1.
</event>
<event>
 7    1  0.2688177E-009  0.1112266E+03  0.7561462E-02  0.1258315E+00
          1   -1    0    0  501    0  0.00000000000E+00  0.00000000000E+00  0.15016728657E+03  0.15016728657E+03  0.00000000000E+00 0. -1.
         -1   -1    0    0    0  501 -0.00000000000E+00 -0.00000000000E+00 -0.91513958715E+02  0.91513958715E+02  0.00000000000E+00 0.  1.
         25    2    1    2    0    0 -0.43629088729E+02 -0.26042437518E+02  0.37193216701E+02  0.14003741439E+03  0.12508171778E+03 0.  0.
          5    1    3    3  502    0 -0.66819060008E+02  0.25778193435E+02 -0.53606244928E+00  0.71743026142E+02  0.41800000000E+01 0. -1.
         -5    1    3    3    0  502  0.23189971279E+02 -0.51820630953E+02  0.37729279151E+02  0.68294388243E+02  0.41800000000E+01 0. -1.
        -11    1    1    2    0    0  0.56527279071E+02  0.44029918441E+02  0.12369949958E+01  0.71662383115E+02  0.00000000000E+00 0.  1.
         11    1    1    2    0    0 -0.12898190342E+02 -0.17987480923E+02  0.20223116153E+02  0.29981447780E+02  0.00000000000E+00 0. -1.
</event>
<event>
 7    1  0.2688177E-009  0.1641513E+03  0.7561462E-02  0.1184088E+00
          2   -1    0    0  501    0  0.00000000000E+00  0.00000000000E+00  0.98976300498E+02  0.98976300498E+02  0.00000000000E+00 0. -1.
         -2   -1    0    0    0  501 -0.00000000000E+00 -0.00000000000E+00 -0.35541612352E+03  0.35541612352E+03  0.00000000000E+00 0.  1.
         25    2    1    2    0    0  0.14813792489E+03  0.25717933640E+02 -0.21044366012E+03  0.28729930554E+03  0.12509236579E+03 0.  0.
          5    1    3    3  502    0  0.18849233232E+02 -0.31088704907E+02 -0.10446041858E+03  0.11068537670E+03  0.41800000000E+01 0. -1.
         -5    1    3    3    0  502  0.12928869165E+03  0.56806638547E+02 -0.10598324155E+03  0.17661392884E+03  0.41800000000E+01 0. -1.
        -11    1    1    2    0    0 -0.13735666030E+03 -0.25070565891E+02 -0.57779446118E+02  0.15110873501E+03  0.00000000000E+00 0.  1.
         11    1    1    2    0    0 -0.10781264589E+02 -0.64736774951E+00  0.11783283224E+02  0.15984383462E+02  0.00000000000E+00 0. -1.
</event>
<event>
 7    1  0.2688177E-009  0.1467179E+03  0.7561462E-02  0.1204565E+00
         -1   -1    0    0    0  501 -0.00000000000E+00  0.00000000000E+00  0.91305879922E+02  0.91305879922E+02  0.00000000000E+00 0.  1.
          1   -1    0    0  501    0  0.00000000000E+00 -0.00000000000E+00 -0.25178956632E+03  0.25178956632E+03  0.00000000000E+00 0. -1.
         25    2    1    2    0    0  0.91800035202E+02 -0.49274619388E+02 -0.98016056123E+02  0.19002596915E+03  0.12508991612E+03 0.  0.
          5    1    3    3  502    0 -0.20286340876E+02 -0.35198744059E+02 -0.56250669937E+02  0.69513289937E+02  0.41800000000E+01 0. -1.
         -5    1    3    3    0  502  0.11208637608E+03 -0.14075875329E+02 -0.41765386186E+02  0.12051267922E+03  0.41800000000E+01 0. -1.
        -11    1    1    2    0    0 -0.90551401138E+02  0.29133688073E+00 -0.44335395000E+02  0.10082295560E+03  0.00000000000E+00 0. -1.
         11    1    1    2    0    0 -0.12486340646E+01  0.48983282507E+02 -0.18132235277E+02  0.52246521495E+02  0.00000000000E+00 0.  1.
</event>
<event>
 7    1  0.2688177E-009  0.1810049E+03  0.7561462E-02  0.1166834E+00
         -2   -1    0    0    0  501 -0.00000000000E+00  0.00000000000E+00  0.23425720924E+02  0.23425720924E+02  0.00000000000E+00 0.  1.
          2   -1    0    0  501    0  0.00000000000E+00 -0.00000000000E+00 -0.15197512440E+04  0.15197512440E+04  0.00000000000E+00 0. -1.
         25    2    1    2    0    0 -0.85432975513E+02  0.12844896598E+03 -0.75624879430E+03  0.78189437109E+03  0.12509451825E+03 0.  0.
          5    1    3    3  502    0 -0.86601213291E+02  0.33312601592E+02 -0.49927280994E+03  0.50783886294E+03  0.41800000000E+01 0. -1.
         -5    1    3    3    0  502  0.11682377788E+01  0.95136364390E+02 -0.25697598436E+03  0.27405550815E+03  0.41800000000E+01 0. -1.
        -11    1    1    2    0    0  0.59943850295E+02 -0.21083620567E+02 -0.35775107220E+03  0.36335053860E+03  0.00000000000E+00 0. -1.
         11    1    1    2    0    0  0.25489125218E+02 -0.10736534541E+03 -0.38232565654E+03  0.39793205519E+03  0.00000000000E+00 0.  1.
</event>
<event>
 7    1  0.2688177E-009  0.1116292E+03  0.7561462E-02  0.1257582E+00
         -1   -1    0    0    0  501 -0.00000000000E+00  0.00000000000E+00  0.25767467781E+03  0.25767467781E+03  0.00000000000E+00 0.  1.
          1   -1    0    0  501    0  0.00000000000E+00 -0.00000000000E+00 -0.79305111568E+02  0.79305111568E+02  0.00000000000E+00 0. -1.
         25    2    1    2    0    0 -0.50177231878E+02 -0.25730644089E+02  0.18340106271E+03  0.22904989020E+03  0.12509229295E+03 0.  0.
          5    1    3    3  502    0 -0.72891002692E+02 -0.48908726143E+02  0.17411897764E+03  0.19503859244E+03  0.41800000000E+01 0. -1.
         -5    1    3    3    0  502  0.22713770813E+02  0.23178082055E+02  0.92820850667E+01  0.34011297762E+02  0.41800000000E+01 0. -1.
        -11    1    1    2    0    0  0.43892322952E+02  0.56335687686E+02  0.11888630980E+02  0.72398793276E+02  0.00000000000E+00 0.  1.
         11    1    1    2    0    0  0.62849089262E+01 -0.30605043597E+02 -0.16920127444E+02  0.35531105901E+02  0.00000000000E+00 0. -1.
</event>
<event>
 7    1  0.2688177E-009  0.1092150E+03  0.7561462E-02  0.1262030E+00
          4   -1    0    0  501    0  0.00000000000E+00  0.00000000000E+00  0.22693638624E+03  0.22693638624E+03  0.00000000000E+00 0. -1.
         -4   -1    0    0    0  501 -0.00000000000E+00 -0.00000000000E+00 -0.73767676143E+02  0.73767676143E+02  0.00000000000E+00 0.  1.
         25    2    1    2    0    0 -0.65781476309E+02  0.26510059985E+02  0.87815574607E+02  0.16848906666E+03  0.12508798717E+03 0.  0.
          5    1    3    3  502    0 -0.80192607063E+02 -0.27456122022E+02  0.69075542782E+02  0.10942392734E+03  0.41800000000E+01 0. -1.
         -5    1    3    3    0  502  0.14411130754E+02  0.53966182007E+02  0.18740031825E+02  0.59065139319E+02  0.41800000000E+01 0. -1.
        -11    1    1    2    0    0  0.50253831424E+02 -0.42810247944E+01  0.84926002390E+02  0.98773481401E+02  0.00000000000E+00 0. -1.
         11    1    1    2    0    0  0.15527644885E+02 -0.22229035190E+02 -0.19572866904E+02  0.33441514320E+02  0.00000000000E+00 0.  1.
</event>
<event>
 7    1  0.2688177E-009  0.7835731E+02  0.7561462E-02  0.1333779E+00
          2   -1    0    0  501    0  0.00000000000E+00  0.00000000000E+00  0.65139596356E+03  0.65139596356E+03  0.00000000000E+00 0. -1.
         -2   -1    0    0    0  501 -0.00000000000E+00 -0.00000000000E+00 -0.21137407502E+02  0.21137407502E+02  0.00000000000E+00 0.  1.
         25    2    1    2    0    0 -0.29201113469E+02  0.35995843295E+02  0.39154617168E+03  0.41364866342E+03  0.12509359067E+03 0.  0.
          5    1    3    3  502    0 -0.16489145014E+02 -0.12875141667E+01 -0.28262112343E+01  0.17291890179E+02  0.41800000000E+01 0.  1.
         -5    1    3    3    0  502 -0.12711968455E+02  0.37283357461E+02  0.39437238292E+03  0.39635677324E+03  0.41800000000E+01 0.  1.
        -11    1    1    2    0    0  0.59490072507E+02 -0.36416695228E+02  0.17269763758E+03  0.18625176091E+03  0.00000000000E+00 0. -1.
         11    1    1    2    0    0 -0.30288959037E+02  0.42085193328E+00  0.66014746802E+02  0.72632946734E+02  0.00000000000E+00 0.  1.
</event>
<event>
 7    1  0.2688177E-009  0.1102165E+03  0.7561462E-02  0.1260170E+00
          2   -1    0    0  501    0  0.00000000000E+00  0.00000000000E+00  0.57518341741E+03  0.57518341741E+03  0.00000000000E+00 0. -1.
         -2   -1    0    0    0  501 -0.00000000000E+00 -0.00000000000E+00 -0.37905318917E+02  0.37905318917E+02  0.00000000000E+00 0.  1.
         25    2    1    2    0    0  0.65628882760E+02 -0.25404699328E+02  0.14367381051E+03  0.20307007879E+03  0.12507095615E+03 0.  0.
          5    1    3    3  502    0 -0.51562326347E+01 -0.53327426000E+02  0.10420978630E+03  0.11724995974E+03  0.41800000000E+01 0.  1.
         -5    1    3    3    0  502  0.70785115394E+02  0.27922726672E+02  0.39464024207E+02  0.85820119044E+02  0.41800000000E+01 0.  1.
        -11    1    1    2    0    0 -0.47520141822E+01  0.29110996618E+02  0.32866646344E+02  0.44161614608E+02  0.00000000000E+00 0.  1.
         11    1    1    2    0    0 -0.60876868577E+02 -0.37062972896E+01  0.36073764164E+03  0.36585704293E+03  0.00000000000E+00 0. -1.
</event>
<event>
 7    1  0.2688177E-009  0.1327356E+03  0.7561462E-02  0.1223452E+00
          1   -1    0    0  501    0  0.00000000000E+00  0.00000000000E+00  0.16757883455E+03  0.16757883455E+03  0.00000000000E+00 0. -1.
         -1   -1    0    0    0  501 -0.00000000000E+00 -0.00000000000E+00 -0.27353259630E+03  0.27353259630E+03  0.00000000000E+00 0.  1.
         25    2    1    2    0    0 -0.53183340666E+02 -0.10479751558E+03 -0.20184875944E+03  0.26495568956E+03  0.12509040229E+03 0.  0.
          5    1    3    3  502    0  0.19087305255E+02 -0.55513097228E+02 -0.18376113274E+02  0.61653735692E+02  0.41800000000E+01 0.  1.
         -5    1    3    3    0  502 -0.72270645921E+02 -0.49284418354E+02 -0.18347264616E+03  0.20330195386E+03  0.41800000000E+01 0.  1.
        -11    1    1    2    0    0  0.50206707825E+02  0.82699807758E+02  0.22336312529E+02  0.99291905870E+02  0.00000000000E+00 0.  1.
         11    1    1    2    0    0  0.29766328416E+01  0.22097707824E+02  0.73558685155E+02  0.76863835422E+02  0.00000000000E+00 0. -1.
</event>
<event>
 7    1  0.2688177E-009  0.2218929E+03  0.7561462E-02  0.1132480E+00
          1   -1    0    0  501    0  0.00000000000E+00  0.00000000000E+00  0.20573344097E+03  0.20573344097E+03  0.00000000000E+00 0. -1.
         -1   -1    0    0    0  501 -0.00000000000E+00 -0.00000000000E+00 -0.25948344163E+03  0.25948344163E+03  0.00000000000E+00 0.  1.
         25    2    1    2    0    0 -0.20294266001E+03 -0.97983397414E+00 -0.47722325487E+02  0.24312990609E+03  0.12509215627E+03 0.  0.
          5    1    3    3  502    0 -0.74936484283E+02 -0.44498298155E+02 -0.62109206923E+02  0.10710089262E+03  0.41800000000E+01 0.  1.
         -5    1    3    3    0  502 -0.12800617573E+03  0.43518464181E+02  0.14386881437E+02  0.13602901347E+03  0.41800000000E+01 0.  1.
        -11    1    1    2    0    0  0.28953240004E+02  0.33485693730E+02 -0.84703633580E+01  0.45070265661E+02  0.00000000000E+00 0. -1.
         11    1    1    2    0    0  0.17398942000E+03 -0.32505859756E+02  0.24426881802E+01  0.17701671084E+03  0.00000000000E+00 0.  1.
</event>
<event>
 7    1  0.2688177E-009  0.6458805E+02  0.7561462E-02  0.1379528E+00
         -1   -1    0    0    0  501 -0.00000000000E+00  0.00000000000E+00  0.16636971461E+02  0.16636971461E+02  0.00000000000E+00 0.  1.
          1   -1    0    0  501    0  0.00000000000E+00 -0.00000000000E+00 -0.81845463237E+03  0.81845463237E+03  0.00000000000E+00 0. -1.
         25    2    1    2    0    0  0.16134851732E+02 -0.44854043993E+02 -0.45229357534E+03  0.47168427728E+03  0.12507741777E+03 0.  0.
          5    1    3    3  502    0  0.13685700131E+02 -0.26769260287E+02 -0.14763646179E+02  0.33753952848E+02  0.41800000000E+01 0. -1.
         -5    1    3    3    0  502  0.24491516011E+01 -0.18084783706E+02 -0.43752992916E+03  0.43793032443E+03  0.41800000000E+01 0. -1.
        -11    1    1    2    0    0 -0.35289575251E+02  0.49113391165E+02 -0.33080648826E+03  0.33628917911E+03  0.00000000000E+00 0. -1.
         11    1    1    2    0    0  0.19154723518E+02 -0.42593471718E+01 -0.18717597303E+02  0.27118147433E+02  0.00000000000E+00 0.  1.
</event>
<event>
 7    1  0.2688177E-009  0.9831952E+02  0.7561462E-02  0.1283870E+00
          1   -1    0    0  501    0  0.00000000000E+00  0.00000000000E+00  0.86469057715E+02  0.86469057715E+02  0.00000000000E+00 0. -1.
         -1   -1    0    0    0  501 -0.00000000000E+00 -0.00000000000E+00 -0.19513206766E+03  0.19513206766E+03  0.00000000000E+00 0.  1.
         25    2    1    2    0    0 -0.40864323435E+02  0.58524516651E+02 -0.47345157520E+02  0.15160290495E+03  0.12508742890E+03 0.  0.
          5    1    3    3  502    0 -0.39201708042E+02 -0.20687616229E+02 -0.56280532904E+02  0.71761564661E+02  0.41800000000E+01 0. -1.
         -5    1    3    3    0  502 -0.16626153933E+01  0.79212132881E+02  0.89353753842E+01  0.79841340286E+02  0.41800000000E+01 0. -1.
        -11    1    1    2    0    0  0.17561319935E+02 -0.13758764154E+02 -0.74556648885E+02  0.77822859379E+02  0.00000000000E+00 0.  1.
         11    1    1    2    0    0  0.23303003499E+02 -0.44765752497E+02  0.13238796462E+02  0.52175361048E+02  0.00000000000E+00 0. -1.
</event>
<event>
 7    1  0.3315053E-009  0.1002953E+03  0.7561462E-02  0.1279676E+00
          2   -1    0    0  501    0  0.00000000000E+00  0.00000000000E+00  0.32919506361E+03  0.32919506361E+03  0.00000000000E+00 0. -1.
         -2   -1    0    0    0  501 -0.00000000000E+00 -0.00000000000E+00 -0.56441474913E+02  0.56441474913E+02  0.00000000000E+00 0.  1.
         25    2    1    2    0    0 -0.63457599159E+02  0.11043173868E+02  0.22204678642E+03  0.26287119346E+03  0.12509064878E+03 0.  0.
          5    1    3    3  502    0 -0.49551125626E+02  0.63338748122E+02  0.16786770625E+03  0.18618310950E+03  0.41800000000E+01 0. -1.
         -5    1    3    3    0  502 -0.13906473533E+02 -0.52295574254E+02  0.54179080169E+02  0.76688083955E+02  0.41800000000E+01 0. -1.
        -11    1    1    2    0    0  0.33078177740E+02  0.10419637396E+01 -0.24223536740E+02  0.41012574452E+02  0.00000000000E+00 0.  1.
         11    1    1    2    0    0  0.30379421419E+02 -0.12085137608E+02  0.74930339018E+02  0.81752770608E+02  0.00000000000E+00 0. -1.
</event>
<event>
 7    1  0.2688177E-009  0.8712115E+02  0.7561462E-02  0.1309977E+00
          2   -1    0    0  501    0  0.00000000000E+00  0.00000000000E+00  0.13846806211E+03  0.13846806211E+03  0.00000000000E+00 0. -1.
         -2   -1    0    0    0  501 -0.00000000000E+00 -0.00000000000E+00 -0.97235786136E+02  0.97235786136E+02  0.00000000000E+00 0.  1.
         25    2    1    2    0    0  0.26907891866E+02  0.46247847093E+01 -0.82028573539E+01  0.12830273107E+03  0.12509548614E+03 0.  0.
          5    1    3    3  502    0  0.43694193814E+02  0.27228953381E+02 -0.53779788484E+02  0.74567664068E+02  0.41800000000E+01 0.  1.
         -5    1    3    3    0  502 -0.16786301948E+02 -0.22604168671E+02  0.45576931130E+02  0.53735067001E+02  0.41800000000E+01 0.  1.
        -11    1    1    2    0    0  0.16544816533E+02 -0.36606366948E+02  0.12708252132E+02  0.42133795551E+02  0.00000000000E+00 0.  1.
         11    1    1    2    0    0 -0.43452708399E+02  0.31981582239E+02  0.36726881194E+02  0.65267321624E+02  0.00000000000E+00 0. -1.
</event>
<event>
 7    1  0.2688177E-009  0.1116564E+03  0.7561462E-02  0.1257533E+00
         -1   -1    0    0    0  501 -0.00000000000E+00  0.00000000000E+00  0.46745952462E+02  0.46745952462E+02  0.00000000000E+00 0.  1.
          1   -1    0    0  501    0  0.00000000000E+00 -0.00000000000E+00 -0.38879959381E+03  0.38879959381E+03  0.00000000000E+00 0. -1.
         25    2    1    2    0    0 -0.47215547227E+02  0.70922661633E+01 -0.85297067510E+02  0.15875364606E+03  0.12509005665E+03 0.  0.
          5    1    3    3  502    0 -0.70504490253E+02  0.41464900445E+02 -0.83536473839E+02  0.11698733255E+03  0.41800000000E+01 0.  1.
         -5    1    3    3    0  502  0.23288943026E+02 -0.34372634282E+02 -0.17605936710E+01  0.41766313517E+02  0.41800000000E+01 0.  1.
        -11    1    1    2    0    0  0.45552212943E+02  0.35069758625E+02 -0.11035651714E+03  0.12443252368E+03  0.00000000000E+00 0. -1.
         11    1    1    2    0    0  0.16633342839E+01 -0.42162024788E+02 -0.14640005669E+03  0.15235937652E+03  0.00000000000E+00 0.  1.
</event>
<event>
 7    1  0.2688177E-009  0.1638064E+03  0.7561462E-02  0.1184465E+00
          1   -1    0    0  501    0  0.00000000000E+00  0.00000000000E+00  0.93427259222E+02  0.93427259222E+02  0.00000000000E+00 0. -1.
         -1   -1    0    0    0  501 -0.00000000000E+00 -0.00000000000E+00 -0.37248787068E+03  0.37248787068E+03  0.00000000000E+00 0.  1.
         25    2    1    2    0    0 -0.12605538167E+03  0.83706606316E+02 -0.14641305168E+03  0.24490168797E+03  0.12507317810E+03 0.  0.
          5    1    3    3  502    0 -0.11364302705E+03  0.10269598872E+03 -0.76463226088E+02  0.17124631687E+03  0.41800000000E+01 0. -1.
         -5    1    3    3    0  502 -0.12412354616E+02 -0.18989382406E+02 -0.69949825596E+02  0.73655371102E+02  0.41800000000E+01 0. -1.
        -11    1    1    2    0    0  0.44131654658E+02 -0.29074227659E+02  0.35282792369E+01  0.52965672008E+02  0.00000000000E+00 0.  1.
         11    1    1    2    0    0  0.81923727012E+02 -0.54632378657E+02 -0.13617583901E+03  0.16804776992E+03  0.00000000000E+00 0. -1.
</event>
<event>
 7    1  0.2688177E-009  0.1057116E+03  0.7561462E-02  0.1268724E+00
          2   -1    0    0  501    0  0.00000000000E+00  0.00000000000E+00  0.69339448245E+02  0.69339448245E+02  0.00000000000E+00 0. -1.
         -2   -1    0    0    0  501 -0.00000000000E+00 -0.00000000000E+00 -0.21071566188E+03  0.21071566188E+03  0.00000000000E+00 0.  1.
         25    2    1    2    0    0 -0.52022746394E+02 -0.16537126863E+00 -0.66698708264E+02  0.15100560932E+03  0.12509029887E+03 0.  0.
          5    1    3    3  502    0  0.12270615955E+02 -0.49005995263E+02 -0.43756951813E+02  0.66964907374E+02  0.41800000000E+01 0.  1.
         -5    1    3    3    0  502 -0.64293362349E+02  0.48840623994E+02 -0.22941756452E+02  0.84040701945E+02  0.41800000000E+01 0.  1.
        -11    1    1    2    0    0  0.13697374615E+02  0.28900083913E+02  0.84759680134E+01  0.33085872443E+02  0.00000000000E+00 0. -1.
         11    1    1    2    0    0  0.38325371779E+02 -0.28734712645E+02 -0.83153473389E+02  0.95963628367E+02  0.00000000000E+00 0.  1.
</event>
<event>
 7    1  0.2688177E-009  0.1288739E+03  0.7561462E-02  0.1229136E+00
          2   -1    0    0  501    0  0.00000000000E+00  0.00000000000E+00  0.69011697218E+02  0.69011697218E+02  0.00000000000E+00 0. -1.
         -2   -1    0    0    0  501 -0.00000000000E+00 -0.00000000000E+00 -0.32178400430E+03  0.32178400430E+03  0.00000000000E+00 0.  1.
         25    2    1    2    0    0  0.69483527200E+02  0.59049231609E+02 -0.19408424310E+03  0.24825715329E+03  0.12509255946E+03 0.  0.
          5    1    3    3  502    0 -0.20464764649E+02  0.28916103961E+02 -0.12721315397E+03  0.13211966774E+03  0.41800000000E+01 0. -1.
         -5    1    3    3    0  502  0.89948291849E+02  0.30133127647E+02 -0.66871089129E+02  0.11613748555E+03  0.41800000000E+01 0. -1.
        -11    1    1    2    0    0 -0.34215292292E+02  0.20653875367E+02 -0.52652120179E+01  0.40311180235E+02  0.00000000000E+00 0. -1.
         11    1    1    2    0    0 -0.35268234908E+02 -0.79703106976E+02 -0.53422851964E+02  0.10222736799E+03  0.00000000000E+00 0.  1.
</event>
<event>
 7    1  0.2688177E-009  0.9752992E+02  0.7561462E-02  0.1285578E+00
          1   -1    0    0  501    0  0.00000000000E+00  0.00000000000E+00  0.13356958375E+03  0.13356958375E+03  0.00000000000E+00 0. -1.
         -1   -1    0    0    0  501 -0.00000000000E+00 -0.00000000000E+00 -0.96779016459E+02  0.96779016459E+02  0.00000000000E+00 0.  1.
         25    2    1    2    0    0 -0.17500193809E+02  0.20471397765E+02  0.48365913893E+02  0.13679417804E+03  0.12509216846E+03 0.  0.
          5    1    3    3  502    0 -0.60334889539E+02  0.89924190622E+00  0.62966204868E+02  0.87311642334E+02  0.41800000000E+01 0. -1.
         -5    1    3    3    0  502  0.42834695730E+02  0.19572155858E+02 -0.14600290975E+02  0.49482535704E+02  0.41800000000E+01 0. -1.
        -11    1    1    2    0    0 -0.14929058792E+02 -0.44497019549E+02 -0.22052439008E+02  0.51857223328E+02  0.00000000000E+00 0.  1.
         11    1    1    2    0    0  0.32429252601E+02  0.24025621784E+02  0.10477092410E+02  0.41697198847E+02  0.00000000000E+00 0. -1.
</event>
<event>
 7    1  0.2688177E-009  0.1300949E+03  0.7561462E-02  0.1227315E+00
          1   -1    0    0  501    0  0.00000000000E+00  0.00000000000E+00  0.73747005003E+03  0.73747005003E+03  0.00000000000E+00 0.  1.
         -1   -1    0    0    0  501 -0.00000000000E+00 -0.00000000000E+00 -0.30071524791E+02  0.30071524791E+02  0.00000000000E+00 0. -1.
         25    2    1    2    0    0 -0.97552812076E+02 -0.14460347015E+02  0.33035347956E+03  0.36676303596E+03  0.12512413957E+03 0.  0.
          5    1    3    3  502    0  0.23169929239E+02 -0.14681078210E+02  0.21417311360E+02  0.35050724732E+02  0.41800000000E+01 0. -1.
         -5    1    3    3    0  502 -0.12072274132E+03  0.22073119538E+00  0.30893616820E+03  0.33171231122E+03  0.41800000000E+01 0. -1.
        -11    1    1    2    0    0  0.72206016179E+02  0.33839227885E+02  0.34994879377E+03  0.35891915577E+03  0.00000000000E+00 0.  1.
         11    1    1    2    0    0  0.25346795896E+02 -0.19378880870E+02  0.27096251904E+02  0.41859383097E+02  0.00000000000E+00 0. -1.
</event>
<event>
 7    1  0.2688177E-009  0.2381027E+03  0.7561462E-02  0.1121063E+00
          1   -1    0    0  501    0  0.00000000000E+00  0.00000000000E+00  0.10399284642E+04  0.10399284642E+04  0.00000000000E+00 0. -1.
         -1   -1    0    0    0  501 -0.00000000000E+00 -0.00000000000E+00 -0.63707465552E+02  0.63707465552E+02  0.00000000000E+00 0.  1.
         25    2    1    2    0    0 -0.91875869887E+02 -0.20815412411E+03  0.60800561260E+03  0.66112485035E+03  0.12508368375E+03 0.  0.
          5    1    3    3  502    0 -0.88485360216E+02 -0.12835959192E+03  0.25288183141E+03  0.29710694517E+03  0.41800000000E+01 0. -1.
         -5    1    3    3    0  502 -0.33905096703E+01 -0.79794532197E+02  0.35512378119E+03  0.36401790518E+03  0.41800000000E+01 0. -1.
        -11    1    1    2    0    0  0.11464781879E+01  0.96024453581E+02  0.10447353834E+03  0.14190394748E+03  0.00000000000E+00 0.  1.
         11    1    1    2    0    0  0.90729391699E+02  0.11212967053E+03  0.26374184773E+03  0.30060713194E+03  0.00000000000E+00 0. -1.
</event>
<event>
 7    1  0.2688177E-009  0.1425117E+03  0.7561462E-02  0.1209989E+00
          1   -1    0    0  501    0  0.00000000000E+00  0.00000000000E+00  0.92751476070E+02  0.92751476070E+02  0.00000000000E+00 0. -1.
         -1   -1    0    0    0  501 -0.00000000000E+00 -0.00000000000E+00 -0.25061579955E+03  0.25061579955E+03  0.00000000000E+00 0.  1.
         25    2    1    2    0    0 -0.10472437137E+03  0.60677670820E+01 -0.10358615178E+03  0.19334335941E+03  0.12509017560E+03 0.  0.
          5    1    3    3  502    0 -0.89804682188E+01  0.51046035765E+02 -0.58523050029E+02  0.78286437915E+02  0.41800000000E+01 0. -1.
         -5    1    3    3    0  502 -0.95743903150E+02 -0.44978268683E+02 -0.45063101749E+02  0.11505692149E+03  0.41800000000E+01 0. -1.
        -11    1    1    2    0    0 -0.36439769641E+01 -0.17790232586E+02  0.12635827475E+02  0.22123179689E+02  0.00000000000E+00 0. -1.
         11    1    1    2    0    0  0.10836834833E+03  0.11722465504E+02 -0.66913999181E+02  0.12790073653E+03  0.00000000000E+00 0.  1.
</event>
<event>
 7    1  0.2688177E-009  0.9477435E+02  0.7561462E-02  0.1291685E+00
          2   -1    0    0  501    0  0.00000000000E+00  0.00000000000E+00  0.13696269125E+04  0.13696269125E+04  0.00000000000E+00 0. -1.
         -2   -1    0    0    0  501 -0.00000000000E+00 -0.00000000000E+00 -0.15651647430E+02  0.15651647430E+02  0.00000000000E+00 0.  1.
         25    2    1    2    0    0 -0.20687240273E+02  0.36416081130E+01  0.11728922479E+04  0.11797305331E+04  0.12508669953E+03 0.  0.
          5    1    3    3  502    0 -0.56969833628E+02 -0.39758960805E+02  0.59277200685E+03  0.59684374958E+03  0.41800000000E+01 0. -1.
         -5    1    3    3    0  502  0.36282593355E+02  0.43400568918E+02  0.58012024104E+03  0.58288678354E+03  0.41800000000E+01 0. -1.
        -11    1    1    2    0    0  0.19029776948E+01  0.27118964602E+02  0.16294813621E+03  0.16520034704E+03  0.00000000000E+00 0. -1.
         11    1    1    2    0    0  0.18784262578E+02 -0.30760572715E+02  0.18134880945E+02  0.40347679751E+02  0.00000000000E+00 0.  1.
</event>
<event>
 6    1  0.2688177E-009  0.1048327E+03  0.7561462E-02  0.1270450E+00
         -1   -1    0    0    0  501 -0.00000000000E+00  0.00000000000E+00  0.24915618372E+02  0.24915618372E+02  0.00000000000E+00 0.  1.
          1   -1    0    0  501    0  0.00000000000E+00 -0.00000000000E+00 -0.56353013329E+03  0.56353013329E+03  0.00000000000E+00 0. -1.
          5    1    1    2  502    0  0.76944010765E+02  0.12395678346E+02 -0.19046575589E+03  0.20583661045E+03  0.41800000000E+01 0.  1.
         -5    1    1    2    0  502 -0.38283918027E+02 -0.40144454222E+02 -0.11962507183E+03  0.13192750204E+03  0.41800000000E+01 0.  1.
        -11    1    1    2    0    0 -0.28904682294E+02 -0.14702772869E+02 -0.18932618829E+03  0.19208346561E+03  0.00000000000E+00 0. -1.
         11    1    1    2    0    0 -0.97554104439E+01  0.42451548746E+02 -0.39197498899E+02  0.58598173553E+02  0.00000000000E+00 0.  1.
</event>
<event>
 7    1  0.2688177E-009  0.1335751E+03  0.7561462E-02  0.1222245E+00
          1   -1    0    0  501    0  0.00000000000E+00  0.00000000000E+00  0.22949160744E+03  0.22949160744E+03  0.00000000000E+00 0.  1.
         -1   -1    0    0    0  501 -0.00000000000E+00 -0.00000000000E+00 -0.10939866607E+03  0.10939866607E+03  0.00000000000E+00 0. -1.
         25    2    1    2    0    0  0.75169587102E+02  0.77596927737E+02  0.11024378271E+03  0.19867852778E+03  0.12509083003E+03 0.  0.
          5    1    3    3  502    0  0.10071233488E+03  0.64348695217E+02  0.45942706102E+02  0.12810906922E+03  0.41800000000E+01 0. -1.
         -5    1    3    3    0  502 -0.25542747779E+02  0.13248232520E+02  0.64301076605E+02  0.70569458561E+02  0.41800000000E+01 0. -1.
        -11    1    1    2    0    0 -0.65424182238E+01 -0.39411857290E+02  0.39579643365E+02  0.56237406592E+02  0.00000000000E+00 0.  1.
         11    1    1    2    0    0 -0.68627168878E+02 -0.38185070448E+02 -0.29730484699E+02  0.83974339139E+02  0.00000000000E+00 0. -1.
</event>
<event>
 7    1  0.2688177E-009  0.1260432E+03  0.7561462E-02  0.1233448E+00
          1   -1    0    0  501    0  0.00000000000E+00  0.00000000000E+00  0.17196213907E+03  0.17196213907E+03  0.00000000000E+00 0. -1.
         -1   -1    0    0    0  501 -0.00000000000E+00 -0.00000000000E+00 -0.13095195449E+03  0.13095195449E+03  0.00000000000E+00 0.  1.
         25    2    1    2    0    0 -0.53227331015E+02 -0.85838283151E+02 -0.12138736228E+01  0.16078176473E+03  0.12509173737E+03 0.  0.
          5    1    3    3  502    0 -0.85723651337E+02 -0.54635573459E+02  0.29697337510E+02  0.10598582236E+03  0.41800000000E+01 0.  1.
         -5    1    3    3    0  502  0.32496320323E+02 -0.31202709692E+02 -0.30911211133E+02  0.54795942371E+02  0.41800000000E+01 0.  1.
        -11    1    1    2    0    0  0.56597195736E+02  0.76402650372E+02 -0.36743385603E+01  0.95153078316E+02  0.00000000000E+00 0.  1.
         11    1    1    2    0    0 -0.33698647213E+01  0.94356327790E+01  0.45898396764E+02  0.46979250523E+02  0.00000000000E+00 0. -1.
</event>
<event>
 7    1  0.2688177E-009  0.1075584E+03  0.7561462E-02  0.1265159E+00
         -2   -1    0    0    0  501 -0.00000000000E+00  0.00000000000E+00  0.46921491270E+02  0.46921491270E+02  0.00000000000E+00 0.  1.
          2   -1    0    0  501    0  0.00000000000E+00 -0.00000000000E+00 -0.38426812212E+03  0.38426812212E+03  0.00000000000E+00 0. -1.
         25    2    1    2    0    0 -0.52783254769E+02 -0.52872688967E+02 -0.23117380455E+03  0.27325888751E+03  0.12508996152E+03 0.  0.
          5    1    3    3  502    0 -0.69520387542E+02 -0.73062483540E+02 -0.11035395473E+03  0.14955493475E+03  0.41800000000E+01 0.  1.
         -5    1    3    3    0  502  0.16737132773E+02  0.20189794572E+02 -0.12081984982E+03  0.12370395276E+03  0.41800000000E+01 0.  1.
        -11    1    1    2    0    0  0.51014892199E+02  0.20148468623E+02 -0.11193951374E+03  0.12465526363E+03  0.00000000000E+00 0. -1.
         11    1    1    2    0    0  0.17683625699E+01  0.32724220344E+02  0.57666874434E+01  0.33275462242E+02  0.00000000000E+00 0.  1.
</event>
<event>
 7    1  0.2688177E-009  0.1215233E+03  0.7561462E-02  0.1240605E+00
          2   -1    0    0  501    0  0.00000000000E+00  0.00000000000E+00  0.17525093063E+04  0.17525093063E+04  0.00000000000E+00 0. -1.
         -2   -1    0    0    0  501 -0.00000000000E+00 -0.00000000000E+00 -0.95429967406E+01  0.95429967406E+01  0.00000000000E+00 0.  1.
         25    2    1    2    0    0 -0.52604769485E+02 -0.27798949949E+02  0.12342284253E+04  0.12419773743E+04  0.12509176232E+03 0.  0.
          5    1    3    3  502    0 -0.39798412123E+02  0.45961101178E+02  0.67486825818E+03  0.67761417837E+03  0.41800000000E+01 0. -1.
         -5    1    3    3    0  502 -0.12806357362E+02 -0.73760051127E+02  0.55936016717E+03  0.56436319595E+03  0.41800000000E+01 0. -1.
        -11    1    1    2    0    0  0.41701576850E+02 -0.28026973358E+02  0.20592809392E+03  0.21196913127E+03  0.00000000000E+00 0.  1.
         11    1    1    2    0    0  0.10903192635E+02  0.55825923307E+02  0.30280979028E+03  0.30810579743E+03  0.00000000000E+00 0. -1.
</event>
<event>
 7    1  0.2804962E-009  0.9388147E+02  0.7561462E-02  0.1293715E+00
         -1   -1    0    0    0  501 -0.00000000000E+00  0.00000000000E+00  0.11991963211E+03  0.11991963211E+03  0.00000000000E+00 0.  1.
          1   -1    0    0  501    0  0.00000000000E+00 -0.00000000000E+00 -0.14401814221E+03  0.14401814221E+03  0.00000000000E+00 0. -1.
         25    2    1    2    0    0  0.66645999018E+02 -0.36199199866E+00 -0.46767685067E+02  0.14925367458E+03  0.12509045842E+03 0.  0.
          5    1    3    3  502    0  0.93550241917E+02  0.22146328976E+01 -0.67058961010E+02  0.11519951829E+03  0.41800000000E+01 0. -1.
         -5    1    3    3    0  502 -0.26904242899E+02 -0.25766248963E+01  0.20291275942E+02  0.34054156299E+02  0.41800000000E+01 0. -1.
        -11    1    1    2    0    0 -0.30134437333E+02 -0.16314086347E+01 -0.35115595703E+02  0.46301737215E+02  0.00000000000E+00 0. -1.
         11    1    1    2    0    0 -0.36511561685E+02  0.19934006334E+01  0.57784770674E+02  0.68382362526E+02  0.00000000000E+00 0.  1.
</event>
<event>
 7    1  0.2688177E-009  0.1084624E+03  0.7561462E-02  0.1263444E+00
          2   -1    0    0  501    0  0.00000000000E+00  0.00000000000E+00  0.96542193502E+02  0.96542193502E+02  0.00000000000E+00 0. -1.
         -2   -1    0    0    0  501 -0.00000000000E+00 -0.00000000000E+00 -0.20940092161E+03  0.20940092161E+03  0.00000000000E+00 0.  1.
         25    2    1    2    0    0 -0.10169089633E+02 -0.88859568540E+02 -0.82671944892E+02  0.17457624847E+03  0.12507111078E+03 0.  0.
          5    1    3    3  502    0 -0.17798180183E+01 -0.42163388900E+02  0.30203608435E+02  0.52063898031E+02  0.41800000000E+01 0. -1.
         -5    1    3    3    0  502 -0.83892716142E+01 -0.46696179639E+02 -0.11287555333E+03  0.12251235044E+03  0.41800000000E+01 0. -1.
        -11    1    1    2    0    0  0.49720777820E+02  0.38666743356E+02 -0.23027078548E+02  0.67063545502E+02  0.00000000000E+00 0. -1.
         11    1    1    2    0    0 -0.39551688188E+02  0.50192825183E+02 -0.71597046659E+01  0.64303321137E+02  0.00000000000E+00 0.  1.
</event>
<event>
 7    1  0.2688177E-009  0.7849543E+02  0.7561462E-02  0.1333376E+00
         -2   -1    0    0    0  501 -0.00000000000E+00  0.00000000000E+00  0.15372601173E+02  0.15372601173E+02  0.00000000000E+00 0. -1.
          2   -1    0    0  501    0  0.00000000000E+00 -0.00000000000E+00 -0.13255719308E+04  0.13255719308E+04  0.00000000000E+00 0.  1.
         25    2    1    2    0    0  0.37119212246E+01 -0.42553059510E+01 -0.11462574044E+04  0.11530767129E+04  0.12509189642E+03 0.  0.
          5    1    3    3  502    0  0.12184399467E+02 -0.33607475796E+02 -0.98566057969E+02  0.10493170257E+03  0.41800000000E+01 0. -1.
         -5    1    3    3    0  502 -0.84724782428E+01  0.29352169845E+02 -0.10476913465E+04  0.10481450103E+04  0.41800000000E+01 0. -1.
        -11    1    1    2    0    0  0.43071179529E+02  0.51099291400E+01 -0.96326916110E+02  0.10564143434E+03  0.00000000000E+00 0. -1.
         11    1    1    2    0    0 -0.46783100754E+02 -0.85462318907E+00 -0.67615009031E+02  0.82226384715E+02  0.00000000000E+00 0.  1.
</event>
<event>
 7    1  0.2688177E-009  0.1313064E+03  0.7561462E-02  0.1225530E+00
         -1   -1    0    0    0  501 -0.00000000000E+00  0.00000000000E+00  0.62496863757E+03  0.62496863757E+03  0.00000000000E+00 0.  1.
          1   -1    0    0  501    0  0.00000000000E+00 -0.00000000000E+00 -0.47850372343E+02  0.47850372343E+02  0.00000000000E+00 0. -1.
         25    2    1    2    0    0 -0.30034266916E+02 -0.95346197035E+02  0.13940974744E+03  0.21230855874E+03  0.12508753718E+03 0.  0.
          5    1    3    3  502    0 -0.39111069847E+01  0.96654155231E+01  0.94348210198E+02  0.95014599839E+02  0.41800000000E+01 0. -1.
         -5    1    3    3    0  502 -0.26123159931E+02 -0.10501161256E+03  0.45061537237E+02  0.11729395890E+03  0.41800000000E+01 0. -1.
        -11    1    1    2    0    0  0.58144403630E+02  0.98927387607E+02  0.34749986853E+03  0.36595567808E+03  0.00000000000E+00 0. -1.
         11    1    1    2    0    0 -0.28110136714E+02 -0.35811905718E+01  0.90208649261E+02  0.94554773087E+02  0.00000000000E+00 0.  1.
</event>
<event>
 7    1  0.2688177E-009  0.1116324E+03  0.7561462E-02  0.1257577E+00
          1   -1    0    0  501    0  0.00000000000E+00  0.00000000000E+00  0.71837929698E+02  0.71837929698E+02  0.00000000000E+00 0. -1.
         -1   -1    0    0    0  501 -0.00000000000E+00 -0.00000000000E+00 -0.23272424481E+03  0.23272424481E+03  0.00000000000E+00 0.  1.
         25    2    1    2    0    0  0.58946481204E+02  0.20149081998E+02 -0.12903274046E+03  0.19020270241E+03  0.12508775616E+03 0.  0.
          5    1    3    3  502    0  0.33043869598E+02  0.58335302827E+02 -0.17480336496E+02  0.69411378303E+02  0.41800000000E+01 0. -1.
         -5    1    3    3    0  502  0.25902611606E+02 -0.38186220829E+02 -0.11155240397E+03  0.12079132411E+03  0.41800000000E+01 0. -1.
        -11    1    1    2    0    0 -0.32035794049E+02  0.35577253577E+02 -0.15987595601E+02  0.50474115005E+02  0.00000000000E+00 0. -1.
         11    1    1    2    0    0 -0.26910687155E+02 -0.55726335575E+02 -0.15865979052E+02  0.63885357094E+02  0.00000000000E+00 0.  1.
</event>
<event>
 6    1  0.2688177E-009  0.2126622E+03  0.7561462E-02  0.1139475E+00
          2   -1    0    0  501    0  0.00000000000E+00  0.00000000000E+00  0.55604689316E+03  0.55604689316E+03  0.00000000000E+00 0.  1.
         -2   -1    0    0    0  501 -0.00000000000E+00 -0.00000000000E+00 -0.23570545835E+03  0.23570545835E+03  0.00000000000E+00 0. -1.
          5    1    1    2  502    0 -0.10843678396E+02 -0.66759221081E+02  0.16607588955E+01  0.67783548746E+02  0.41800000000E+01 0. -1.
         -5    1    1    2    0  502 -0.12135681250E+03 -0.76969964973E+02 -0.15036716631E+03  0.20803751718E+03  0.41800000000E+01 0. -1.
        -11    1    1    2    0    0 -0.74041290252E+01  0.37881079971E+02  0.66082630926E+02  0.76529154291E+02  0.00000000000E+00 0. -1.
         11    1    1    2    0    0  0.13960461992E+03  0.10584810608E+03  0.40296521130E+03  0.43940213129E+03  0.00000000000E+00 0.  1.
</event>
<event>
 7    1  0.2688177E-009  0.1060836E+03  0.7561462E-02  0.1267999E+00
         -2   -1    0    0    0  501 -0.00000000000E+00  0.00000000000E+00  0.30932204788E+02  0.30932204788E+02  0.00000000000E+00 0. -1.
          2   -1    0    0  501    0  0.00000000000E+00 -0.00000000000E+00 -0.41731252088E+03  0.41731252088E+03  0.00000000000E+00 0.  1.
         25    2    1    2    0    0  0.22469101792E+02  0.25039946301E+02 -0.21030190149E+03  0.24699652939E+03  0.12509410983E+03 0.  0.
          5    1    3    3  502    0  0.29996984276E+02 -0.47497003082E+02 -0.85490954227E+02  0.10238144374E+03  0.41800000000E+01 0.  1.
         -5    1    3    3    0  502 -0.75278824846E+01  0.72536949383E+02 -0.12481094726E+03  0.14461508565E+03  0.41800000000E+01 0.  1.
        -11    1    1    2    0    0 -0.40269046782E+02  0.11725659144E+02 -0.35797704367E+02  0.55141298942E+02  0.00000000000E+00 0. -1.
         11    1    1    2    0    0  0.17799944990E+02 -0.36765605445E+02 -0.14028071023E+03  0.14610689733E+03  0.00000000000E+00 0.  1.
</event>
<event>
 7    1  0.2688177E-009  0.7674661E+02  0.7561462E-02  0.1338546E+00
         -2   -1    0    0    0  501 -0.00000000000E+00  0.00000000000E+00  0.73874727215E+02  0.73874727215E+02  0.00000000000E+00 0.  1.
          2   -1    0    0  501    0  0.00000000000E+00 -0.00000000000E+00 -0.17987208264E+03  0.17987208264E+03  0.00000000000E+00 0. -1.
         25    2    1    2    0    0 -0.18335031082E+02  0.18717877803E+02 -0.85500287315E+02  0.15376467629E+03  0.12508694668E+03 0.  0.
          5    1    3    3  502    0  0.73501332103E+01  0.27117541880E+02  0.26274388401E+02  0.38693687103E+02  0.41800000000E+01 0.  1.
         -5    1    3    3    0  502 -0.25685164292E+02 -0.83996640770E+01 -0.11177467572E+03  0.11507098919E+03  0.41800000000E+01 0.  1.
        -11    1    1    2    0    0 -0.34084841392E+02  0.12993427515E+02 -0.10006426163E+02  0.37825046409E+02  0.00000000000E+00 0. -1.
         11    1    1    2    0    0  0.52419872474E+02 -0.31711305317E+02 -0.10490641947E+02  0.62157087155E+02  0.00000000000E+00 0.  1.
</event>
<event>
 7    1  0.2688177E-009  0.1060580E+03  0.7561462E-02  0.1268049E+00
          1   -1    0    0  501    0  0.00000000000E+00  0.00000000000E+00  0.98417193222E+02  0.98417193222E+02  0.00000000000E+00 0. -1.
         -1   -1    0    0    0  501 -0.00000000000E+00 -0.00000000000E+00 -0.12928244147E+03  0.12928244147E+03  0.00000000000E+00 0.  1.
         25    2    1    2    0    0 -0.11964342243E+02  0.90683017241E+01  0.93855468119E+01  0.12633394616E+03  0.12508716114E+03 0.  0.
          5    1    3    3  502    0 -0.41538347123E+02  0.55444444623E+02  0.14608365460E+02  0.70925294942E+02  0.41800000000E+01 0.  1.
         -5    1    3    3    0  502  0.29574004880E+02 -0.46376142899E+02 -0.52228186484E+01  0.55408651214E+02  0.41800000000E+01 0.  1.
        -11    1    1    2    0    0  0.47257957307E+02 -0.18923269252E+02 -0.39967376993E+02  0.64720907531E+02  0.00000000000E+00 0.  1.
         11    1    1    2    0    0 -0.35293615064E+02  0.98549675274E+01 -0.28341806979E+00  0.36644781007E+02  0.00000000000E+00 0. -1.
</event>
<event>
 7    1  0.2688177E-009  0.9706116E+02  0.7561462E-02  0.1286600E+00
          2   -1    0    0  501    0  0.00000000000E+00  0.00000000000E+00  0.11092461757E+04  0.11092461757E+04  0.00000000000E+00 0.  1.
         -2   -1    0    0    0  501 -0.00000000000E+00 -0.00000000000E+00 -0.30543460471E+02  0.30543460471E+02  0.00000000000E+00 0. -1.
         25    2    1    2    0    0 -0.63949474274E+02 -0.36143205922E+02  0.96972409320E+03  0.98051410035E+03  0.12508883822E+03 0.  0.
          5    1    3    3  502    0  0.24114048549E+02  0.87821067910E+00  0.52759959241E+03  0.52816764470E+03  0.41800000000E+01 0. -1.
         -5    1    3    3    0  502 -0.88063522823E+02 -0.37021416601E+02  0.44212450079E+03  0.45234645565E+03  0.41800000000E+01 0. -1.
        -11    1    1    2    0    0  0.77499940752E+01  0.80803018433E+01 -0.15924243647E+02  0.19466258546E+02  0.00000000000E+00 0. -1.
         11    1    1    2    0    0  0.56199480199E+02  0.28062904079E+02  0.12490286568E+03  0.13980927729E+03  0.00000000000E+00 0.  1.
</event>
<event>
 7    1  0.2688177E-009  0.1154283E+03  0.7561462E-02  0.1250835E+00
         -3   -1    0    0    0  501 -0.00000000000E+00  0.00000000000E+00  0.47764864401E+02  0.47764864401E+02  0.00000000000E+00 0.  1.
          3   -1    0    0  501    0  0.00000000000E+00 -0.00000000000E+00 -0.28346569714E+03  0.28346569714E+03  0.00000000000E+00 0. -1.
         25    2    1    2    0    0  0.32920372034E+02 -0.14717307563E+02 -0.11344638564E+03  0.17267988192E+03  0.12509160310E+03 0.  0.
          5    1    3    3  502    0 -0.31572255167E+02 -0.47743479404E+02 -0.55066316911E+02  0.79536273361E+02  0.41800000000E+01 0.  1.
         -5    1    3    3    0  502  0.64492627201E+02  0.33026171841E+02 -0.58380068729E+02  0.93143608555E+02  0.41800000000E+01 0.  1.
        -11    1    1    2    0    0  0.60790304551E+01 -0.36225002280E+02 -0.41730918592E+02  0.55593839299E+02  0.00000000000E+00 0.  1.
         11    1    1    2    0    0 -0.38999402489E+02  0.50942309843E+02 -0.80523528507E+02  0.10295684033E+03  0.00000000000E+00 0. -1.
</event>
<event>
 6    1  0.2688177E-009  0.9928713E+02  0.7561462E-02  0.1281802E+00
          1   -1    0    0  501    0  0.00000000000E+00  0.00000000000E+00  0.77589281935E+03  0.77589281935E+03  0.00000000000E+00 0. -1.
         -1   -1    0    0    0  501 -0.00000000000E+00 -0.00000000000E+00 -0.23595963943E+02  0.23595963943E+02  0.00000000000E+00 0.  1.
          5    1    1    2  502    0  0.38559160946E+02  0.62086812848E+02  0.12712896032E+03  0.14669978246E+03  0.41800000000E+01 0. -1.
         -5    1    1    2    0  502 -0.29672005510E+02  0.12889118826E+02  0.36968041952E+03  0.37111675019E+03  0.41800000000E+01 0. -1.
        -11    1    1    2    0    0 -0.31742931603E+02 -0.43502502991E+02  0.53270993579E+02  0.75748796889E+02  0.00000000000E+00 0.  1.
         11    1    1    2    0    0  0.22855776167E+02 -0.31473428683E+02  0.20221648199E+03  0.20592345375E+03  0.00000000000E+00 0. -1.
</event>
<event>
 7    1  0.2688177E-009  0.3233573E+03  0.7561462E-02  0.1074114E+00
         -2   -1    0    0    0  501 -0.00000000000E+00  0.00000000000E+00  0.59150198685E+03  0.59150198685E+03  0.00000000000E+00 0.  1.
          2   -1    0    0  501    0  0.00000000000E+00 -0.00000000000E+00 -0.19045116625E+03  0.19045116625E+03  0.00000000000E+00 0. -1.
         25    2    1    2    0    0  0.11071315898E+03 -0.29212073935E+03  0.26761606718E+03  0.42994940027E+03  0.12508476105E+03 0.  0.
          5    1    3    3  502    0  0.67558207572E+02 -0.68143018790E+02  0.13623211334E+03  0.16668606278E+03  0.41800000000E+01 0.  1.
         -5    1    3    3    0  502  0.43154951412E+02 -0.22397772056E+03  0.13138395384E+03  0.26326333749E+03  0.41800000000E+01 0.  1.
        -11    1    1    2    0    0 -0.35167751004E+02  0.20152857216E+03  0.10801090277E+03  0.23133718081E+03  0.00000000000E+00 0.  1.
         11    1    1    2    0    0 -0.75545407979E+02  0.90592167189E+02  0.25423850653E+02  0.12066657203E+03  0.00000000000E+00 0. -1.
</event>
<event>
 7    1  0.2688177E-009  0.1556001E+03  0.7561462E-02  0.1193756E+00
          1   -1    0    0  501    0  0.00000000000E+00  0.00000000000E+00  0.32004495495E+03  0.32004495495E+03  0.00000000000E+00 0. -1.
         -1   -1    0    0    0  501 -0.00000000000E+00 -0.00000000000E+00 -0.90730647742E+02  0.90730647742E+02  0.00000000000E+00 0.  1.
         25    2    1    2    0    0  0.70101580707E+02 -0.10777079494E+03  0.89081247496E+02  0.20029480554E+03  0.12511500554E+03 0.  0.
          5    1    3    3  502    0 -0.16599761877E+02 -0.64033204091E+02 -0.30752012232E+01  0.66353090230E+02  0.41800000000E+01 0. -1.
         -5    1    3    3    0  502  0.86701342584E+02 -0.43737590851E+02  0.92156448719E+02  0.13394171531E+03  0.41800000000E+01 0. -1.
        -11    1    1    2    0    0 -0.41553020807E+02  0.59552473477E+01  0.75819181251E+02  0.86664103035E+02  0.00000000000E+00 0. -1.
         11    1    1    2    0    0 -0.28548559900E+02  0.10181554759E+03  0.64413878461E+02  0.12381669412E+03  0.00000000000E+00 0.  1.
</event>
<event>
 7    1  0.2688177E-009  0.9421407E+02  0.7561462E-02  0.1292956E+00
         -1   -1    0    0    0  501 -0.00000000000E+00  0.00000000000E+00  0.18549788022E+03  0.18549788022E+03  0.00000000000E+00 0.  1.
          1   -1    0    0  501    0  0.00000000000E+00 -0.00000000000E+00 -0.70814206054E+02  0.70814206054E+02  0.00000000000E+00 0. -1.
         25    2    1    2    0    0 -0.26443808275E+02  0.71514763633E+01  0.92690924252E+02  0.15808003766E+03  0.12508905730E+03 0.  0.
          5    1    3    3  502    0 -0.16516343638E+02 -0.56611353101E+02  0.24188146526E+02  0.63876237674E+02  0.41800000000E+01 0. -1.
         -5    1    3    3    0  502 -0.99274646371E+01  0.63762829464E+02  0.68502777726E+02  0.94203799985E+02  0.41800000000E+01 0. -1.
        -11    1    1    2    0    0  0.35328799147E+02  0.16782596763E+02 -0.23813600187E+02  0.45791562074E+02  0.00000000000E+00 0. -1.
         11    1    1    2    0    0 -0.88849908722E+01 -0.23934073126E+02  0.45806350104E+02  0.52440486545E+02  0.00000000000E+00 0.  1.
</event>
<event>
 7    1  0.2688177E-009  0.8571107E+02  0.7561462E-02  0.1313583E+00
          1   -1    0    0  501    0  0.00000000000E+00  0.00000000000E+00  0.23093331073E+03  0.23093331073E+03  0.00000000000E+00 0. -1.
         -1   -1    0    0    0  501 -0.00000000000E+00 -0.00000000000E+00 -0.62672939330E+02  0.62672939330E+02  0.00000000000E+00 0.  1.
         25    2    1    2    0    0  0.13914732918E+02 -0.34924151153E+02  0.49795612952E+02  0.13977410452E+03  0.12507550159E+03 0.  0.
          5    1    3    3  502    0  0.15805475658E+02  0.15847133105E+02  0.78178912881E+02  0.81427019518E+02  0.41800000000E+01 0. -1.
         -5    1    3    3    0  502 -0.18907427402E+01 -0.50771284258E+02 -0.28383299929E+02  0.58347085001E+02  0.41800000000E+01 0. -1.
        -11    1    1    2    0    0  0.30811490489E+02 -0.11800802439E+02  0.47232618961E+02  0.57615338047E+02  0.00000000000E+00 0. -1.
         11    1    1    2    0    0 -0.44726223406E+02  0.46724953592E+02  0.71232139490E+02  0.96216807496E+02  0.00000000000E+00 0.  1.
</event>
<event>
 7    1  0.3083540E-009  0.1787626E+03  0.7561462E-02  0.1169006E+00
          2   -1    0    0  501    0  0.00000000000E+00  0.00000000000E+00  0.63911405488E+03  0.63911405488E+03  0.00000000000E+00 0. -1.
         -2   -1    0    0    0  501 -0.00000000000E+00 -0.00000000000E+00 -0.57947178005E+02  0.57947178005E+02  0.00000000000E+00 0.  1.
         25    2    1    2    0    0  0.16596630869E+02 -0.15188370010E+03  0.22923023406E+03  0.30255177951E+03  0.12508785937E+03 0.  0.
          5    1    3    3  502    0 -0.14113222168E+02 -0.15815440024E+03  0.15530039411E+03  0.22214338200E+03  0.41800000000E+01 0.  1.
         -5    1    3    3    0  502  0.30709853038E+02  0.62707001443E+01  0.73929839958E+02  0.80408397510E+02  0.41800000000E+01 0.  1.
        -11    1    1    2    0    0  0.25269851973E+02  0.37124539019E+02  0.16651947067E+03  0.17246892743E+03  0.00000000000E+00 0. -1.
         11    1    1    2    0    0 -0.41866482843E+02  0.11475916108E+03  0.18541717214E+03  0.22204052594E+03  0.00000000000E+00 0.  1.
</event>
<event>
 7    1  0.2688177E-009  0.2906537E+03  0.7561462E-02  0.1090008E+00
          1   -1    0    0  501    0  0.00000000000E+00  0.00000000000E+00  0.47856360853E+03  0.47856360853E+03  0.00000000000E+00 0. -1.
         -1   -1    0    0    0  501 -0.00000000000E+00 -0.00000000000E+00 -0.20227083483E+03  0.20227083483E+03  0.00000000000E+00 0.  1.
         25    2    1    2    0    0  0.24889061090E+03  0.11977540726E+03  0.38711682388E+02  0.30567944721E+03  0.12509454711E+03 0.  0.
          5    1    3    3  502    0  0.22695173262E+03  0.54774800492E+02  0.40159583384E+02  0.23693381406E+03  0.41800000000E+01 0.  1.
         -5    1    3    3    0  502  0.21938878281E+02  0.65000606763E+02 -0.14479009962E+01  0.68745633149E+02  0.41800000000E+01 0.  1.
        -11    1    1    2    0    0 -0.10242153670E+03 -0.71275770440E+02  0.55705515817E+02  0.13665105606E+03  0.00000000000E+00 0.  1.
         11    1    1    2    0    0 -0.14646907421E+03 -0.48499636815E+02  0.18187557550E+03  0.23850394008E+03  0.00000000000E+00 0. -1.
</event>
<event>
 7    1  0.2688177E-009  0.1696167E+03  0.7561462E-02  0.1178248E+00
          2   -1    0    0  501    0  0.00000000000E+00  0.00000000000E+00  0.13390745016E+03  0.13390745016E+03  0.00000000000E+00 0.  1.
         -2   -1    0    0    0  501 -0.00000000000E+00 -0.00000000000E+00 -0.29116113536E+03  0.29116113536E+03  0.00000000000E+00 0. -1.
         25    2    1    2    0    0  0.10681496295E+03 -0.92324350465E+02 -0.17319559961E+03  0.25608095506E+03  0.12509003886E+03 0.  0.
          5    1    3    3  502    0 -0.23556697496E+02 -0.29214264157E+02 -0.12675017014E+02  0.39831139621E+02  0.41800000000E+01 0. -1.
         -5    1    3    3    0  502  0.13037166045E+03 -0.63110086308E+02 -0.16052058260E+03  0.21624981544E+03  0.41800000000E+01 0. -1.
        -11    1    1    2    0    0 -0.28858921175E+02  0.69634893642E+02  0.38610831802E+02  0.84691511242E+02  0.00000000000E+00 0.  1.
         11    1    1    2    0    0 -0.77956041773E+02  0.22689456823E+02 -0.22668917386E+02  0.84296119219E+02  0.00000000000E+00 0. -1.
</event>
<event>
 7    1  0.2688177E-009  0.9702250E+02  0.7561462E-02  0.1286685E+00
          2   -1    0    0  501    0  0.00000000000E+00  0.00000000000E+00  0.24444094645E+04  0.24444094645E+04  0.00000000000E+00 0.  1.
         -2   -1    0    0    0  501 -0.00000000000E+00 -0.00000000000E+00 -0.66710781108E+01  0.66710781108E+01  0.00000000000E+00 0. -1.
         25    2    1    2    0    0 -0.15037988495E+02  0.16201795095E+02  0.20930532858E+04  0.20969041427E+04  0.12508511847E+03 0.  0.
          5    1    3    3  502    0  0.50131147508E+02  0.15543059886E+02  0.56266481109E+03  0.56512288991E+03  0.41800000000E+01 0.  1.
         -5    1    3    3    0  502 -0.65169136003E+02  0.65873520914E+00  0.15303884747E+04  0.15317812527E+04  0.41800000000E+01 0.  1.
        -11    1    1    2    0    0 -0.29636515980E+02 -0.75387267812E+01  0.80740415129E+02  0.86337535963E+02  0.00000000000E+00 0. -1.
         11    1    1    2    0    0  0.44674504475E+02 -0.86630683135E+01  0.26394468544E+03  0.26783886401E+03  0.00000000000E+00 0.  1.
</event>
<event>
 7    1  0.2688177E-009  0.1863746E+03  0.7561462E-02  0.1161772E+00
         -2   -1    0    0    0  501 -0.00000000000E+00  0.00000000000E+00  0.72990301257E+02  0.72990301257E+02  0.00000000000E+00 0.  1.
          2   -1    0    0  501    0  0.00000000000E+00 -0.00000000000E+00 -0.76202806605E+03  0.76202806605E+03  0.00000000000E+00 0. -1.
         25    2    1    2    0    0  0.14358777018E+03 -0.10825051732E+03 -0.54355355631E+03  0.58603214090E+03  0.12509028476E+03 0.  0.
          5    1    3    3  502    0  0.12173200088E+03 -0.11644611235E+03 -0.53485737692E+03  0.56077469911E+03  0.41800000000E+01 0.  1.
         -5    1    3    3    0  502  0.21855769297E+02  0.81955950277E+01 -0.86961793879E+01  0.25257441782E+02  0.41800000000E+01 0.  1.
        -11    1    1    2    0    0 -0.71810787405E+02  0.44184727766E+02 -0.13088731612E+02  0.85325226344E+02  0.00000000000E+00 0.  1.
         11    1    1    2    0    0 -0.71776982771E+02  0.64065789554E+02 -0.13239547687E+03  0.16366100007E+03  0.00000000000E+00 0. -1.
</event>
<event>
 7    1  0.2688177E-009  0.1124354E+03  0.7561462E-02  0.1256125E+00
          2   -1    0    0  501    0  0.00000000000E+00  0.00000000000E+00  0.59280746600E+03  0.59280746600E+03  0.00000000000E+00 0. -1.
         -2   -1    0    0    0  501 -0.00000000000E+00 -0.00000000000E+00 -0.37116815333E+02  0.37116815333E+02  0.00000000000E+00 0.  1.
         25    2    1    2    0    0 -0.78044218477E+02  0.53146454740E+02  0.37913887441E+03  0.41025905777E+03  0.12510300835E+03 0.  0.
          5    1    3    3  502    0 -0.79498457310E+02  0.46015539858E+02  0.12094880205E+03  0.15193261579E+03  0.41800000000E+01 0. -1.
         -5    1    3    3    0  502  0.14542388322E+01  0.71309148817E+01  0.25819007236E+03  0.25832644197E+03  0.41800000000E+01 0. -1.
        -11    1    1    2    0    0  0.12173831708E+02  0.21664151798E+02  0.12777991959E+02  0.27943062289E+02  0.00000000000E+00 0. -1.
         11    1    1    2    0    0  0.65870386770E+02 -0.74810606537E+02  0.16377378429E+03  0.19172216128E+03  0.00000000000E+00 0.  1.
</event>
<event>
 7    1  0.2688177E-009  0.1195854E+03  0.7561462E-02  0.1243783E+00
          1   -1    0    0  501    0  0.00000000000E+00  0.00000000000E+00  0.20850661159E+02  0.20850661159E+02  0.00000000000E+00 0. -1.
         -1   -1    0    0    0  501 -0.00000000000E+00 -0.00000000000E+00 -0.89432253765E+03  0.89432253765E+03  0.00000000000E+00 0.  1.
         25    2    1    2    0    0  0.43306134634E+02 -0.68408812971E+02 -0.44949591888E+03  0.47355024235E+03  0.12509222178E+03 0.  0.
          5    1    3    3  502    0  0.51883285335E+01 -0.78479768701E+02 -0.41032820388E+03  0.41781898012E+03  0.41800000000E+01 0. -1.
         -5    1    3    3    0  502  0.38117806100E+02  0.10070955729E+02 -0.39167714993E+02  0.55731262223E+02  0.41800000000E+01 0. -1.
        -11    1    1    2    0    0 -0.71361281875E+02  0.46627540383E+02 -0.25230589182E+03  0.26631714763E+03  0.00000000000E+00 0.  1.
         11    1    1    2    0    0  0.28055147241E+02  0.21781272588E+02 -0.17167006579E+03  0.17530580884E+03  0.00000000000E+00 0. -1.
</event>
<event>
 7    1  0.2688177E-009  0.3141349E+03  0.7561462E-02  0.1078381E+00
          2   -1    0    0  501    0  0.00000000000E+00  0.00000000000E+00  0.11791839697E+04  0.11791839697E+04  0.00000000000E+00 0. -1.
         -2   -1    0    0    0  501 -0.00000000000E+00 -0.00000000000E+00 -0.88138495575E+02  0.88138495575E+02  0.00000000000E+00 0.  1.
         25    2    1    2    0    0  0.26263461842E+03  0.15163815286E+03  0.54928198401E+03  0.63978869515E+03  0.12509118392E+03 0.  0.
          5    1    3    3  502    0  0.97001068509E+02  0.11932219231E+03  0.20450277218E+03  0.25590203027E+03  0.41800000000E+01 0. -1.
         -5    1    3    3    0  502  0.16563354991E+03  0.32315960548E+02  0.34477921183E+03  0.38388666488E+03  0.41800000000E+01 0. -1.
        -11    1    1    2    0    0 -0.87001032758E+02 -0.30171726934E+02  0.24652477447E+03  0.26316150409E+03  0.00000000000E+00 0. -1.
         11    1    1    2    0    0 -0.17563358566E+03 -0.12146642592E+03  0.29523871567E+03  0.36437226605E+03  0.00000000000E+00 0.  1.
</event>
<event>
 7    1  0.2688177E-009  0.1771395E+03  0.7561462E-02  0.1170600E+00
         -1   -1    0    0    0  501 -0.00000000000E+00  0.00000000000E+00  0.22215621677E+03  0.22215621677E+03  0.00000000000E+00 0.  1.
          1   -1    0    0  501    0  0.00000000000E+00 -0.00000000000E+00 -0.14847654919E+03  0.14847654919E+03  0.00000000000E+00 0. -1.
         25    2    1    2    0    0  0.33118165723E+02 -0.13788142963E+03  0.92465398975E+01  0.18931555281E+03  0.12508708366E+03 0.  0.
          5    1    3    3  502    0  0.68705807091E+02 -0.34646849541E+02  0.19703756340E+02  0.79539942954E+02  0.41800000000E+01 0. -1.
         -5    1    3    3    0  502 -0.35587641368E+02 -0.10323458009E+03 -0.10457216442E+02  0.10977560986E+03  0.41800000000E+01 0. -1.
        -11    1    1    2    0    0  0.11447304417E+02 -0.89280781826E+01 -0.93552718938E+00  0.14547390473E+02  0.00000000000E+00 0.  1.
         11    1    1    2    0    0 -0.44565470140E+02  0.14680950781E+03  0.65368654872E+02  0.16676982267E+03  0.00000000000E+00 0. -1.
</event>
<event>
 7    1  0.2688177E-009  0.1056728E+03  0.7561462E-02  0.1268800E+00
          1   -1    0    0  501    0  0.00000000000E+00  0.00000000000E+00  0.18662772498E+03  0.18662772498E+03  0.00000000000E+00 0. -1.
         -1   -1    0    0    0  501 -0.00000000000E+00 -0.00000000000E+00 -0.81124479696E+02  0.81124479696E+02  0.00000000000E+00 0.  1.
         25    2    1    2    0    0  0.53894182192E+02 -0.22860185963E+01  0.78273518141E+02  0.15711208071E+03  0.12509058121E+03 0.  0.
          5    1    3    3  502    0 -0.31466583465E+02 -0.25564497096E+02  0.49193640619E+02  0.63884083026E+02  0.41800000000E+01 0.  1.
         -5    1    3    3    0  502  0.85360765656E+02  0.23278478500E+02  0.29079877522E+02  0.93227997680E+02  0.41800000000E+01 0.  1.
        -11    1    1    2    0    0 -0.52931506963E+02 -0.22277974042E+02 -0.17125858105E+02  0.59927853062E+02  0.00000000000E+00 0.  1.
         11    1    1    2    0    0 -0.96267522886E+00  0.24563992638E+02  0.44355585246E+02  0.50712270906E+02  0.00000000000E+00 0. -1.
</event>
<event>
 7    1  0.2688177E-009  0.1187374E+03  0.7561462E-02  0.1245195E+00
          1   -1    0    0  501    0  0.00000000000E+00  0.00000000000E+00  0.66177643114E+02  0.66177643114E+02  0.00000000000E+00 0. -1.
         -1   -1    0    0    0  501 -0.00000000000E+00 -0.00000000000E+00 -0.28507321460E+03  0.28507321460E+03  0.00000000000E+00 0.  1.
         25    2    1    2    0    0  0.42461572572E+02  0.63724031233E+02 -0.16167544096E+03  0.21828977448E+03  0.12509092745E+03 0.  0.
          5    1    3    3  502    0 -0.42210317202E+02  0.12202931288E+02 -0.29749537195E+02  0.53227152597E+02  0.41800000000E+01 0.  1.
         -5    1    3    3    0  502  0.84671889774E+02  0.51521099944E+02 -0.13192590376E+03  0.16506262188E+03  0.41800000000E+01 0.  1.
        -11    1    1    2    0    0  0.86570172539E+01 -0.33822720662E+02  0.16320705432E+02  0.38539405892E+02  0.00000000000E+00 0. -1.
         11    1    1    2    0    0 -0.51118589826E+02 -0.29901310571E+02 -0.73540835962E+02  0.94421677350E+02  0.00000000000E+00 0.  1.
</event>
<event>
 6    1  0.2688177E-009  0.9634686E+02  0.7561462E-02  0.1288171E+00
         -2   -1    0    0    0  501 -0.00000000000E+00  0.00000000000E+00  0.20402842277E+02  0.20402842277E+02  0.00000000000E+00 0.  1.
          2   -1    0    0  501    0  0.00000000000E+00 -0.00000000000E+00 -0.83981235494E+03  0.83981235494E+03  0.00000000000E+00 0. -1.
          5    1    1    2  502    0  0.70150600051E+01  0.50097517068E+02 -0.43156306453E+02  0.66625156434E+02  0.41800000000E+01 0. -1.
         -5    1    1    2    0  502  0.26976024727E+02  0.53265072551E+01 -0.35304872890E+03  0.35414256306E+03  0.41800000000E+01 0. -1.
        -11    1    1    2    0    0 -0.63019312266E+02 -0.57107457529E+02 -0.25664267718E+03  0.27036671240E+03  0.00000000000E+00 0.  1.
         11    1    1    2    0    0  0.29028227534E+02  0.16834332057E+01 -0.16656180012E+03  0.16908076532E+03  0.00000000000E+00 0. -1.
</event>
<event>
 7    1  0.2688177E-009  0.9068083E+02  0.7561462E-02  0.1301211E+00
          2   -1    0    0  501    0  0.00000000000E+00  0.00000000000E+00  0.15745902302E+03  0.15745902302E+03  0.00000000000E+00 0. -1.
         -2   -1    0    0    0  501 -0.00000000000E+00 -0.00000000000E+00 -0.97398046241E+02  0.97398046241E+02  0.00000000000E+00 0.  1.
         25    2    1    2    0    0  0.37102485192E+02 -0.87295977198E+01 -0.14123225720E+02  0.13152439481E+03  0.12508557327E+03 0.  0.
          5    1    3    3  502    0 -0.45126366286E+02  0.97107524976E+01 -0.65820802277E+01  0.46813286878E+02  0.41800000000E+01 0. -1.
         -5    1    3    3    0  502  0.82228851478E+02 -0.18440350217E+02 -0.75411454919E+01  0.84711107931E+02  0.41800000000E+01 0. -1.
        -11    1    1    2    0    0 -0.13208833465E+02  0.20199250905E+02  0.89516834822E+02  0.92713250052E+02  0.00000000000E+00 0. -1.
         11    1    1    2    0    0 -0.23893651727E+02 -0.11469653185E+02 -0.15332632319E+02  0.30619424404E+02  0.00000000000E+00 0.  1.
</event>
<event>
 7    1  0.2688177E-009  0.5930202E+02  0.7561462E-02  0.1400784E+00
         -1   -1    0    0    0  501 -0.00000000000E+00  0.00000000000E+00  0.15495792385E+03  0.15495792385E+03  0.00000000000E+00 0.  1.
          1   -1    0    0  501    0  0.00000000000E+00 -0.00000000000E+00 -0.90498286367E+02  0.90498286367E+02  0.00000000000E+00 0. -1.
         25    2    1    2    0    0  0.29768478583E+02  0.34287686587E+02  0.30610008365E+02  0.13655661133E+03  0.12509567426E+03 0.  0.
          5    1    3    3  502    0  0.26497935561E+02  0.25977368031E+02  0.78889159435E+02  0.87280788924E+02  0.41800000000E+01 0. -1.
         -5    1    3    3    0  502  0.32705430215E+01  0.83103185552E+01 -0.48279151070E+02  0.49275822410E+02  0.41800000000E+01 0. -1.
        -11    1    1    2    0    0 -0.20287676534E+02 -0.49488909887E+02  0.57956168892E+02  0.78864818098E+02  0.00000000000E+00 0.  1.
         11    1    1    2    0    0 -0.94808020494E+01  0.15201223301E+02 -0.24106539770E+02  0.30034780789E+02  0.00000000000E+00 0. -1.
</event>
<event>
 7    1  0.2688177E-009  0.1399547E+03  0.7561462E-02  0.1213390E+00
         -2   -1    0    0    0  501 -0.00000000000E+00  0.00000000000E+00  0.11661193137E+03  0.11661193137E+03  0.00000000000E+00 0. -1.
          2   -1    0    0  501    0  0.00000000000E+00 -0.00000000000E+00 -0.24845468045E+03  0.24845468045E+03  0.00000000000E+00 0.  1.
         25    2    1    2    0    0 -0.11970775064E+03 -0.65399305560E+01 -0.14969636413E+02  0.17390863041E+03  0.12508958975E+03 0.  0.
          5    1    3    3  502    0 -0.35751774303E+02 -0.35178087383E+02  0.44375961725E+02  0.67099818009E+02  0.41800000000E+01 0.  1.
         -5    1    3    3    0  502 -0.83955976333E+02  0.28638156827E+02 -0.59345598138E+02  0.10680881240E+03  0.41800000000E+01 0.  1.
        -11    1    1    2    0    0  0.10621678512E+03  0.32872443495E+02 -0.11722546339E+03  0.16156859921E+03  0.00000000000E+00 0.  1.
         11    1    1    2    0    0  0.13490965517E+02 -0.26332512939E+02  0.35235072957E+00  0.29589382206E+02  0.00000000000E+00 0. -1.
</event>
<event>
 7    1  0.2688177E-009  0.1110821E+03  0.7561462E-02  0.1258579E+00
          3   -1    0    0  501    0  0.00000000000E+00  0.00000000000E+00  0.11380096848E+04  0.11380096848E+04  0.00000000000E+00 0. -1.
         -3   -1    0    0    0  501 -0.00000000000E+00 -0.00000000000E+00 -0.15445273579E+02  0.15445273579E+02  0.00000000000E+00 0.  1.
         25    2    1    2    0    0  0.54419498593E+01 -0.57900409432E+02  0.84611888568E+03  0.85729007181E+03  0.12508807409E+03 0.  0.
          5    1    3    3  502    0  0.54465513689E+02  0.10927158779E+01  0.22997893566E+03  0.23637992608E+03  0.41800000000E+01 0. -1.
         -5    1    3    3    0  502 -0.49023563830E+02 -0.58993125309E+02  0.61613995003E+03  0.62091014572E+03  0.41800000000E+01 0. -1.
        -11    1    1    2    0    0  0.30202608623E+02  0.41869900804E+02  0.22874048206E+03  0.23449412422E+03  0.00000000000E+00 0. -1.
         11    1    1    2    0    0 -0.35644558483E+02  0.16030508628E+02  0.47705043497E+02  0.61670762370E+02  0.00000000000E+00 0.  1.
</event>
<event>
 7    1  0.2688177E-009  0.1038769E+03  0.7561462E-02  0.1272348E+00
          4   -1    0    0  501    0  0.00000000000E+00  0.00000000000E+00  0.32070234414E+03  0.32070234414E+03  0.00000000000E+00 0. -1.
         -4   -1    0    0    0  501 -0.00000000000E+00 -0.00000000000E+00 -0.66236964491E+02  0.66236964491E+02  0.00000000000E+00 0.  1.
         25    2    1    2    0    0 -0.74786125593E+02  0.32767099821E+02  0.69553435899E+02  0.16478893148E+03  0.12510421288E+03 0.  0.
          5    1    3    3  502    0 -0.17947137845E+02  0.19501396348E+02 -0.35523414815E+02  0.44517295700E+02  0.41800000000E+01 0. -1.
         -5    1    3    3    0  502 -0.56838987748E+02  0.13265703473E+02  0.10507685071E+03  0.12027163578E+03  0.41800000000E+01 0. -1.
        -11    1    1    2    0    0  0.45527732086E+02 -0.64689808529E+02  0.10777239156E+03  0.13368782330E+03  0.00000000000E+00 0. -1.
         11    1    1    2    0    0  0.29258393507E+02  0.31922708707E+02  0.77139552189E+02  0.88462553850E+02  0.00000000000E+00 0.  1.
</event>
<event>
 7    1  0.2688177E-009  0.6645745E+02  0.7561462E-02  0.1372572E+00
          1   -1    0    0  501    0  0.00000000000E+00  0.00000000000E+00  0.40589768265E+03  0.40589768265E+03  0.00000000000E+00 0. -1.
         -1   -1    0    0    0  501 -0.00000000000E+00 -0.00000000000E+00 -0.45301086873E+02  0.45301086873E+02  0.00000000000E+00 0.  1.
         25    2    1    2    0    0 -0.24640095093E+02  0.12685212432E+02  0.32331647377E+03  0.34777672564E+03  0.12508820801E+03 0.  0.
          5    1    3    3  502    0 -0.18830707188E+02 -0.26553632094E+02  0.13639261593E+02  0.35541423260E+02  0.41800000000E+01 0.  1.
         -5    1    3    3    0  502 -0.58093879046E+01  0.39238844525E+02  0.30967721218E+03  0.31223530238E+03  0.41800000000E+01 0.  1.
        -11    1    1    2    0    0  0.35769415665E+02 -0.24977058942E+02 -0.16881392556E+02  0.46779119114E+02  0.00000000000E+00 0.  1.
         11    1    1    2    0    0 -0.11129320572E+02  0.12291846510E+02  0.54161514563E+02  0.56642924773E+02  0.00000000000E+00 0. -1.
</event>
<event>
 7    1  0.2688177E-009  0.2151523E+03  0.7561462E-02  0.1137550E+00
         -1   -1    0    0    0  501 -0.00000000000E+00  0.00000000000E+00  0.21934964845E+03  0.21934964845E+03  0.00000000000E+00 0.  1.
          1   -1    0    0  501    0  0.00000000000E+00 -0.00000000000E+00 -0.24393104210E+03  0.24393104210E+03  0.00000000000E+00 0. -1.
         25    2    1    2    0    0  0.62403616532E+01 -0.19305155865E+03  0.52714815942E+02  0.23608353997E+03  0.12509492241E+03 0.  0.
          5    1    3    3  502    0 -0.48782134721E+02 -0.12611692136E+03  0.13997692612E+01  0.13529451679E+03  0.41800000000E+01 0.  1.
         -5    1    3    3    0  502  0.55022496374E+02 -0.66934637292E+02  0.51315046681E+02  0.10078902317E+03  0.41800000000E+01 0.  1.
        -11    1    1    2    0    0  0.33807304701E+02  0.12317670277E+03 -0.71665574444E+02  0.14646292540E+03  0.00000000000E+00 0. -1.
         11    1    1    2    0    0 -0.40047666355E+02  0.69874855877E+02 -0.56306351477E+01  0.80734225187E+02  0.00000000000E+00 0.  1.
</event>
<event>
 7    1  0.2688177E-009  0.9242983E+02  0.7561462E-02  0.1297072E+00
         -2   -1    0    0    0  501 -0.00000000000E+00  0.00000000000E+00  0.15729609790E+03  0.15729609790E+03  0.00000000000E+00 0.  1.
          2   -1    0    0  501    0  0.00000000000E+00 -0.00000000000E+00 -0.84706694422E+02  0.84706694422E+02  0.00000000000E+00 0. -1.
         25    2    1    2    0    0 -0.34026970972E+02 -0.22248395900E+02  0.57730915008E+02  0.14364216819E+03  0.12508952019E+03 0.  0.
          5    1    3    3  502    0  0.17470302417E+02 -0.47304576915E+02  0.68557423273E+02  0.85208726956E+02  0.41800000000E+01 0.  1.
         -5    1    3    3    0  502 -0.51497273389E+02  0.25056181016E+02 -0.10826508265E+02  0.58433441237E+02  0.41800000000E+01 0.  1.
        -11    1    1    2    0    0 -0.18564562956E+02  0.14756683345E+02 -0.23071924587E+02  0.33086498836E+02  0.00000000000E+00 0. -1.
         11    1    1    2    0    0  0.52591533928E+02  0.74917125545E+01  0.37930413058E+02  0.65274125292E+02  0.00000000000E+00 0.  1.
</event>
<event>
 7    1  0.2688177E-009  0.1191412E+03  0.7561462E-02  0.1244521E+00
         -1   -1    0    0    0  501 -0.00000000000E+00  0.00000000000E+00  0.16960916054E+03  0.16960916054E+03  0.00000000000E+00 0.  1.
          1   -1    0    0  501    0  0.00000000000E+00 -0.00000000000E+00 -0.11378329111E+03  0.11378329111E+03  0.00000000000E+00 0. -1.
         25    2    1    2    0    0 -0.59773906670E+02 -0.60739947230E+02  0.47410289388E+02  0.15860568771E+03  0.12508304252E+03 0.  0.
          5    1    3    3  502    0 -0.83375702301E+02 -0.10100486757E+02  0.57242740988E+02  0.10172379939E+03  0.41800000000E+01 0. -1.
         -5    1    3    3    0  502  0.23601795631E+02 -0.50639460473E+02 -0.98324515993E+01  0.56881888317E+02  0.41800000000E+01 0. -1.
        -11    1    1    2    0    0  0.50565492667E+02  0.16815519112E+02  0.42720192087E+02  0.68298210398E+02  0.00000000000E+00 0.  1.
         11    1    1    2    0    0  0.92084140029E+01  0.43924428118E+02 -0.34304612049E+02  0.56488553547E+02  0.00000000000E+00 0. -1.
</event>
<event>
 7    1  0.4173469E-009  0.9905012E+02  0.7561462E-02  0.1282306E+00
         -3   -1    0    0    0  501 -0.00000000000E+00  0.00000000000E+00  0.96924161461E+02  0.96924161461E+02  0.00000000000E+00 0.  1.
          3   -1    0    0  501    0  0.00000000000E+00 -0.00000000000E+00 -0.17037034722E+03  0.17037034722E+03  0.00000000000E+00 0. -1.
         25    2    1    2    0    0  0.38876807708E+02  0.55470087679E+02 -0.27542934127E+02  0.14489206578E+03  0.12508701252E+03 0.  0.
          5    1    3    3  502    0 -0.31520328217E+02 -0.10606798453E+02  0.18013068500E+02  0.38052310063E+02  0.41800000000E+01 0. -1.
         -5    1    3    3    0  502  0.70397135925E+02  0.66076886132E+02 -0.45556002627E+02  0.10683975572E+03  0.41800000000E+01 0. -1.
        -11    1    1    2    0    0 -0.24275361298E+02 -0.30100592278E+02  0.24759427105E+02  0.45916969109E+02  0.00000000000E+00 0.  1.
         11    1    1    2    0    0 -0.14601446411E+02 -0.25369495401E+02 -0.70662678740E+02  0.76485473790E+02  0.00000000000E+00 0. -1.
</event>
<event>
 7    1  0.3372759E-009  0.1618042E+03  0.7561462E-02  0.1186675E+00
          3   -1    0    0  501    0  0.00000000000E+00  0.00000000000E+00  0.53612054205E+03  0.53612054205E+03  0.00000000000E+00 0.  1.
         -3   -1    0    0    0  501 -0.00000000000E+00 -0.00000000000E+00 -0.58005609285E+02  0.58005609285E+02  0.00000000000E+00 0. -1.
         25    2    1    2    0    0  0.11718015119E+03  0.69664227182E+02  0.21255264239E+03  0.28179846479E+03  0.12508979411E+03 0.  0.
          5    1    3    3  502    0  0.12999188081E+03  0.74032058488E+02  0.13058794553E+03  0.19861852551E+03  0.41800000000E+01 0.  1.
         -5    1    3    3    0  502 -0.12811729621E+02 -0.43678313060E+01  0.81964696866E+02  0.83179939280E+02  0.41800000000E+01 0.  1.
        -11    1    1    2    0    0 -0.91522665611E+02 -0.66651331174E+01  0.11510125374E+03  0.14720435093E+03  0.00000000000E+00 0. -1.
         11    1    1    2    0    0 -0.25657485577E+02 -0.62999094065E+02  0.15046103663E+03  0.16512333561E+03  0.00000000000E+00 0.  1.
</event>
<event>
 7    1  0.2688177E-009  0.9880000E+02  0.7561462E-02  0.1282840E+00
          1   -1    0    0  501    0  0.00000000000E+00  0.00000000000E+00  0.14081493145E+03  0.14081493145E+03  0.00000000000E+00 0. -1.
         -1   -1    0    0    0  501 -0.00000000000E+00 -0.00000000000E+00 -0.11473241784E+03  0.11473241784E+03  0.00000000000E+00 0.  1.
         25    2    1    2    0    0 -0.24408206338E+02 -0.49560511717E+02  0.51737659123E+02  0.14619589839E+03  0.12507777771E+03 0.  0.
          5    1    3    3  502    0 -0.63831398102E+02 -0.80811132054E+01  0.60183147706E+02  0.88199974162E+02  0.41800000000E+01 0. -1.
         -5    1    3    3    0  502  0.39423191764E+02 -0.41479398512E+02 -0.84454885836E+01  0.57995924229E+02  0.41800000000E+01 0. -1.
        -11    1    1    2    0    0 -0.43227741986E+01 -0.92955072087E+01 -0.40850806244E+02  0.42117469082E+02  0.00000000000E+00 0.  1.
         11    1    1    2    0    0  0.28730980537E+02  0.58856018926E+02  0.15195660736E+02  0.67233981822E+02  0.00000000000E+00 0. -1.
</event>
<event>
 7    1  0.2688177E-009  0.1223301E+03  0.7561462E-02  0.1239302E+00
          2   -1    0    0  501    0  0.00000000000E+00  0.00000000000E+00  0.16190213061E+03  0.16190213061E+03  0.00000000000E+00 0.  1.
         -2   -1    0    0    0  501 -0.00000000000E+00 -0.00000000000E+00 -0.12846488586E+03  0.12846488586E+03  0.00000000000E+00 0. -1.
         25    2    1    2    0    0  0.84343784805E+01  0.81342685926E+02 -0.30120431019E+02  0.15245524144E+03  0.12509032330E+03 0.  0.
          5    1    3    3  502    0  0.45450172534E+02  0.95326090468E+02 -0.58567815979E+01  0.10585157532E+03  0.41800000000E+01 0. -1.
         -5    1    3    3    0  502 -0.37015794054E+02 -0.13983404542E+02 -0.24263649421E+02  0.46603666114E+02  0.41800000000E+01 0. -1.
        -11    1    1    2    0    0  0.20529498001E+02 -0.11407415948E+02  0.57337233144E+02  0.61960856446E+02  0.00000000000E+00 0.  1.
         11    1    1    2    0    0 -0.28963876482E+02 -0.69935269978E+02  0.62204426259E+01  0.75950918587E+02  0.00000000000E+00 0. -1.
</event>
<event>
 7    1  0.2688177E-009  0.1158746E+03  0.7561462E-02  0.1250062E+00
          3   -1    0    0  501    0  0.00000000000E+00  0.00000000000E+00  0.19453913976E+03  0.19453913976E+03  0.00000000000E+00 0. -1.
         -3   -1    0    0    0  501 -0.00000000000E+00 -0.00000000000E+00 -0.88798950214E+02  0.88798950214E+02  0.00000000000E+00 0.  1.
         25    2    1    2    0    0  0.12857215278E+02 -0.43198135718E+02  0.12174105332E+03  0.18027722116E+03  0.12509038928E+03 0.  0.
          5    1    3    3  502    0  0.14891778476E+02 -0.86005876528E+02  0.97237166708E+02  0.13073375560E+03  0.41800000000E+01 0.  1.
         -5    1    3    3    0  502 -0.20345631980E+01  0.42807740810E+02  0.24503886615E+02  0.49543465562E+02  0.41800000000E+01 0.  1.
        -11    1    1    2    0    0 -0.48976339012E+02  0.58113855657E+01 -0.26575033206E+01  0.49391459881E+02  0.00000000000E+00 0. -1.
         11    1    1    2    0    0  0.36119123735E+02  0.37386750153E+02 -0.13343360460E+02  0.53669408928E+02  0.00000000000E+00 0.  1.
</event>
<event>
 6    1  0.2688177E-009  0.2153030E+03  0.7561462E-02  0.1137434E+00
         -1   -1    0    0    0  501 -0.00000000000E+00  0.00000000000E+00  0.31973440431E+03  0.31973440431E+03  0.00000000000E+00 0.  1.
          1   -1    0    0  501    0  0.00000000000E+00 -0.00000000000E+00 -0.16163797898E+03  0.16163797898E+03  0.00000000000E+00 0. -1.
          5    1    1    2  502    0  0.14558930027E+02  0.18272089729E+03 -0.26733785265E+00  0.18334784596E+03  0.41800000000E+01 0. -1.
         -5    1    1    2    0  502  0.40491265260E+02 -0.38731953978E+01  0.10204221741E+02  0.42144308587E+02  0.41800000000E+01 0. -1.
        -11    1    1    2    0    0  0.19427963686E+02 -0.81577298262E+02  0.42069851192E+02  0.93819900576E+02  0.00000000000E+00 0. -1.
         11    1    1    2    0    0 -0.74478158973E+02 -0.97270403631E+02  0.10608969025E+03  0.16206032816E+03  0.00000000000E+00 0.  1.
</event>
<event>
 7    1  0.2688177E-009  0.4983966E+02  0.7561462E-02  0.1446208E+00
          2   -1    0    0  501    0  0.00000000000E+00  0.00000000000E+00  0.52734529118E+03  0.52734529118E+03  0.00000000000E+00 0.  1.
         -2   -1    0    0    0  501 -0.00000000000E+00 -0.00000000000E+00 -0.25796285498E+02  0.25796285498E+02  0.00000000000E+00 0. -1.
         25    2    1    2    0    0 -0.94831186359E+00  0.18576952896E+02  0.37036851145E+03  0.39135960201E+03  0.12507398348E+03 0.  0.
          5    1    3    3  502    0  0.50177148848E+00 -0.15270520166E+02 -0.32623189107E+01  0.16172683310E+02  0.41800000000E+01 0. -1.
         -5    1    3    3    0  502 -0.14500833521E+01  0.33847473062E+02  0.37363083036E+03  0.37518691870E+03  0.41800000000E+01 0. -1.
        -11    1    1    2    0    0 -0.39460300093E+01  0.15133642565E+02 -0.86429698204E+01  0.17868945616E+02  0.00000000000E+00 0. -1.
         11    1    1    2    0    0  0.48943418729E+01 -0.33710595461E+02  0.13982346406E+03  0.14391302905E+03  0.00000000000E+00 0.  1.
</event>
<event>
 7    1  0.3735335E-009  0.2042222E+03  0.7561462E-02  0.1146225E+00
         -1   -1    0    0    0  501 -0.00000000000E+00  0.00000000000E+00  0.14339676736E+03  0.14339676736E+03  0.00000000000E+00 0.  1.
          1   -1    0    0  501    0  0.00000000000E+00 -0.00000000000E+00 -0.37683073901E+03  0.37683073901E+03  0.00000000000E+00 0. -1.
         25    2    1    2    0    0  0.16111137379E+03  0.10315892554E+03 -0.37461208482E+02  0.23161432412E+03  0.12507283604E+03 0.  0.
          5    1    3    3  502    0  0.62649128066E+02  0.72585321470E+02 -0.75010912359E+02  0.12180989908E+03  0.41800000000E+01 0. -1.
         -5    1    3    3    0  502  0.98462245719E+02  0.30573604067E+02  0.37549703877E+02  0.10980442504E+03  0.41800000000E+01 0. -1.
        -11    1    1    2    0    0 -0.72067859095E+02 -0.95880806577E+02 -0.89699786840E+02  0.14977635709E+03  0.00000000000E+00 0.  1.
         11    1    1    2    0    0 -0.89043514691E+02 -0.72781189595E+01 -0.10627297632E+03  0.13883682516E+03  0.00000000000E+00 0. -1.
</event>
<event>
 7    1  0.2688177E-009  0.1084655E+03  0.7561462E-02  0.1263438E+00
         -2   -1    0    0    0  501 -0.00000000000E+00  0.00000000000E+00  0.17028479946E+03  0.17028479946E+03  0.00000000000E+00 0.  1.
          2   -1    0    0  501    0  0.00000000000E+00 -0.00000000000E+00 -0.16116501458E+03  0.16116501458E+03  0.00000000000E+00 0. -1.
         25    2    1    2    0    0 -0.85385059498E+02  0.19941669503E+02 -0.84210849278E+02  0.17443377032E+03  0.12508954603E+03 0.  0.
          5    1    3    3  502    0 -0.77263081439E+02  0.53142761022E+02 -0.12257284985E+02  0.94664936686E+02  0.41800000000E+01 0.  1.
         -5    1    3    3    0  502 -0.81219780592E+01 -0.33201091519E+02 -0.71953564293E+02  0.79768833639E+02  0.41800000000E+01 0.  1.
        -11    1    1    2    0    0  0.62833761770E+02 -0.87093238597E+01  0.32928440492E+01  0.63519892649E+02  0.00000000000E+00 0. -1.
         11    1    1    2    0    0  0.22551297728E+02 -0.11232345644E+02  0.90037790108E+02  0.93496151073E+02  0.00000000000E+00 0.  1.
</event>
<event>
 7    1  0.2688177E-009  0.1925181E+03  0.7561462E-02  0.1156210E+00
          2   -1    0    0  501    0  0.00000000000E+00  0.00000000000E+00  0.41083234505E+03  0.41083234505E+03  0.00000000000E+00 0. -1.
         -2   -1    0    0    0  501 -0.00000000000E+00 -0.00000000000E+00 -0.11213376782E+03  0.11213376782E+03  0.00000000000E+00 0.  1.
         25    2    1    2    0    0  0.91688611691E+02 -0.16006206411E+03  0.16176434920E+03  0.27539585025E+03  0.12509397979E+03 0.  0.
          5    1    3    3  502    0  0.82761288946E+02 -0.14630300317E+03  0.18281776432E+03  0.24838238069E+03  0.41800000000E+01 0. -1.
         -5    1    3    3    0  502  0.89273227454E+01 -0.13759060943E+02 -0.21053415121E+02  0.27013469560E+02  0.41800000000E+01 0. -1.
        -11    1    1    2    0    0 -0.95048496803E+02  0.93520513882E+02  0.61248567556E+02  0.14673680618E+03  0.00000000000E+00 0.  1.
         11    1    1    2    0    0  0.33598851120E+01  0.66541550231E+02  0.75685660476E+02  0.10083345644E+03  0.00000000000E+00 0. -1.
</event>
<event>
 7    1  0.2688177E-009  0.1259428E+03  0.7561462E-02  0.1233603E+00
         -2   -1    0    0    0  501 -0.00000000000E+00  0.00000000000E+00  0.29924588810E+02  0.29924588810E+02  0.00000000000E+00 0.  1.
          2   -1    0    0  501    0  0.00000000000E+00 -0.00000000000E+00 -0.72730069102E+03  0.72730069102E+03  0.00000000000E+00 0. -1.
         25    2    1    2    0    0  0.21768928854E+02 -0.38784481240E+02 -0.17129023612E+03  0.21671512289E+03  0.12508787811E+03 0.  0.
          5    1    3    3  502    0 -0.61678767639E+01 -0.79483018512E+02 -0.81008690257E+02  0.11373422191E+03  0.41800000000E+01 0. -1.
         -5    1    3    3    0  502  0.27936805618E+02  0.40698537272E+02 -0.90281545860E+02  0.10298090098E+03  0.41800000000E+01 0. -1.
        -11    1    1    2    0    0  0.23971161411E+02 -0.30930861336E+02 -0.13091866556E+03  0.13664198387E+03  0.00000000000E+00 0.  1.
         11    1    1    2    0    0 -0.45740090265E+02  0.69715342576E+02 -0.39516720053E+03  0.40386817308E+03  0.00000000000E+00 0. -1.
</event>
<event>
 7    1  0.2688177E-009  0.1335371E+03  0.7561462E-02  0.1222300E+00
         -1   -1    0    0    0  501 -0.00000000000E+00  0.00000000000E+00  0.57932452264E+03  0.57932452264E+03  0.00000000000E+00 0.  1.
          1   -1    0    0  501    0  0.00000000000E+00 -0.00000000000E+00 -0.49096162974E+02  0.49096162974E+02  0.00000000000E+00 0. -1.
         25    2    1    2    0    0 -0.64072242367E+01 -0.12014913067E+03  0.36731098241E+03  0.40625318232E+03  0.12508966474E+03 0.  0.
          5    1    3    3  502    0  0.91971288162E+01 -0.81487541112E+02  0.75810011427E+02  0.11175614868E+03  0.41800000000E+01 0.  1.
         -5    1    3    3    0  502 -0.15604353053E+02 -0.38661589555E+02  0.29150097098E+03  0.29449703364E+03  0.41800000000E+01 0.  1.
        -11    1    1    2    0    0  0.40398427389E+02  0.44356280028E+02  0.10490448264E+03  0.12084892631E+03  0.00000000000E+00 0.  1.
         11    1    1    2    0    0 -0.33991203152E+02  0.75792850639E+02  0.58012894625E+02  0.10131857699E+03  0.00000000000E+00 0. -1.
</event>
<event>
 7    1  0.2688177E-009  0.9535039E+02  0.7561462E-02  0.1290389E+00
         -1   -1    0    0    0  501 -0.00000000000E+00  0.00000000000E+00  0.83737884370E+02  0.83737884370E+02  0.00000000000E+00 0.  1.
          1   -1    0    0  501    0  0.00000000000E+00 -0.00000000000E+00 -0.27063317320E+03  0.27063317320E+03  0.00000000000E+00 0. -1.
         25    2    1    2    0    0  0.36228160409E+02 -0.56051375557E+02 -0.73729163977E+01  0.14197192288E+03  0.12508969055E+03 0.  0.
          5    1    3    3  502    0  0.37578903902E+02 -0.34993277200E+01  0.50819664628E+02  0.63439183679E+02  0.41800000000E+01 0.  1.
         -5    1    3    3    0  502 -0.13507434925E+01 -0.52552047837E+02 -0.58192581025E+02  0.78532739200E+02  0.41800000000E+01 0.  1.
        -11    1    1    2    0    0 -0.58449385900E+01  0.67330685279E+02 -0.16205354599E+03  0.17558170820E+03  0.00000000000E+00 0. -1.
         11    1    1    2    0    0 -0.30383221819E+02 -0.11279309722E+02 -0.17468826439E+02  0.36817426486E+02  0.00000000000E+00 0.  1.
</event>
<event>
 7    1  0.2688177E-009  0.1123412E+03  0.7561462E-02  0.1256295E+00
         -1   -1    0    0    0  501 -0.00000000000E+00  0.00000000000E+00  0.12695335858E+02  0.12695335858E+02  0.00000000000E+00 0.  1.
          1   -1    0    0  501    0  0.00000000000E+00 -0.00000000000E+00 -0.10537471485E+04  0.10537471485E+04  0.00000000000E+00 0. -1.
         25    2    1    2    0    0 -0.23320420567E+02 -0.31290371141E+02 -0.65522091567E+03  0.66820113154E+03  0.12512143911E+03 0.  0.
          5    1    3    3  502    0  0.47132755497E+02  0.10070924218E+02 -0.28209065928E+03  0.28620889680E+03  0.41800000000E+01 0. -1.
         -5    1    3    3    0  502 -0.70453176063E+02 -0.41361295358E+02 -0.37313025639E+03  0.38199223474E+03  0.41800000000E+01 0. -1.
        -11    1    1    2    0    0  0.56110874740E+02  0.16185266515E+02 -0.29031384970E+03  0.29612923605E+03  0.00000000000E+00 0. -1.
         11    1    1    2    0    0 -0.32790454174E+02  0.15105104626E+02 -0.95517047321E+02  0.10211211681E+03  0.00000000000E+00 0.  1.
</event>
<event>
 7    1  0.2688177E-009  0.1142643E+03  0.7561462E-02  0.1252871E+00
          2   -1    0    0  501    0  0.00000000000E+00  0.00000000000E+00  0.79532667052E+02  0.79532667052E+02  0.00000000000E+00 0. -1.
         -2   -1    0    0    0  501 -0.00000000000E+00 -0.00000000000E+00 -0.23095489335E+03  0.23095489335E+03  0.00000000000E+00 0.  1.
         25    2    1    2    0    0  0.24918260330E+02 -0.71720558594E+02 -0.11895989412E+03  0.18858525644E+03  0.12509270289E+03 0.  0.
          5    1    3    3  502    0  0.62572841557E+02 -0.47487275420E+02 -0.12013383606E+03  0.14359670189E+03  0.41800000000E+01 0. -1.
         -5    1    3    3    0  502 -0.37654581227E+02 -0.24233283174E+02  0.11739419456E+01  0.44988554550E+02  0.41800000000E+01 0. -1.
        -11    1    1    2    0    0  0.15115962533E+02  0.61834779181E+02 -0.45959259477E+02  0.78512965626E+02  0.00000000000E+00 0.  1.
         11    1    1    2    0    0 -0.40034222863E+02  0.98857794133E+01  0.13496927294E+02  0.43389338336E+02  0.00000000000E+00 0. -1.
</event>
<event>
 7    1  0.4032030E-009  0.1686834E+03  0.7561462E-02  0.1179228E+00
          2   -1    0    0  501    0  0.00000000000E+00  0.00000000000E+00  0.52845772621E+03  0.52845772621E+03  0.00000000000E+00 0. -1.
         -2   -1    0    0    0  501 -0.00000000000E+00 -0.00000000000E+00 -0.66653643319E+02  0.66653643319E+02  0.00000000000E+00 0.  1.
         25    2    1    2    0    0  0.36093825491E+02  0.13861372717E+03  0.32729788498E+03  0.37853476925E+03  0.12509251146E+03 0.  0.
          5    1    3    3  502    0  0.81894987381E+02  0.99279505149E+02  0.23914174051E+03  0.27160532682E+03  0.41800000000E+01 0. -1.
         -5    1    3    3    0  502 -0.45801161890E+02  0.39334222017E+02  0.88156144471E+02  0.10692944244E+03  0.41800000000E+01 0. -1.
        -11    1    1    2    0    0  0.10580019963E+01 -0.70401940768E+02  0.11857277829E+02  0.71401314201E+02  0.00000000000E+00 0.  1.
         11    1    1    2    0    0 -0.37151827487E+02 -0.68211786399E+02  0.12264892008E+03  0.14517528607E+03  0.00000000000E+00 0. -1.
</event>
<event>
 7    1  0.2688177E-009  0.1325117E+03  0.7561462E-02  0.1223776E+00
          1   -1    0    0  501    0  0.00000000000E+00  0.00000000000E+00  0.14379906422E+03  0.14379906422E+03  0.00000000000E+00 0. -1.
         -1   -1    0    0    0  501 -0.00000000000E+00 -0.00000000000E+00 -0.18156852919E+03  0.18156852919E+03  0.00000000000E+00 0.  1.
         25    2    1    2    0    0  0.64438327215E+02 -0.46357016769E+02 -0.11193828366E+03  0.18568551370E+03  0.12509060569E+03 0.  0.
          5    1    3    3  502    0  0.59746711317E+02 -0.87679089104E+02 -0.76237536663E+02  0.13071697126E+03  0.41800000000E+01 0.  1.
         -5    1    3    3    0  502  0.46916158978E+01  0.41322072335E+02 -0.35700746999E+02  0.54968542441E+02  0.41800000000E+01 0.  1.
        -11    1    1    2    0    0 -0.70163375360E+02 -0.17207314376E+00  0.54498257925E+02  0.88842495282E+02  0.00000000000E+00 0. -1.
         11    1    1    2    0    0  0.57250481454E+01  0.46529089912E+02  0.19670560768E+02  0.50839584433E+02  0.00000000000E+00 0.  1.
</event>
<event>
 7    1  0.2688177E-009  0.1461936E+03  0.7561462E-02  0.1205230E+00
         -3   -1    0    0    0  501 -0.00000000000E+00  0.00000000000E+00  0.20128758340E+03  0.20128758340E+03  0.00000000000E+00 0.  1.
          3   -1    0    0  501    0  0.00000000000E+00 -0.00000000000E+00 -0.16078789081E+03  0.16078789081E+03  0.00000000000E+00 0. -1.
         25    2    1    2    0    0  0.33340977479E+02  0.12172998257E+03 -0.45241835776E+02  0.18336374285E+03  0.12508248899E+03 0.  0.
          5    1    3    3  502    0 -0.29344281564E+02  0.82072610926E+02  0.13954797145E+02  0.88369729478E+02  0.41800000000E+01 0. -1.
         -5    1    3    3    0  502  0.62685259043E+02  0.39657371647E+02 -0.59196632921E+02  0.94994013371E+02  0.41800000000E+01 0. -1.
        -11    1    1    2    0    0 -0.13015723822E+02 -0.10087340851E+03  0.10308599951E+03  0.14481566527E+03  0.00000000000E+00 0.  1.
         11    1    1    2    0    0 -0.20325253657E+02 -0.20856574060E+02 -0.17344471135E+02  0.33896066095E+02  0.00000000000E+00 0. -1.
</event>
<event>
 7    1  0.2688177E-009  0.1256259E+03  0.7561462E-02  0.1234094E+00
         -1   -1    0    0    0  501 -0.00000000000E+00  0.00000000000E+00  0.36382444916E+02  0.36382444916E+02  0.00000000000E+00 0.  1.
          1   -1    0    0  501    0  0.00000000000E+00 -0.00000000000E+00 -0.51092323218E+03  0.51092323218E+03  0.00000000000E+00 0. -1.
         25    2    1    2    0    0 -0.68678177345E+02 -0.41839217229E+02 -0.27834098127E+03  0.31558659969E+03  0.12511589790E+03 0.  0.
          5    1    3    3  502    0  0.74498443192E+01  0.36925178304E+02 -0.90207327760E+02  0.97845814191E+02  0.41800000000E+01 0. -1.
         -5    1    3    3    0  502 -0.76128021664E+02 -0.78764395532E+02 -0.18813365351E+03  0.21774078550E+03  0.41800000000E+01 0. -1.
        -11    1    1    2    0    0 -0.75538335096E+01  0.24381650947E+02 -0.62195673456E+01  0.26271816107E+02  0.00000000000E+00 0.  1.
         11    1    1    2    0    0  0.76232010854E+02  0.17457566281E+02 -0.18998023865E+03  0.20544726130E+03  0.00000000000E+00 0. -1.
</event>
<event>
 7    1  0.2688177E-009  0.1050956E+03  0.7561462E-02  0.1269931E+00
         -1   -1    0    0    0  501 -0.00000000000E+00  0.00000000000E+00  0.96914631814E+02  0.96914631814E+02  0.00000000000E+00 0.  1.
          1   -1    0    0  501    0  0.00000000000E+00 -0.00000000000E+00 -0.13255229979E+03  0.13255229979E+03  0.00000000000E+00 0. -1.
         25    2    1    2    0    0  0.16640191825E+02 -0.31433990101E+02 -0.11222934463E+02  0.13052612161E+03  0.12508446125E+03 0.  0.
          5    1    3    3  502    0 -0.36104372724E+02 -0.59762929296E+02 -0.83074649127E+01  0.70438766465E+02  0.41800000000E+01 0.  1.
         -5    1    3    3    0  502  0.52744564549E+02  0.28328939195E+02 -0.29154695505E+01  0.60087355143E+02  0.41800000000E+01 0.  1.
        -11    1    1    2    0    0  0.21195245979E+02 -0.10579143806E+02  0.16742786300E+02  0.29008233811E+02  0.00000000000E+00 0.  1.
         11    1    1    2    0    0 -0.37835437804E+02  0.42013133907E+02 -0.41157519810E+02  0.69932576181E+02  0.00000000000E+00 0. -1.
</event>
<event>
 7    1  0.2688177E-009  0.7160869E+02  0.7561462E-02  0.1354707E+00
         -3   -1    0    0    0  501 -0.00000000000E+00  0.00000000000E+00  0.38187094875E+02  0.38187094875E+02  0.00000000000E+00 0.  1.
          3   -1    0    0  501    0  0.00000000000E+00 -0.00000000000E+00 -0.32000791009E+03  0.32000791009E+03  0.00000000000E+00 0. -1.
         25    2    1    2    0    0 -0.25423619718E+02  0.27931812125E+02 -0.19504380787E+03  0.23476939714E+03  0.12509211117E+03 0.  0.
          5    1    3    3  502    0 -0.38941161932E+02  0.36575422332E+02 -0.17383086486E+02  0.56336663969E+02  0.41800000000E+01 0.  1.
         -5    1    3    3    0  502  0.13517542214E+02 -0.86436102074E+01 -0.17766072138E+03  0.17843273317E+03  0.41800000000E+01 0.  1.
        -11    1    1    2    0    0  0.42349365928E+02 -0.34769999295E+02 -0.27316373658E+02  0.61225859857E+02  0.00000000000E+00 0. -1.
         11    1    1    2    0    0 -0.16925746209E+02  0.68381871705E+01 -0.59460633695E+02  0.62199747973E+02  0.00000000000E+00 0.  1.
</event>
<event>
 7    1  0.2688177E-009  0.1287291E+03  0.7561462E-02  0.1229354E+00
         -2   -1    0    0    0  501 -0.00000000000E+00  0.00000000000E+00  0.56328206955E+02  0.56328206955E+02  0.00000000000E+00 0.  1.
          2   -1    0    0  501    0  0.00000000000E+00 -0.00000000000E+00 -0.36251415181E+03  0.36251415181E+03  0.00000000000E+00 0. -1.
         25    2    1    2    0    0 -0.43058744097E+01 -0.71115289230E+02 -0.25361874822E+03  0.29162540455E+03  0.12508789795E+03 0.  0.
          5    1    3    3  502    0  0.51029003094E+02  0.26330619682E+01 -0.80451739599E+02  0.95398359402E+02  0.41800000000E+01 0.  1.
         -5    1    3    3    0  502 -0.55334877503E+02 -0.73748351198E+02 -0.17316700862E+03  0.19622704515E+03  0.41800000000E+01 0.  1.
        -11    1    1    2    0    0  0.45743408960E+01 -0.21145783999E+02 -0.19746728732E+02  0.29291672386E+02  0.00000000000E+00 0.  1.
         11    1    1    2    0    0 -0.26846648621E+00  0.92261073229E+02 -0.32820467901E+02  0.97925281826E+02  0.00000000000E+00 0. -1.
</event>
<event>
 7    1  0.2688177E-009  0.1056509E+03  0.7561462E-02  0.1268842E+00
          1   -1    0    0  501    0  0.00000000000E+00  0.00000000000E+00  0.53219259089E+03  0.53219259089E+03  0.00000000000E+00 0. -1.
         -1   -1    0    0    0  501 -0.00000000000E+00 -0.00000000000E+00 -0.29151853406E+02  0.29151853406E+02  0.00000000000E+00 0.  1.
         25    2    1    2    0    0  0.57701337595E+02 -0.12186930147E+02  0.26428673951E+03  0.29828333455E+03  0.12508997308E+03 0.  0.
          5    1    3    3  502    0  0.65711175539E+02  0.20416160332E+02  0.60537669067E+02  0.91744536456E+02  0.41800000000E+01 0.  1.
         -5    1    3    3    0  502 -0.80098379445E+01 -0.32603090479E+02  0.20374907044E+03  0.20653879810E+03  0.41800000000E+01 0.  1.
        -11    1    1    2    0    0  0.23749688158E+02 -0.71805583629E+01  0.36202244989E+02  0.43888616386E+02  0.00000000000E+00 0.  1.
         11    1    1    2    0    0 -0.81451025753E+02  0.19367488510E+02  0.20255175299E+03  0.21917249336E+03  0.00000000000E+00 0. -1.
</event>
<event>
 7    1  0.3251316E-009  0.3808125E+03  0.7561462E-02  0.1050634E+00
         -2   -1    0    0    0  501 -0.00000000000E+00  0.00000000000E+00  0.28043543370E+03  0.28043543370E+03  0.00000000000E+00 0.  1.
          2   -1    0    0  501    0  0.00000000000E+00 -0.00000000000E+00 -0.54661637779E+03  0.54661637779E+03  0.00000000000E+00 0. -1.
         25    2    1    2    0    0  0.37221883918E+03  0.52179659819E+02 -0.13279686314E+03  0.41779446380E+03  0.12509047117E+03 0.  0.
          5    1    3    3  502    0  0.67336617345E+01  0.15093747091E+02 -0.32923476803E+02  0.37075478775E+02  0.41800000000E+01 0. -1.
         -5    1    3    3    0  502  0.36548517745E+03  0.37085912728E+02 -0.99873386338E+02  0.38071898502E+03  0.41800000000E+01 0. -1.
        -11    1    1    2    0    0 -0.14301350079E+03 -0.35654111775E+02 -0.97376963600E+02  0.17665319169E+03  0.00000000000E+00 0. -1.
         11    1    1    2    0    0 -0.22920533840E+03 -0.16525548044E+02 -0.36007117353E+02  0.23260415600E+03  0.00000000000E+00 0.  1.
</event>
<event>
 7    1  0.2688177E-009  0.1170468E+03  0.7561462E-02  0.1248050E+00
          2   -1    0    0  501    0  0.00000000000E+00  0.00000000000E+00  0.18494554829E+03  0.18494554829E+03  0.00000000000E+00 0. -1.
         -2   -1    0    0    0  501 -0.00000000000E+00 -0.00000000000E+00 -0.13603027053E+03  0.13603027053E+03  0.00000000000E+00 0.  1.
         25    2    1    2    0    0  0.31781190953E+02 -0.85524633598E+02 -0.45137627714E+02  0.16127737184E+03  0.12509387747E+03 0.  0.
          5    1    3    3  502    0  0.42923614827E+02 -0.10774979379E+03 -0.61376036359E+02  0.13128954646E+03  0.41800000000E+01 0.  1.
         -5    1    3    3    0  502 -0.11142423874E+02  0.22225160190E+02  0.16238408645E+02  0.29987825373E+02  0.41800000000E+01 0.  1.
        -11    1    1    2    0    0 -0.10363249767E+01  0.24206301049E+02 -0.16698465840E+02  0.29425460767E+02  0.00000000000E+00 0.  1.
         11    1    1    2    0    0 -0.30744865976E+02  0.61318332549E+02  0.11075137131E+03  0.13027298622E+03  0.00000000000E+00 0. -1.
</event>
<event>
 7    1  0.2688177E-009  0.1160877E+03  0.7561462E-02  0.1249694E+00
          2   -1    0    0  501    0  0.00000000000E+00  0.00000000000E+00  0.10108876287E+04  0.10108876287E+04  0.00000000000E+00 0. -1.
         -2   -1    0    0    0  501 -0.00000000000E+00 -0.00000000000E+00 -0.17870184227E+02  0.17870184227E+02  0.00000000000E+00 0.  1.
         25    2    1    2    0    0  0.12881131091E+01 -0.50604449817E+02  0.78497132385E+03  0.79648698366E+03  0.12509622814E+03 0.  0.
          5    1    3    3  502    0  0.34149502837E+02  0.28725803553E+02  0.18303924165E+03  0.18844680077E+03  0.41800000000E+01 0.  1.
         -5    1    3    3    0  502 -0.32861389728E+02 -0.79330253371E+02  0.60193208219E+03  0.60804018289E+03  0.41800000000E+01 0.  1.
        -11    1    1    2    0    0  0.35725429817E+01  0.75720419393E+02  0.17301773360E+03  0.18889542376E+03  0.00000000000E+00 0. -1.
         11    1    1    2    0    0 -0.48606560908E+01 -0.25115969576E+02  0.35028386992E+02  0.43375405481E+02  0.00000000000E+00 0.  1.
</event>
<event>
 7    1  0.2688177E-009  0.9553937E+02  0.7561462E-02  0.1289966E+00
         -2   -1    0    0    0  501 -0.00000000000E+00  0.00000000000E+00  0.29575018593E+02  0.29575018593E+02  0.00000000000E+00 0.  1.
          2   -1    0    0  501    0  0.00000000000E+00 -0.00000000000E+00 -0.45895091550E+03  0.45895091550E+03  0.00000000000E+00 0. -1.
         25    2    1    2    0    0 -0.74855795369E+01  0.41244840763E+02 -0.21796749004E+03  0.25478123303E+03  0.12508588729E+03 0.  0.
          5    1    3    3  502    0  0.47693938597E+02  0.34193581979E+01 -0.33555168958E+02  0.58564712525E+02  0.41800000000E+01 0.  1.
         -5    1    3    3    0  502 -0.55179518133E+02  0.37825482565E+02 -0.18441232108E+03  0.19621652050E+03  0.41800000000E+01 0.  1.
        -11    1    1    2    0    0 -0.28204295675E+02 -0.18258535766E+02 -0.17383906563E+03  0.17705614127E+03  0.00000000000E+00 0. -1.
         11    1    1    2    0    0  0.35689875212E+02 -0.22986304997E+02 -0.37569341235E+02  0.56688559789E+02  0.00000000000E+00 0.  1.
</event>
<event>
 7    1  0.2688177E-009  0.3550910E+03  0.7561462E-02  0.1060545E+00
          1   -1    0    0  501    0  0.00000000000E+00  0.00000000000E+00  0.52495198960E+03  0.52495198960E+03  0.00000000000E+00 0.  1.
         -1   -1    0    0    0  501 -0.00000000000E+00 -0.00000000000E+00 -0.25382674342E+03  0.25382674342E+03  0.00000000000E+00 0. -1.
         25    2    1    2    0    0 -0.23775883623E+03 -0.24512572382E+03  0.21201384868E+03  0.42096701640E+03  0.12508985642E+03 0.  0.
          5    1    3    3  502    0 -0.31001121324E+02  0.12160793458E+02  0.20954776688E+02  0.39566772511E+02  0.41800000000E+01 0. -1.
         -5    1    3    3    0  502 -0.20675771491E+03 -0.25728651728E+03  0.19105907199E+03  0.38140024389E+03  0.41800000000E+01 0. -1.
        -11    1    1    2    0    0  0.94142096918E+02  0.13930461331E+03 -0.51137711611E+01  0.16821016722E+03  0.00000000000E+00 0.  1.
         11    1    1    2    0    0  0.14361673932E+03  0.10582111052E+03  0.64225168660E+02  0.18960154939E+03  0.00000000000E+00 0. -1.
</event>
<event>
 7    1  0.2688177E-009  0.1197947E+03  0.7561462E-02  0.1243436E+00
          4   -1    0    0  501    0  0.00000000000E+00  0.00000000000E+00  0.86640910521E+02  0.86640910521E+02  0.00000000000E+00 0. -1.
         -4   -1    0    0    0  501 -0.00000000000E+00 -0.00000000000E+00 -0.24547106069E+03  0.24547106069E+03  0.00000000000E+00 0.  1.
         25    2    1    2    0    0  0.47995839126E+02  0.24792007998E+02  0.58176108969E+01  0.13641334372E+03  0.12512598257E+03 0.  0.
          5    1    3    3  502    0  0.82727295882E+01 -0.49084901617E+02 -0.10026133597E+02  0.50948615060E+02  0.41800000000E+01 0. -1.
         -5    1    3    3    0  502  0.39723109537E+02  0.73876909615E+02  0.15843744494E+02  0.85464728661E+02  0.41800000000E+01 0. -1.
        -11    1    1    2    0    0  0.21682143727E+01  0.30741516091E+02 -0.52424760053E+02  0.60811984278E+02  0.00000000000E+00 0. -1.
         11    1    1    2    0    0 -0.50164053498E+02 -0.55533524089E+02 -0.11222300102E+03  0.13488664322E+03  0.00000000000E+00 0.  1.
</event>
<event>
 7    1  0.2688177E-009  0.8764732E+02  0.7561462E-02  0.1308651E+00
         -1   -1    0    0    0  501 -0.00000000000E+00  0.00000000000E+00  0.32314068623E+02  0.32314068623E+02  0.00000000000E+00 0.  1.
          1   -1    0    0  501    0  0.00000000000E+00 -0.00000000000E+00 -0.41999450858E+03  0.41999450858E+03  0.00000000000E+00 0. -1.
         25    2    1    2    0    0  0.11368606207E+02 -0.27842652319E+02 -0.27676633110E+03  0.30520804833E+03  0.12509153544E+03 0.  0.
          5    1    3    3  502    0 -0.66362568145E+00 -0.61001074255E+02 -0.25777650952E+03  0.26492975054E+03  0.41800000000E+01 0.  1.
         -5    1    3    3    0  502  0.12032231889E+02  0.33158421936E+02 -0.18989821586E+02  0.40278297797E+02  0.41800000000E+01 0.  1.
        -11    1    1    2    0    0  0.12701685916E+02 -0.20789837855E+02 -0.83920566054E+00  0.24377334746E+02  0.00000000000E+00 0.  1.
         11    1    1    2    0    0 -0.24070292124E+02  0.48632490174E+02 -0.11007490319E+03  0.12272319413E+03  0.00000000000E+00 0. -1.
</event>
<event>
 7    1  0.2688177E-009  0.1034032E+03  0.7561462E-02  0.1273298E+00
         -1   -1    0    0    0  501 -0.00000000000E+00  0.00000000000E+00  0.45905648920E+02  0.45905648920E+02  0.00000000000E+00 0.  1.
          1   -1    0    0  501    0  0.00000000000E+00 -0.00000000000E+00 -0.28640956538E+03  0.28640956538E+03  0.00000000000E+00 0. -1.
         25    2    1    2    0    0  0.15138498370E+02 -0.34605032042E+02 -0.10453041216E+03  0.16733991334E+03  0.12509739067E+03 0.  0.
          5    1    3    3  502    0  0.28211093920E+02 -0.77678522146E+02 -0.50701889206E+02  0.97046239453E+02  0.41800000000E+01 0.  1.
         -5    1    3    3    0  502 -0.13072595549E+02  0.43073490105E+02 -0.53828522959E+02  0.70293673884E+02  0.41800000000E+01 0.  1.
        -11    1    1    2    0    0 -0.30600709633E+02  0.48970514158E+02 -0.13118707010E+03  0.14333374358E+03  0.00000000000E+00 0.  1.
         11    1    1    2    0    0  0.15462211263E+02 -0.14365482116E+02 -0.47864341927E+01  0.21641557380E+02  0.00000000000E+00 0. -1.
</event>
<event>
 7    1  0.2688177E-009  0.1358693E+03  0.7561462E-02  0.1218998E+00
          3   -1    0    0  501    0  0.00000000000E+00  0.00000000000E+00  0.18719614122E+04  0.18719614122E+04  0.00000000000E+00 0. -1.
         -3   -1    0    0    0  501 -0.00000000000E+00 -0.00000000000E+00 -0.10384682380E+02  0.10384682380E+02  0.00000000000E+00 0.  1.
         25    2    1    2    0    0  0.85249211533E+02  0.70841407723E+01  0.12156062088E+04  0.12250157692E+04  0.12509023437E+03 0.  0.
          5    1    3    3  502    0 -0.28275753998E+02 -0.18138154452E+02  0.34745249318E+03  0.34909772031E+03  0.41800000000E+01 0.  1.
         -5    1    3    3    0  502  0.11352496553E+03  0.25222295224E+02  0.86815371566E+03  0.87591804890E+03  0.41800000000E+01 0.  1.
        -11    1    1    2    0    0 -0.64994195154E+00  0.29385575445E+02  0.17106053922E+03  0.17356740059E+03  0.00000000000E+00 0.  1.
         11    1    1    2    0    0 -0.84599269582E+02 -0.36469716218E+02  0.47490998176E+03  0.48376292478E+03  0.00000000000E+00 0. -1.
</event>
<event>
 7    1  0.2688177E-009  0.1221128E+03  0.7561462E-02  0.1239652E+00
          2   -1    0    0  501    0  0.00000000000E+00  0.00000000000E+00  0.88294296599E+03  0.88294296599E+03  0.00000000000E+00 0. -1.
         -2   -1    0    0    0  501 -0.00000000000E+00 -0.00000000000E+00 -0.19439966694E+02  0.19439966694E+02  0.00000000000E+00 0.  1.
         25    2    1    2    0    0  0.62041060641E+02 -0.18158118447E+02  0.58750594746E+03  0.60414440840E+03  0.12509363464E+03 0.  0.
          5    1    3    3  502    0  0.74986900239E+02  0.36346245472E+02  0.38869463731E+03  0.39754883755E+03  0.41800000000E+01 0.  1.
         -5    1    3    3    0  502 -0.12945839599E+02 -0.54504363920E+02  0.19881131015E+03  0.20659557085E+03  0.41800000000E+01 0.  1.
        -11    1    1    2    0    0 -0.59918337127E+02  0.46715400618E+02  0.24273529478E+03  0.25434810617E+03  0.00000000000E+00 0. -1.
         11    1    1    2    0    0 -0.21227235138E+01 -0.28557282171E+02  0.33261757057E+02  0.43890418119E+02  0.00000000000E+00 0.  1.
</event>
<event>
 7    1  0.2688177E-009  0.1196996E+03  0.7561462E-02  0.1243593E+00
          1   -1    0    0  501    0  0.00000000000E+00  0.00000000000E+00  0.60993841389E+03  0.60993841389E+03  0.00000000000E+00 0. -1.
         -1   -1    0    0    0  501 -0.00000000000E+00 -0.00000000000E+00 -0.30261555579E+02  0.30261555579E+02  0.00000000000E+00 0.  1.
         25    2    1    2    0    0 -0.79460438334E+02  0.92349117823E+01  0.31137922275E+03  0.34496835889E+03  0.12508758301E+03 0.  0.
          5    1    3    3  502    0 -0.94101697526E+02  0.28212511690E+02  0.30405500683E+03  0.31955906320E+03  0.41800000000E+01 0.  1.
         -5    1    3    3    0  502  0.14641259192E+02 -0.18977599908E+02  0.73242159150E+01  0.25409295695E+02  0.41800000000E+01 0.  1.
        -11    1    1    2    0    0  0.51333573025E+02 -0.47034707890E+02  0.11099296864E+03  0.13102228266E+03  0.00000000000E+00 0. -1.
         11    1    1    2    0    0  0.28126865309E+02  0.37799796108E+02  0.15730466692E+03  0.16420932791E+03  0.00000000000E+00 0.  1.
</event>
<event>
 7    1  0.2688177E-009  0.7754038E+02  0.7561462E-02  0.1336180E+00
          1   -1    0    0  501    0  0.00000000000E+00  0.00000000000E+00  0.12583689735E+03  0.12583689735E+03  0.00000000000E+00 0. -1.
         -1   -1    0    0    0  501 -0.00000000000E+00 -0.00000000000E+00 -0.98666017036E+02  0.98666017036E+02  0.00000000000E+00 0.  1.
         25    2    1    2    0    0 -0.13354223345E+02  0.15755417590E+02  0.29096163912E+02  0.13008089728E+03  0.12509150498E+03 0.  0.
          5    1    3    3  502    0 -0.59214756981E+02 -0.24469506892E+02  0.24642196893E+02  0.68773937502E+02  0.41800000000E+01 0.  1.
         -5    1    3    3    0  502  0.45860533636E+02  0.40224924482E+02  0.44539670185E+01  0.61306959777E+02  0.41800000000E+01 0.  1.
        -11    1    1    2    0    0  0.17297761430E+02 -0.46039215475E+01 -0.45698355086E+02  0.49079000618E+02  0.00000000000E+00 0.  1.
         11    1    1    2    0    0 -0.39435380844E+01 -0.11151496042E+02  0.43773071488E+02  0.45343016486E+02  0.00000000000E+00 0. -1.
</event>
<event>
 7    1  0.2688177E-009  0.1238328E+03  0.7561462E-02  0.1236905E+00
         -1   -1    0    0    0  501 -0.00000000000E+00  0.00000000000E+00  0.48702119910E+02  0.48702119910E+02  0.00000000000E+00 0.  1.
          1   -1    0    0  501    0  0.00000000000E+00 -0.00000000000E+00 -0.32886572444E+03  0.32886572444E+03  0.00000000000E+00 0. -1.
         25    2    1    2    0    0 -0.40753360135E+02  0.45594102557E+02 -0.11841077822E+03  0.18277971197E+03  0.12509057582E+03 0.  0.
          5    1    3    3  502    0  0.44485269534E+02  0.25926440073E+02 -0.43475068315E+02  0.67517949209E+02  0.41800000000E+01 0. -1.
         -5    1    3    3    0  502 -0.85238629670E+02  0.19667662485E+02 -0.74935709904E+02  0.11526176276E+03  0.41800000000E+01 0. -1.
        -11    1    1    2    0    0  0.27928193949E+02 -0.73005847149E+02 -0.11280069614E+03  0.13723641931E+03  0.00000000000E+00 0.  1.
         11    1    1    2    0    0  0.12825166186E+02  0.27411744592E+02 -0.48952130166E+02  0.57551713068E+02  0.00000000000E+00 0. -1.
</event>
<event>
 7    1  0.2688177E-009  0.1040876E+03  0.7561462E-02  0.1271928E+00
         -1   -1    0    0    0  501 -0.00000000000E+00  0.00000000000E+00  0.61087600709E+02  0.61087600709E+02  0.00000000000E+00 0.  1.
          1   -1    0    0  501    0  0.00000000000E+00 -0.00000000000E+00 -0.21526644323E+03  0.21526644323E+03  0.00000000000E+00 0. -1.
         25    2    1    2    0    0  0.34613085615E+02  0.13974407919E+02 -0.72517917591E+02  0.14933802621E+03  0.12509855286E+03 0.  0.
          5    1    3    3  502    0  0.74074504549E+02 -0.21395944708E+02 -0.46733856380E+02  0.90257101694E+02  0.41800000000E+01 0.  1.
         -5    1    3    3    0  502 -0.39461418934E+02  0.35370352627E+02 -0.25784061211E+02  0.59080924517E+02  0.41800000000E+01 0.  1.
        -11    1    1    2    0    0 -0.48392434424E+02 -0.29788919500E+02 -0.88308517319E+02  0.10501238815E+03  0.00000000000E+00 0. -1.
         11    1    1    2    0    0  0.13779348809E+02  0.15814511581E+02  0.66475923846E+01  0.22003629579E+02  0.00000000000E+00 0.  1.
</event>
<event>
 7    1  0.2688177E-009  0.9293245E+02  0.7561462E-02  0.1295902E+00
         -1   -1    0    0    0  501 -0.00000000000E+00  0.00000000000E+00  0.11870152604E+03  0.11870152604E+03  0.00000000000E+00 0.  1.
          1   -1    0    0  501    0  0.00000000000E+00 -0.00000000000E+00 -0.11215030926E+03  0.11215030926E+03  0.00000000000E+00 0. -1.
         25    2    1    2    0    0 -0.37568215175E+02  0.63145535030E+01 -0.74724001107E+01  0.13097893162E+03  0.12509356253E+03 0.  0.
          5    1    3    3  502    0  0.25986386099E+02  0.52023070976E+01 -0.48346091464E+02  0.55291710242E+02  0.41800000000E+01 0. -1.
         -5    1    3    3    0  502 -0.63554601274E+02  0.11122464053E+01  0.40873691354E+02  0.75687221379E+02  0.41800000000E+01 0. -1.
        -11    1    1    2    0    0 -0.20629267003E+02 -0.26635866814E+02 -0.76182161716E+01  0.34540892803E+02  0.00000000000E+00 0.  1.
         11    1    1    2    0    0  0.58197482178E+02  0.20321313311E+02  0.21641833058E+02  0.65332010873E+02  0.00000000000E+00 0. -1.
</event>
<event>
 7    1  0.2688177E-009  0.1262786E+03  0.7561462E-02  0.1233084E+00
          2   -1    0    0  501    0  0.00000000000E+00  0.00000000000E+00  0.34139150349E+03  0.34139150349E+03  0.00000000000E+00 0. -1.
         -2   -1    0    0    0  501 -0.00000000000E+00 -0.00000000000E+00 -0.88884875665E+02  0.88884875665E+02  0.00000000000E+00 0.  1.
         25    2    1    2    0    0  0.73111797894E+02 -0.84721000334E+02  0.38649338610E+02  0.17224987468E+03  0.12511300916E+03 0.  0.
          5    1    3    3  502    0  0.67579318480E+02 -0.52239821935E+02 -0.34264723939E+02  0.92127666792E+02  0.41800000000E+01 0.  1.
         -5    1    3    3    0  502  0.55324794147E+01 -0.32481178400E+02  0.72914062550E+02  0.80122207884E+02  0.41800000000E+01 0.  1.
        -11    1    1    2    0    0 -0.77591250315E+02  0.94972311889E+02  0.15268099164E+03  0.19583571523E+03  0.00000000000E+00 0.  1.
         11    1    1    2    0    0  0.44794524201E+01 -0.10251311555E+02  0.61176297573E+02  0.62190789249E+02  0.00000000000E+00 0. -1.
</event>
<event>
 7    1  0.2688177E-009  0.1713074E+03  0.7561462E-02  0.1176491E+00
          1   -1    0    0  501    0  0.00000000000E+00  0.00000000000E+00  0.25317727981E+03  0.25317727981E+03  0.00000000000E+00 0. -1.
         -1   -1    0    0    0  501 -0.00000000000E+00 -0.00000000000E+00 -0.12091706702E+03  0.12091706702E+03  0.00000000000E+00 0.  1.
         25    2    1    2    0    0  0.85673585757E+02  0.98900620295E+02  0.41311262372E+02  0.18567458968E+03  0.12508851612E+03 0.  0.
          5    1    3    3  502    0  0.45477344718E+01 -0.28809682189E+02  0.99844473688E+01  0.31110147314E+02  0.41800000000E+01 0. -1.
         -5    1    3    3    0  502  0.81125851285E+02  0.12771030248E+03  0.31326815003E+02  0.15456444237E+03  0.41800000000E+01 0. -1.
        -11    1    1    2    0    0 -0.10238481019E+03 -0.58140522942E+02  0.48808172365E+02  0.12745668855E+03  0.00000000000E+00 0.  1.
         11    1    1    2    0    0  0.16711224433E+02 -0.40760097353E+02  0.42140778051E+02  0.60963068599E+02  0.00000000000E+00 0. -1.
</event>
<event>
 7    1  0.3864644E-009  0.1177057E+03  0.7561462E-02  0.1246931E+00
          1   -1    0    0  501    0  0.00000000000E+00  0.00000000000E+00  0.24298687766E+03  0.24298687766E+03  0.00000000000E+00 0. -1.
         -1   -1    0    0    0  501 -0.00000000000E+00 -0.00000000000E+00 -0.90150587101E+02  0.90150587101E+02  0.00000000000E+00 0.  1.
         25    2    1    2    0    0 -0.11677522740E+02  0.83735688851E+02  0.22236408531E+02  0.15260939928E+03  0.12508853168E+03 0.  0.
          5    1    3    3  502    0 -0.34285903512E+02  0.97709336047E+02  0.49022267529E+02  0.11464420022E+03  0.41800000000E+01 0. -1.
         -5    1    3    3    0  502  0.22608380772E+02 -0.13973647197E+02 -0.26785858998E+02  0.37965199056E+02  0.41800000000E+01 0. -1.
        -11    1    1    2    0    0 -0.22572483757E+02 -0.12433187895E+02  0.85873623112E+02  0.89657014954E+02  0.00000000000E+00 0. -1.
         11    1    1    2    0    0  0.34250006497E+02 -0.71302500956E+02  0.44726258914E+02  0.90871050528E+02  0.00000000000E+00 0.  1.
</event>
<event>
 7    1  0.2688177E-009  0.1318305E+03  0.7561462E-02  0.1224765E+00
          1   -1    0    0  501    0  0.00000000000E+00  0.00000000000E+00  0.50012704578E+03  0.50012704578E+03  0.00000000000E+00 0. -1.
         -1   -1    0    0    0  501 -0.00000000000E+00 -0.00000000000E+00 -0.52090175906E+02  0.52090175906E+02  0.00000000000E+00 0.  1.
         25    2    1    2    0    0 -0.36179050615E+02  0.63037686172E+02  0.39696009606E+03  0.42250050328E+03  0.12508670521E+03 0.  0.
          5    1    3    3  502    0  0.22502696031E+02 -0.28033844176E+02  0.10464232775E+03  0.11072378653E+03  0.41800000000E+01 0.  1.
         -5    1    3    3    0  502 -0.58681746646E+02  0.91071530348E+02  0.29231776832E+03  0.31177671674E+03  0.41800000000E+01 0.  1.
        -11    1    1    2    0    0 -0.18251073746E+02 -0.61978141367E+02  0.31336234637E+02  0.71807738451E+02  0.00000000000E+00 0. -1.
         11    1    1    2    0    0  0.54430124362E+02 -0.10595448041E+01  0.19740539176E+02  0.57908979961E+02  0.00000000000E+00 0.  1.
</event>
<event>
 7    1  0.2688177E-009  0.1069958E+03  0.7561462E-02  0.1266236E+00
         -1   -1    0    0    0  501 -0.00000000000E+00  0.00000000000E+00  0.13550947922E+02  0.13550947922E+02  0.00000000000E+00 0.  1.
          1   -1    0    0  501    0  0.00000000000E+00 -0.00000000000E+00 -0.11566554717E+04  0.11566554717E+04  0.00000000000E+00 0. -1.
         25    2    1    2    0    0 -0.15371069025E+02 -0.42888099791E+02 -0.84195606973E+03  0.85241659058E+03  0.12509341180E+03 0.  0.
          5    1    3    3  502    0 -0.61410524511E+02 -0.21859378380E+02 -0.66835267761E+03  0.67153693793E+03  0.41800000000E+01 0.  1.
         -5    1    3    3    0  502  0.46039455486E+02 -0.21028721412E+02 -0.17360339212E+03  0.18087965265E+03  0.41800000000E+01 0.  1.
        -11    1    1    2    0    0  0.51610230381E+02  0.27908326056E+02 -0.21960397937E+03  0.22730683733E+03  0.00000000000E+00 0. -1.
         11    1    1    2    0    0 -0.36239161356E+02  0.14979773735E+02 -0.81544474639E+02  0.90482991668E+02  0.00000000000E+00 0.  1.
</event>
<event>
 7    1  0.2688177E-009  0.1685705E+03  0.7561462E-02  0.1179347E+00
          3   -1    0    0  501    0  0.00000000000E+00  0.00000000000E+00  0.10571389197E+03  0.10571389197E+03  0.00000000000E+00 0. -1.
         -3   -1    0    0    0  501 -0.00000000000E+00 -0.00000000000E+00 -0.41045883433E+03  0.41045883433E+03  0.00000000000E+00 0.  1.
         25    2    1    2    0    0  0.10236715089E+03  0.10476474175E+03 -0.34839238136E+02  0.19573865764E+03  0.12508063354E+03 0.  0.
          5    1    3    3  502    0 -0.27735609810E+02  0.24907526214E+02  0.51829348838E+01  0.37867982884E+02  0.41800000000E+01 0. -1.
         -5    1    3    3    0  502  0.13010276070E+03  0.79857215539E+02 -0.40022173020E+02  0.15787067476E+03  0.41800000000E+01 0. -1.
        -11    1    1    2    0    0 -0.13310655083E+02 -0.19598976642E+02 -0.13763231999E+03  0.13965653916E+03  0.00000000000E+00 0.  1.
         11    1    1    2    0    0 -0.89056495806E+02 -0.85165765111E+02 -0.13227338423E+03  0.18077752949E+03  0.00000000000E+00 0. -1.
</event>
<event>
 7    1  0.2688177E-009  0.1104694E+03  0.7561462E-02  0.1259703E+00
         -2   -1    0    0    0  501 -0.00000000000E+00  0.00000000000E+00  0.32687786618E+02  0.32687786618E+02  0.00000000000E+00 0.  1.
          2   -1    0    0  501    0  0.00000000000E+00 -0.00000000000E+00 -0.63239940917E+03  0.63239940917E+03  0.00000000000E+00 0. -1.
         25    2    1    2    0    0 -0.53124742468E+02  0.11450566551E+01 -0.50405753440E+03  0.52205834001E+03  0.12508941988E+03 0.  0.
          5    1    3    3  502    0  0.29711807578E+02 -0.31858691368E+02 -0.11908993299E+03  0.12687652369E+03  0.41800000000E+01 0. -1.
         -5    1    3    3    0  502 -0.82836550046E+02  0.33003748024E+02 -0.38496760142E+03  0.39518181632E+03  0.41800000000E+01 0. -1.
        -11    1    1    2    0    0  0.38962940944E+02 -0.34265803197E+02 -0.13939087231E+02  0.53726661804E+02  0.00000000000E+00 0.  1.
         11    1    1    2    0    0  0.14161801524E+02  0.33120746542E+02 -0.81715000919E+02  0.89302193977E+02  0.00000000000E+00 0. -1.
</event>
<event>
 7    1  0.2688177E-009  0.9640553E+02  0.7561462E-02  0.1288041E+00
         -1   -1    0    0    0  501 -0.00000000000E+00  0.00000000000E+00  0.32928566040E+02  0.32928566040E+02  0.00000000000E+00 0.  1.
          1   -1    0    0  501    0  0.00000000000E+00 -0.00000000000E+00 -0.51780161296E+03  0.51780161296E+03  0.00000000000E+00 0. -1.
         25    2    1    2    0    0 -0.22420591129E+02  0.59751124211E+02 -0.24573918979E+03  0.28303674560E+03  0.12509664349E+03 0.  0.
          5    1    3    3  502    0  0.15845428552E+02 -0.13113669007E+00 -0.19483187199E+03  0.19551988529E+03  0.41800000000E+01 0. -1.
         -5    1    3    3    0  502 -0.38266019681E+02  0.59882260901E+02 -0.50907317801E+02  0.87516860310E+02  0.41800000000E+01 0. -1.
        -11    1    1    2    0    0 -0.15394893145E+02 -0.65232917818E+02 -0.81630752274E+02  0.10562156986E+03  0.00000000000E+00 0.  1.
         11    1    1    2    0    0  0.37815484275E+02  0.54817936072E+01 -0.15750310486E+03  0.16207186355E+03  0.00000000000E+00 0. -1.
</event>
<event>
 7    1  0.2688177E-009  0.1488242E+03  0.7561462E-02  0.1201925E+00
         -1   -1    0    0    0  501 -0.00000000000E+00  0.00000000000E+00  0.29770342479E+03  0.29770342479E+03  0.00000000000E+00 0.  1.
          1   -1    0    0  501    0  0.00000000000E+00 -0.00000000000E+00 -0.95423289513E+02  0.95423289513E+02  0.00000000000E+00 0. -1.
         25    2    1    2    0    0 -0.10632565251E+03  0.61019496126E+02  0.15227087537E+03  0.23208244056E+03  0.12508923391E+03 0.  0.
          5    1    3    3  502    0 -0.17657336834E+02  0.81840745418E+02  0.68292557553E+02  0.10812508947E+03  0.41800000000E+01 0. -1.
         -5    1    3    3    0  502 -0.88668315672E+02 -0.20821249292E+02  0.83978317818E+02  0.12395735109E+03  0.41800000000E+01 0. -1.
        -11    1    1    2    0    0  0.87036417317E+02 -0.48320608208E+02  0.76757575645E+02  0.12570578561E+03  0.00000000000E+00 0.  1.
         11    1    1    2    0    0  0.19289235188E+02 -0.12698887918E+02 -0.26748315742E+02  0.35338488133E+02  0.00000000000E+00 0. -1.
</event>
<event>
 7    1  0.2688177E-009  0.1749112E+03  0.7561462E-02  0.1172821E+00
          3   -1    0    0  501    0  0.00000000000E+00  0.00000000000E+00  0.46965037565E+03  0.46965037565E+03  0.00000000000E+00 0. -1.
         -3   -1    0    0    0  501 -0.00000000000E+00 -0.00000000000E+00 -0.10226663858E+03  0.10226663858E+03  0.00000000000E+00 0.  1.
         25    2    1    2    0    0  0.13568843802E+03  0.57556864254E+02  0.33961106138E+02  0.19627840281E+03  0.12509080640E+03 0.  0.
          5    1    3    3  502    0  0.10239003863E+03  0.94159575564E+02  0.60152781428E+01  0.13929609345E+03  0.41800000000E+01 0. -1.
         -5    1    3    3    0  502  0.33298399391E+02 -0.36602711310E+02  0.27945827996E+02  0.56982309357E+02  0.41800000000E+01 0. -1.
        -11    1    1    2    0    0 -0.73740974810E+02  0.37576428738E+01  0.22333486635E+03  0.23522396513E+03  0.00000000000E+00 0.  1.
         11    1    1    2    0    0 -0.61947463208E+02 -0.61314507128E+02  0.11008776457E+03  0.14041464628E+03  0.00000000000E+00 0. -1.
</event>
<event>
 7    1  0.2688177E-009  0.1021642E+03  0.7561462E-02  0.1275810E+00
         -1   -1    0    0    0  501 -0.00000000000E+00  0.00000000000E+00  0.17530921557E+02  0.17530921557E+02  0.00000000000E+00 0.  1.
          1   -1    0    0  501    0  0.00000000000E+00 -0.00000000000E+00 -0.81828601471E+03  0.81828601471E+03  0.00000000000E+00 0. -1.
         25    2    1    2    0    0 -0.19478188593E+02  0.36555433977E+02 -0.60434043645E+03  0.61854059239E+03  0.12509756884E+03 0.  0.
          5    1    3    3  502    0  0.19056357313E+00  0.80146600189E+02 -0.44295079819E+03  0.45016263267E+03  0.41800000000E+01 0. -1.
         -5    1    3    3    0  502 -0.19668752166E+02 -0.43591166212E+02 -0.16138963826E+03  0.16837795972E+03  0.41800000000E+01 0. -1.
        -11    1    1    2    0    0 -0.20046454264E+02 -0.29881770958E+02 -0.32353331580E+02  0.48389240834E+02  0.00000000000E+00 0.  1.
         11    1    1    2    0    0  0.39524642857E+02 -0.66736630193E+01 -0.16406132513E+03  0.16888710304E+03  0.00000000000E+00 0. -1.
</event>
<event>
 7    1  0.2688177E-009  0.1159378E+03  0.7561462E-02  0.1249953E+00
         -2   -1    0    0    0  501 -0.00000000000E+00  0.00000000000E+00  0.14530750737E+03  0.14530750737E+03  0.00000000000E+00 0.  1.
          2   -1    0    0  501    0  0.00000000000E+00 -0.00000000000E+00 -0.14062704728E+03  0.14062704728E+03  0.00000000000E+00 0. -1.
         25    2    1    2    0    0  0.90628268503E+02 -0.19823492560E+01  0.40251885196E+02  0.15963810070E+03  0.12508675459E+03 0.  0.
          5    1    3    3  502    0  0.50799913966E+02  0.52139418054E+02  0.54235525743E+02  0.90874170294E+02  0.41800000000E+01 0. -1.
         -5    1    3    3    0  502  0.39828354537E+02 -0.54121767310E+02 -0.13983640547E+02  0.68763930406E+02  0.41800000000E+01 0. -1.
        -11    1    1    2    0    0 -0.64981935657E+02 -0.46353488026E+01  0.17088294569E+02  0.67350933412E+02  0.00000000000E+00 0.  1.
         11    1    1    2    0    0 -0.25646332846E+02  0.66176980586E+01 -0.52659719669E+02  0.58945520539E+02  0.00000000000E+00 0. -1.
</event>
<event>
 7    1  0.2688177E-009  0.1110854E+03  0.7561462E-02  0.1258573E+00
         -2   -1    0    0    0  501 -0.00000000000E+00  0.00000000000E+00  0.41692872363E+02  0.41692872363E+02  0.00000000000E+00 0.  1.
          2   -1    0    0  501    0  0.00000000000E+00 -0.00000000000E+00 -0.45839507561E+03  0.45839507561E+03  0.00000000000E+00 0. -1.
         25    2    1    2    0    0  0.58625875539E+02 -0.60976635690E+02 -0.24395607798E+03  0.28691005792E+03  0.12509064701E+03 0.  0.
          5    1    3    3  502    0  0.50936478206E+02 -0.84816118322E+02 -0.24195685446E+03  0.26143620744E+03  0.41800000000E+01 0. -1.
         -5    1    3    3    0  502  0.76893973332E+01  0.23839482631E+02 -0.19992235147E+01  0.25473850477E+02  0.41800000000E+01 0. -1.
        -11    1    1    2    0    0 -0.62711306595E+02  0.35728597633E+02 -0.50016774441E+02  0.87811835132E+02  0.00000000000E+00 0.  1.
         11    1    1    2    0    0  0.40854310558E+01  0.25248038057E+02 -0.12272935083E+03  0.12536605492E+03  0.00000000000E+00 0. -1.
</event>
<event>
 7    1  0.2688177E-009  0.1321396E+03  0.7561462E-02  0.1224315E+00
         -2   -1    0    0    0  501 -0.00000000000E+00  0.00000000000E+00  0.30109616307E+02  0.30109616307E+02  0.00000000000E+00 0.  1.
          2   -1    0    0  501    0  0.00000000000E+00 -0.00000000000E+00 -0.77467681862E+03  0.77467681862E+03  0.00000000000E+00 0. -1.
         25    2    1    2    0    0  0.44911841694E+02 -0.94451878634E+02 -0.33786974451E+03  0.37515586866E+03  0.12509088949E+03 0.  0.
          5    1    3    3  502    0  0.80045601175E+02 -0.75219549611E+02 -0.30142528543E+03  0.32084256889E+03  0.41800000000E+01 0. -1.
         -5    1    3    3    0  502 -0.35133759481E+02 -0.19232329023E+02 -0.36444459076E+02  0.54313299773E+02  0.41800000000E+01 0. -1.
        -11    1    1    2    0    0 -0.42913637069E+02  0.37178725760E+02 -0.80931416375E+02  0.98862187170E+02  0.00000000000E+00 0.  1.
         11    1    1    2    0    0 -0.19982046249E+01  0.57273152874E+02 -0.32576604143E+03  0.33076837910E+03  0.00000000000E+00 0. -1.
</event>
<event>
 7    1  0.2688177E-009  0.2213078E+03  0.7561462E-02  0.1132912E+00
         -1   -1    0    0    0  501 -0.00000000000E+00  0.00000000000E+00  0.58576035233E+03  0.58576035233E+03  0.00000000000E+00 0.  1.
          1   -1    0    0  501    0  0.00000000000E+00 -0.00000000000E+00 -0.89119210586E+02  0.89119210586E+02  0.00000000000E+00 0. -1.
         25    2    1    2    0    0 -0.16573234179E+03 -0.11137282658E+03  0.28776526032E+03  0.37192188693E+03  0.12508368923E+03 0.  0.
          5    1    3    3  502    0  0.14377462959E+02 -0.34028423710E+02  0.28354996913E+02  0.46755997597E+02  0.41800000000E+01 0. -1.
         -5    1    3    3    0  502 -0.18010980475E+03 -0.77344402868E+02  0.25941026341E+03  0.32516588933E+03  0.41800000000E+01 0. -1.
        -11    1    1    2    0    0 -0.10492268837E+01  0.18409161374E+02 -0.19218701564E+01  0.18538923497E+02  0.00000000000E+00 0. -1.
         11    1    1    2    0    0  0.16678156868E+03  0.92963665205E+02  0.21079775158E+03  0.28441875249E+03  0.00000000000E+00 0.  1.
</event>
<event>
 7    1  0.2688177E-009  0.1439552E+03  0.7561462E-02  0.1208104E+00
         -1   -1    0    0    0  501 -0.00000000000E+00  0.00000000000E+00  0.14185080778E+03  0.14185080778E+03  0.00000000000E+00 0.  1.
          1   -1    0    0  501    0  0.00000000000E+00 -0.00000000000E+00 -0.26061591085E+03  0.26061591085E+03  0.00000000000E+00 0. -1.
         25    2    1    2    0    0 -0.27218019283E+02 -0.99207126842E+02  0.65663667388E+02  0.17475219710E+03  0.12507493189E+03 0.  0.
          5    1    3    3  502    0 -0.75839903805E+02 -0.77493242058E+02  0.45372657059E+02  0.11761396168E+03  0.41800000000E+01 0.  1.
         -5    1    3    3    0  502  0.48621884522E+02 -0.21713884784E+02  0.20291010328E+02  0.57138235421E+02  0.41800000000E+01 0.  1.
        -11    1    1    2    0    0 -0.23502823140E+02  0.50334780061E+02 -0.44948044475E+02  0.71458375867E+02  0.00000000000E+00 0. -1.
         11    1    1    2    0    0  0.50720842423E+02  0.48872346780E+02 -0.13948072598E+03  0.15625614566E+03  0.00000000000E+00 0.  1.
</event>
<event>
 7    1  0.2688177E-009  0.8746000E+02  0.7561462E-02  0.1309122E+00
         -2   -1    0    0    0  501 -0.00000000000E+00  0.00000000000E+00  0.26698619899E+02  0.26698619899E+02  0.00000000000E+00 0.  1.
          2   -1    0    0  501    0  0.00000000000E+00 -0.00000000000E+00 -0.49600873547E+03  0.49600873547E+03  0.00000000000E+00 0. -1.
         25    2    1    2    0    0 -0.39533632588E+02 -0.12488010319E+02 -0.27513397517E+03  0.30506532085E+03  0.12508911698E+03 0.  0.
          5    1    3    3  502    0 -0.53546843104E+02 -0.28355511716E+02 -0.27683598724E+03  0.28342006930E+03  0.41800000000E+01 0. -1.
         -5    1    3    3    0  502  0.14013210516E+02  0.15867501397E+02  0.17020120714E+01  0.21645251550E+02  0.41800000000E+01 0. -1.
        -11    1    1    2    0    0  0.44681636402E+02 -0.27382724351E+02 -0.14466826643E+03  0.15386737645E+03  0.00000000000E+00 0. -1.
         11    1    1    2    0    0 -0.51480038138E+01  0.39870734670E+02 -0.49507873976E+02  0.63774658070E+02  0.00000000000E+00 0.  1.
</event>
<event>
 7    1  0.2688177E-009  0.1009684E+03  0.7561462E-02  0.1278273E+00
          4   -1    0    0  501    0  0.00000000000E+00  0.00000000000E+00  0.10307039109E+03  0.10307039109E+03  0.00000000000E+00 0. -1.
         -4   -1    0    0    0  501 -0.00000000000E+00 -0.00000000000E+00 -0.19582686807E+03  0.19582686807E+03  0.00000000000E+00 0.  1.
         25    2    1    2    0    0  0.69075885785E+02  0.54708101504E+02 -0.76886074217E+02  0.17123852799E+03  0.12508681262E+03 0.  0.
          5    1    3    3  502    0  0.28343094909E+02  0.29551751362E+02 -0.10691972105E+03  0.11456847816E+03  0.41800000000E+01 0.  1.
         -5    1    3    3    0  502  0.40732790876E+02  0.25156350142E+02  0.30033646837E+02  0.56670049827E+02  0.41800000000E+01 0.  1.
        -11    1    1    2    0    0 -0.26096201999E+00 -0.42898555404E+02 -0.34887188119E+02  0.55294394398E+02  0.00000000000E+00 0.  1.
         11    1    1    2    0    0 -0.68814923765E+02 -0.11809546100E+02  0.19016785362E+02  0.72364336778E+02  0.00000000000E+00 0. -1.
</event>
<event>
 7    1  0.2688177E-009  0.1048969E+03  0.7561462E-02  0.1270323E+00
          2   -1    0    0  501    0  0.00000000000E+00  0.00000000000E+00  0.36344412292E+03  0.36344412292E+03  0.00000000000E+00 0. -1.
         -2   -1    0    0    0  501 -0.00000000000E+00 -0.00000000000E+00 -0.34438249684E+02  0.34438249684E+02  0.00000000000E+00 0.  1.
         25    2    1    2    0    0  0.25368981197E+02  0.19929690483E+02  0.17722784183E+03  0.21930830808E+03  0.12508256595E+03 0.  0.
          5    1    3    3  502    0  0.42927776856E+02  0.63129830645E+02  0.76129441897E+02  0.10789501317E+03  0.41800000000E+01 0.  1.
         -5    1    3    3    0  502 -0.17558795659E+02 -0.43200140161E+02  0.10109839993E+03  0.11141329492E+03  0.41800000000E+01 0.  1.
        -11    1    1    2    0    0 -0.15523406402E+02 -0.51321772099E+02  0.12547921360E+03  0.13645487710E+03  0.00000000000E+00 0. -1.
         11    1    1    2    0    0 -0.98455747952E+01  0.31392081615E+02  0.26298817806E+02  0.42119187423E+02  0.00000000000E+00 0.  1.
</event>
<event>
 7    1  0.2688177E-009  0.2681494E+03  0.7561462E-02  0.1102343E+00
         -1   -1    0    0    0  501 -0.00000000000E+00  0.00000000000E+00  0.36029951304E+03  0.36029951304E+03  0.00000000000E+00 0.  1.
          1   -1    0    0  501    0  0.00000000000E+00 -0.00000000000E+00 -0.22371722969E+03  0.22371722969E+03  0.00000000000E+00 0. -1.
         25    2    1    2    0    0 -0.15191536382E+03  0.19490714358E+03 -0.19632413306E+02  0.27766874556E+03  0.12508968073E+03 0.  0.
          5    1    3    3  502    0 -0.19373689532E+02 -0.16530976938E+02 -0.10667777945E+02  0.27926455753E+02  0.41800000000E+01 0.  1.
         -5    1    3    3    0  502 -0.13254167429E+03  0.21143812052E+03 -0.89646353615E+01  0.24974228981E+03  0.41800000000E+01 0.  1.
        -11    1    1    2    0    0  0.10656567277E+03 -0.68673948806E+02  0.97475201036E+02  0.15991800610E+03  0.00000000000E+00 0. -1.
         11    1    1    2    0    0  0.45349691047E+02 -0.12623319477E+03  0.58739495621E+02  0.14642999108E+03  0.00000000000E+00 0.  1.
</event>
<event>
 7    1  0.2688177E-009  0.1388942E+03  0.7561462E-02  0.1214825E+00
          1   -1    0    0  501    0  0.00000000000E+00  0.00000000000E+00  0.20575833561E+03  0.20575833561E+03  0.00000000000E+00 0. -1.
         -1   -1    0    0    0  501 -0.00000000000E+00 -0.00000000000E+00 -0.11184340417E+03  0.11184340417E+03  0.00000000000E+00 0.  1.
         25    2    1    2    0    0  0.87229027249E+02 -0.78968638295E+01 -0.10510458744E+02  0.15306756987E+03  0.12509175653E+03 0.  0.
          5    1    3    3  502    0  0.11744743917E+03 -0.19616505428E+02 -0.14971289470E+02  0.12008463749E+03  0.41800000000E+01 0.  1.
         -5    1    3    3    0  502 -0.30218411918E+02  0.11719641598E+02  0.44608307256E+01  0.32982932386E+02  0.41800000000E+01 0.  1.
        -11    1    1    2    0    0 -0.62753720742E+02  0.47981128196E+02  0.54384706038E+02  0.95905757808E+02  0.00000000000E+00 0.  1.
         11    1    1    2    0    0 -0.24475306507E+02 -0.40084264367E+02  0.50040684145E+02  0.68628412105E+02  0.00000000000E+00 0. -1.
</event>
<event>
 7    1  0.2688177E-009  0.1024288E+03  0.7561462E-02  0.1275270E+00
         -1   -1    0    0    0  501 -0.00000000000E+00  0.00000000000E+00  0.25032228856E+03  0.25032228856E+03  0.00000000000E+00 0.  1.
          1   -1    0    0  501    0  0.00000000000E+00 -0.00000000000E+00 -0.70232620414E+02  0.70232620414E+02  0.00000000000E+00 0. -1.
         25    2    1    2    0    0  0.57720023216E+02 -0.50382727322E+02  0.10015154338E+03  0.17761802874E+03  0.12509121552E+03 0.  0.
          5    1    3    3  502    0  0.24712849814E+02 -0.50213664192E+02  0.12438319247E+03  0.13645800814E+03  0.41800000000E+01 0.  1.
         -5    1    3    3    0  502  0.33007173402E+02 -0.16906313002E+00 -0.24231649087E+02  0.41160020601E+02  0.41800000000E+01 0.  1.
        -11    1    1    2    0    0 -0.66512972022E+02  0.68405783683E+02  0.77129096161E+02  0.12268750614E+03  0.00000000000E+00 0.  1.
         11    1    1    2    0    0  0.87929488063E+01 -0.18023056360E+02  0.28090286013E+01  0.20249374088E+02  0.00000000000E+00 0. -1.
</event>
<event>
 7    1  0.4843728E-009  0.8124595E+02  0.7561462E-02  0.1325552E+00
          1   -1    0    0  501    0  0.00000000000E+00  0.00000000000E+00  0.14142212632E+03  0.14142212632E+03  0.00000000000E+00 0. -1.
         -1   -1    0    0    0  501 -0.00000000000E+00 -0.00000000000E+00 -0.10596548201E+03  0.10596548201E+03  0.00000000000E+00 0.  1.
         25    2    1    2    0    0 -0.23623132894E+02  0.97120926384E+00  0.72389838349E+02  0.14644760897E+03  0.12509043857E+03 0.  0.
          5    1    3    3  502    0 -0.44645635833E+02 -0.50275791689E+02  0.20460327167E+02  0.70405862090E+02  0.41800000000E+01 0. -1.
         -5    1    3    3    0  502  0.21022502938E+02  0.51247000953E+02  0.51929511181E+02  0.76041746876E+02  0.41800000000E+01 0. -1.
        -11    1    1    2    0    0  0.25615002935E+02 -0.12058158203E+02 -0.64891070614E+02  0.70798153931E+02  0.00000000000E+00 0.  1.
         11    1    1    2    0    0 -0.19918700407E+01  0.11086948939E+02  0.27957876579E+02  0.30141845429E+02  0.00000000000E+00 0. -1.
</event>
<event>
 7    1  0.2688177E-009  0.1226711E+03  0.7561462E-02  0.1238754E+00
         -1   -1    0    0    0  501 -0.00000000000E+00  0.00000000000E+00  0.85203745109E+02  0.85203745109E+02  0.00000000000E+00 0.  1.
          1   -1    0    0  501    0  0.00000000000E+00 -0.00000000000E+00 -0.26321970993E+03  0.26321970993E+03  0.00000000000E+00 0. -1.
         25    2    1    2    0    0  0.91445223805E+01 -0.91671637657E+02 -0.14286627042E+03  0.21105717495E+03  0.12508816265E+03 0.  0.
          5    1    3    3  502    0 -0.42813065719E+02 -0.80272789583E+02 -0.12526361501E+03  0.15487131751E+03  0.41800000000E+01 0. -1.
         -5    1    3    3    0  502  0.51957588100E+02 -0.11398848074E+02 -0.17602655416E+02  0.56185857440E+02  0.41800000000E+01 0. -1.
        -11    1    1    2    0    0 -0.19964493635E+02  0.86764979352E+02  0.11002450312E+02  0.89709512098E+02  0.00000000000E+00 0.  1.
         11    1    1    2    0    0  0.10819971255E+02  0.49066583054E+01 -0.46152144712E+02  0.47656767989E+02  0.00000000000E+00 0. -1.
</event>
<event>
 7    1  0.2688177E-009  0.9598418E+02  0.7561462E-02  0.1288975E+00
          2   -1    0    0  501    0  0.00000000000E+00  0.00000000000E+00  0.24899816591E+02  0.24899816591E+02  0.00000000000E+00 0. -1.
         -2   -1    0    0    0  501 -0.00000000000E+00 -0.00000000000E+00 -0.51293864110E+03  0.51293864110E+03  0.00000000000E+00 0.  1.
         25    2    1    2    0    0 -0.29809425787E+02  0.22785753297E+02 -0.28898877159E+03  0.31712738743E+03  0.12508987704E+03 0.  0.
          5    1    3    3  502    0 -0.71502462649E+02  0.11061529380E+01 -0.23376992872E+03  0.24449882967E+03  0.41800000000E+01 0. -1.
         -5    1    3    3    0  502  0.41693036862E+02  0.21679600359E+02 -0.55218842872E+02  0.72628557762E+02  0.41800000000E+01 0. -1.
        -11    1    1    2    0    0 -0.12395468692E+02 -0.28009860060E+02 -0.16022655528E+03  0.16312801390E+03  0.00000000000E+00 0.  1.
         11    1    1    2    0    0  0.42204894479E+02  0.52241067636E+01 -0.38823497643E+02  0.57583056351E+02  0.00000000000E+00 0. -1.
</event>
<event>
 7    1  0.2688177E-009  0.1513092E+03  0.7561462E-02  0.1198873E+00
          1   -1    0    0  501    0  0.00000000000E+00  0.00000000000E+00  0.76537046464E+03  0.76537046464E+03  0.00000000000E+00 0. -1.
         -1   -1    0    0    0  501 -0.00000000000E+00 -0.00000000000E+00 -0.36705614042E+02  0.36705614042E+02  0.00000000000E+00 0.  1.
         25    2    1    2    0    0 -0.79353966585E+02  0.96728100091E+02  0.35591943036E+03  0.39746706136E+03  0.12509215240E+03 0.  0.
          5    1    3    3  502    0 -0.70842032000E+02  0.12648364082E+03  0.27886660196E+03  0.31432588023E+03  0.41800000000E+01 0.  1.
         -5    1    3    3    0  502 -0.85119345848E+01 -0.29755540726E+02  0.77052828404E+02  0.83141181128E+02  0.41800000000E+01 0.  1.
        -11    1    1    2    0    0  0.26197581798E+02 -0.45673464717E+02  0.46836461170E+02  0.70470084193E+02  0.00000000000E+00 0.  1.
         11    1    1    2    0    0  0.53156384787E+02 -0.51054635374E+02  0.32590895906E+03  0.33413893313E+03  0.00000000000E+00 0. -1.
</event>
<event>
 7    1  0.2688177E-009  0.7668500E+02  0.7561462E-02  0.1338731E+00
          3   -1    0    0  501    0  0.00000000000E+00  0.00000000000E+00  0.40238167882E+03  0.40238167882E+03  0.00000000000E+00 0.  1.
         -3   -1    0    0    0  501 -0.00000000000E+00 -0.00000000000E+00 -0.35153245225E+02  0.35153245225E+02  0.00000000000E+00 0. -1.
         25    2    1    2    0    0 -0.19677506104E+02  0.24758750931E+02  0.29895781265E+03  0.32561306786E+03  0.12509155136E+03 0.  0.
          5    1    3    3  502    0 -0.17195347975E+02  0.49835626371E+02  0.29507418094E+03  0.29977577338E+03  0.41800000000E+01 0.  1.
         -5    1    3    3    0  502 -0.24821581292E+01 -0.25076875440E+02  0.38836317110E+01  0.25837294480E+02  0.41800000000E+01 0.  1.
        -11    1    1    2    0    0  0.28709246966E+02 -0.44657406250E+02  0.16286681754E+02  0.55531619794E+02  0.00000000000E+00 0. -1.
         11    1    1    2    0    0 -0.90317408619E+01  0.19898655319E+02  0.51983939195E+02  0.56390236396E+02  0.00000000000E+00 0.  1.
</event>
<event>
 7    1  0.2688177E-009  0.1279537E+03  0.7561462E-02  0.1230524E+00
         -1   -1    0    0    0  501 -0.00000000000E+00  0.00000000000E+00  0.78274478798E+03  0.78274478798E+03  0.00000000000E+00 0.  1.
          1   -1    0    0  501    0  0.00000000000E+00 -0.00000000000E+00 -0.23221984789E+02  0.23221984789E+02  0.00000000000E+00 0. -1.
         25    2    1    2    0    0  0.80224468216E+02 -0.12136540459E+02  0.40390733249E+03  0.43054937976E+03  0.12509346209E+03 0.  0.
          5    1    3    3  502    0  0.51251462051E+02  0.54123227853E+02  0.24013173165E+03  0.25146919712E+03  0.41800000000E+01 0. -1.
         -5    1    3    3    0  502  0.28973006165E+02 -0.66259768312E+02  0.16377560084E+03  0.17908018264E+03  0.41800000000E+01 0. -1.
        -11    1    1    2    0    0 -0.53790289951E+02 -0.28086762881E+02  0.27423674410E+03  0.28087017171E+03  0.00000000000E+00 0. -1.
         11    1    1    2    0    0 -0.26434178265E+02  0.40223303340E+02  0.81378726600E+02  0.94547221298E+02  0.00000000000E+00 0.  1.
</event>
<event>
 7    1  0.3088012E-009  0.1345621E+03  0.7561462E-02  0.1220839E+00
         -1   -1    0    0    0  501 -0.00000000000E+00  0.00000000000E+00  0.23640380032E+03  0.23640380032E+03  0.00000000000E+00 0.  1.
          1   -1    0    0  501    0  0.00000000000E+00 -0.00000000000E+00 -0.96200358505E+02  0.96200358505E+02  0.00000000000E+00 0. -1.
         25    2    1    2    0    0 -0.33830136768E+02 -0.96593242238E+02  0.99556043166E+02  0.18982346218E+03  0.12508720344E+03 0.  0.
          5    1    3    3  502    0  0.36471613030E+02  0.59724669762E+01  0.23881312222E+02  0.44199981813E+02  0.41800000000E+01 0.  1.
         -5    1    3    3    0  502 -0.70301749797E+02 -0.10256570921E+03  0.75674730943E+02  0.14562348037E+03  0.41800000000E+01 0.  1.
        -11    1    1    2    0    0  0.27664006078E+02  0.30669087619E+02  0.60860715250E+02  0.73552136804E+02  0.00000000000E+00 0. -1.
         11    1    1    2    0    0  0.61661306891E+01  0.65924154620E+02 -0.20213316598E+02  0.69228559843E+02  0.00000000000E+00 0.  1.
</event>
<event>
 7    1  0.2688177E-009  0.1373630E+03  0.7561462E-02  0.1216922E+00
          2   -1    0    0  501    0  0.00000000000E+00  0.00000000000E+00  0.51639382438E+02  0.51639382438E+02  0.00000000000E+00 0. -1.
         -2   -1    0    0    0  501 -0.00000000000E+00 -0.00000000000E+00 -0.37754031670E+03  0.37754031670E+03  0.00000000000E+00 0.  1.
         25    2    1    2    0    0 -0.64554781028E+02 -0.59658887150E+02 -0.14625350534E+03  0.21157663871E+03  0.12509230054E+03 0.  0.
          5    1    3    3  502    0 -0.92126724637E+02 -0.76284957945E+02 -0.12316097213E+03  0.17173475379E+03  0.41800000000E+01 0. -1.
         -5    1    3    3    0  502  0.27571943609E+02  0.16626070795E+02 -0.23092533201E+02  0.39841884921E+02  0.41800000000E+01 0. -1.
        -11    1    1    2    0    0  0.40457177346E+02  0.80900063539E+02 -0.12672821703E+03  0.15569728473E+03  0.00000000000E+00 0.  1.
         11    1    1    2    0    0  0.24097603682E+02 -0.21241176390E+02 -0.52919211900E+02  0.61905775706E+02  0.00000000000E+00 0. -1.
</event>
<event>
 7    1  0.2688177E-009  0.2253871E+03  0.7561462E-02  0.1129929E+00
         -3   -1    0    0    0  501 -0.00000000000E+00  0.00000000000E+00  0.49908600365E+03  0.49908600365E+03  0.00000000000E+00 0.  1.
          3   -1    0    0  501    0  0.00000000000E+00 -0.00000000000E+00 -0.10769924186E+03  0.10769924186E+03  0.00000000000E+00 0. -1.
         25    2    1    2    0    0  0.16337249352E+02 -0.20305718445E+03  0.18174758874E+03  0.30029714624E+03  0.12508822547E+03 0.  0.
          5    1    3    3  502    0 -0.35075758499E+02 -0.14002367078E+02  0.55232003532E+02  0.67040448479E+02  0.41800000000E+01 0.  1.
         -5    1    3    3    0  502  0.51413007851E+02 -0.18905481737E+03  0.12651558521E+03  0.23325669776E+03  0.41800000000E+01 0.  1.
        -11    1    1    2    0    0  0.16165656766E+02  0.16885716193E+03  0.19179355650E+03  0.25604460141E+03  0.00000000000E+00 0.  1.
         11    1    1    2    0    0 -0.32502906117E+02  0.34200022517E+02  0.17845616546E+02  0.50443497858E+02  0.00000000000E+00 0. -1.
</event>
<event>
 7    1  0.2688177E-009  0.1192022E+03  0.7561462E-02  0.1244419E+00
          1   -1    0    0  501    0  0.00000000000E+00  0.00000000000E+00  0.58369051951E+02  0.58369051951E+02  0.00000000000E+00 0. -1.
         -1   -1    0    0    0  501 -0.00000000000E+00 -0.00000000000E+00 -0.32526678801E+03  0.32526678801E+03  0.00000000000E+00 0.  1.
         25    2    1    2    0    0 -0.29467728546E+02  0.80500042384E+02 -0.14295699781E+03  0.20840079472E+03  0.12508230957E+03 0.  0.
          5    1    3    3  502    0  0.25230164218E+02  0.79842951087E+01 -0.10752656141E+03  0.11081400617E+03  0.41800000000E+01 0.  1.
         -5    1    3    3    0  502 -0.54697892764E+02  0.72515747276E+02 -0.35430436400E+02  0.97586788549E+02  0.41800000000E+01 0.  1.
        -11    1    1    2    0    0  0.58123031534E+02 -0.67907111156E+02 -0.72818406281E+02  0.11529172925E+03  0.00000000000E+00 0. -1.
         11    1    1    2    0    0 -0.28655302988E+02 -0.12592931228E+02 -0.51122331972E+02  0.59943315995E+02  0.00000000000E+00 0.  1.
</event>
<event>
 7    1  0.2688177E-009  0.1099793E+03  0.7561462E-02  0.1260608E+00
         -1   -1    0    0    0  501 -0.00000000000E+00  0.00000000000E+00  0.60996302895E+03  0.60996302895E+03  0.00000000000E+00 0.  1.
          1   -1    0    0  501    0  0.00000000000E+00 -0.00000000000E+00 -0.27465581465E+02  0.27465581465E+02  0.00000000000E+00 0. -1.
         25    2    1    2    0    0 -0.65170368239E+02  0.12821721663E+02  0.26455332861E+03  0.30007948069E+03  0.12509059760E+03 0.  0.
          5    1    3    3  502    0 -0.65919040372E+02 -0.28017191647E+02  0.24367252227E+03  0.25401585269E+03  0.41800000000E+01 0.  1.
         -5    1    3    3    0  502  0.74867213289E+00  0.40838913310E+02  0.20880806341E+02  0.46063627992E+02  0.41800000000E+01 0.  1.
        -11    1    1    2    0    0  0.40916524970E+02 -0.48848988567E+02  0.23785067317E+03  0.24623835694E+03  0.00000000000E+00 0.  1.
         11    1    1    2    0    0  0.24253843269E+02  0.36027266904E+02  0.80093445707E+02  0.91110772794E+02  0.00000000000E+00 0. -1.
</event>
<event>
 7    1  0.2743180E-009  0.1800749E+03  0.7561462E-02  0.1167731E+00
          1   -1    0    0  501    0  0.00000000000E+00  0.00000000000E+00  0.69293326432E+03  0.69293326432E+03  0.00000000000E+00 0. -1.
         -1   -1    0    0    0  501 -0.00000000000E+00 -0.00000000000E+00 -0.61627061999E+02  0.61627061999E+02  0.00000000000E+00 0.  1.
         25    2    1    2    0    0 -0.11381585297E+03 -0.12131408559E+03  0.22787328029E+03  0.30861776637E+03  0.12509011989E+03 0.  0.
          5    1    3    3  502    0 -0.30058255041E+01  0.10633545481E+02  0.81916466414E+02  0.82764045008E+02  0.41800000000E+01 0.  1.
         -5    1    3    3    0  502 -0.11081002746E+03 -0.13194763108E+03  0.14595681388E+03  0.22585372136E+03  0.41800000000E+01 0.  1.
        -11    1    1    2    0    0  0.20413208571E+02  0.62147161465E+02  0.75625128599E+02  0.99990643752E+02  0.00000000000E+00 0.  1.
         11    1    1    2    0    0  0.93402644396E+02  0.59166924130E+02  0.32780779342E+03  0.34595191620E+03  0.00000000000E+00 0. -1.
</event>
<event>
 7    1  0.2688177E-009  0.1070118E+03  0.7561462E-02  0.1266206E+00
         -2   -1    0    0    0  501 -0.00000000000E+00  0.00000000000E+00  0.34713753721E+02  0.34713753721E+02  0.00000000000E+00 0.  1.
          2   -1    0    0  501    0  0.00000000000E+00 -0.00000000000E+00 -0.45950468057E+03  0.45950468057E+03  0.00000000000E+00 0. -1.
         25    2    1    2    0    0  0.94412482392E+01  0.64336497926E+02 -0.23806426187E+03  0.27667609645E+03  0.12508695949E+03 0.  0.
          5    1    3    3  502    0  0.47488453471E+02  0.68181518360E+02 -0.21790222724E+03  0.23324391888E+03  0.41800000000E+01 0. -1.
         -5    1    3    3    0  502 -0.38047205232E+02 -0.38450204340E+01 -0.20162034634E+02  0.43432177572E+02  0.41800000000E+01 0. -1.
        -11    1    1    2    0    0 -0.33849924994E+02 -0.14415828168E+02 -0.20164354175E+02  0.41955151092E+02  0.00000000000E+00 0.  1.
         11    1    1    2    0    0  0.24408676754E+02 -0.49920669757E+02 -0.16656231081E+03  0.17558718675E+03  0.00000000000E+00 0. -1.
</event>
<event>
 7    1  0.2688177E-009  0.5502954E+02  0.7561462E-02  0.1419959E+00
          2   -1    0    0  501    0  0.00000000000E+00  0.00000000000E+00  0.23783438399E+03  0.23783438399E+03  0.00000000000E+00 0. -1.
         -2   -1    0    0    0  501 -0.00000000000E+00 -0.00000000000E+00 -0.52453531230E+02  0.52453531230E+02  0.00000000000E+00 0.  1.
         25    2    1    2    0    0 -0.10916974818E+02  0.35371311106E+02  0.12916230851E+03  0.18358288161E+03  0.12509781170E+03 0.  0.
          5    1    3    3  502    0  0.72451242215E+01 -0.11347694389E+01 -0.23785098049E+02  0.25238518495E+02  0.41800000000E+01 0.  1.
         -5    1    3    3    0  502 -0.18162099039E+02  0.36506080545E+02  0.15294740656E+03  0.15834436312E+03  0.41800000000E+01 0.  1.
        -11    1    1    2    0    0  0.21337672594E+02  0.23769272790E+01 -0.14472460455E+02  0.25892048328E+02  0.00000000000E+00 0.  1.
         11    1    1    2    0    0 -0.10420697776E+02 -0.37748238385E+02  0.70691004702E+02  0.80812985275E+02  0.00000000000E+00 0. -1.
</event>
<event>
 7    1  0.2688177E-009  0.1427885E+03  0.7561462E-02  0.1209625E+00
         -2   -1    0    0    0  501 -0.00000000000E+00  0.00000000000E+00  0.20940766567E+03  0.20940766567E+03  0.00000000000E+00 0.  1.
          2   -1    0    0  501    0  0.00000000000E+00 -0.00000000000E+00 -0.13634534433E+03  0.13634534433E+03  0.00000000000E+00 0. -1.
         25    2    1    2    0    0  0.71439315256E+02  0.96821895906E+02 -0.15648744065E+00  0.17356675958E+03  0.12508932908E+03 0.  0.
          5    1    3    3  502    0  0.58866386911E+02  0.31442595218E+02 -0.55491951595E+02  0.86894864024E+02  0.41800000000E+01 0. -1.
         -5    1    3    3    0  502  0.12572928344E+02  0.65379300688E+02  0.55335464154E+02  0.86671895553E+02  0.41800000000E+01 0. -1.
        -11    1    1    2    0    0 -0.25384611651E+02  0.16091932852E+02  0.20925540885E+00  0.30056157430E+02  0.00000000000E+00 0. -1.
         11    1    1    2    0    0 -0.46054703604E+02 -0.11291382876E+03  0.73009553370E+02  0.14213009299E+03  0.00000000000E+00 0.  1.
</event>
<event>
 7    1  0.2688177E-009  0.8950615E+02  0.7561462E-02  0.1304052E+00
          2   -1    0    0  501    0  0.00000000000E+00  0.00000000000E+00  0.63726881013E+03  0.63726881013E+03  0.00000000000E+00 0. -1.
         -2   -1    0    0    0  501 -0.00000000000E+00 -0.00000000000E+00 -0.20048983835E+02  0.20048983835E+02  0.00000000000E+00 0.  1.
         25    2    1    2    0    0 -0.22936417931E+02 -0.85344887993E+01  0.42368616495E+03  0.44244419800E+03  0.12509190706E+03 0.  0.
          5    1    3    3  502    0 -0.52310988770E+02  0.33342189216E+02  0.12758277291E+03  0.14192595771E+03  0.41800000000E+01 0. -1.
         -5    1    3    3    0  502  0.29374570839E+02 -0.41876678015E+02  0.29610339203E+03  0.30051824029E+03  0.41800000000E+01 0. -1.
        -11    1    1    2    0    0 -0.27710813688E+00 -0.24851280076E+02  0.98347356421E+01  0.26727980385E+02  0.00000000000E+00 0.  1.
         11    1    1    2    0    0  0.23213526068E+02  0.33385768875E+02  0.18369892571E+03  0.18814561558E+03  0.00000000000E+00 0. -1.
</event>
<event>
 7    1  0.2688177E-009  0.1112736E+03  0.7561462E-02  0.1258229E+00
          1   -1    0    0  501    0  0.00000000000E+00  0.00000000000E+00  0.16341353130E+03  0.16341353130E+03  0.00000000000E+00 0. -1.
         -1   -1    0    0    0  501 -0.00000000000E+00 -0.00000000000E+00 -0.13089070435E+03  0.13089070435E+03  0.00000000000E+00 0.  1.
         25    2    1    2    0    0 -0.24108725644E+02 -0.76701092053E+02  0.75101961919E+02  0.16659299766E+03  0.12509450032E+03 0.  0.
          5    1    3    3  502    0 -0.28292934419E+02 -0.89963289578E+02  0.10015779880E+03  0.13763335595E+03  0.41800000000E+01 0.  1.
         -5    1    3    3    0  502  0.41842087747E+01  0.13262197526E+02 -0.25055836880E+02  0.28959641711E+02  0.41800000000E+01 0.  1.
        -11    1    1    2    0    0 -0.15382688256E+02  0.72267404632E+02 -0.47243041140E+02  0.87698972664E+02  0.00000000000E+00 0.  1.
         11    1    1    2    0    0  0.39491413900E+02  0.44336874210E+01  0.46639061693E+01  0.40012265329E+02  0.00000000000E+00 0. -1.
</event>
<event>
 7    1  0.3655149E-009  0.1624284E+03  0.7561462E-02  0.1185982E+00
         -2   -1    0    0    0  501 -0.00000000000E+00  0.00000000000E+00  0.54534695025E+02  0.54534695025E+02  0.00000000000E+00 0.  1.
          2   -1    0    0  501    0  0.00000000000E+00 -0.00000000000E+00 -0.66756779326E+03  0.66756779326E+03  0.00000000000E+00 0. -1.
         25    2    1    2    0    0 -0.76361647585E+02 -0.12471579663E+03 -0.42902118631E+03  0.47020425239E+03  0.12509088499E+03 0.  0.
          5    1    3    3  502    0 -0.35134380328E+02 -0.13081121883E+03 -0.39032974431E+03  0.41318371380E+03  0.41800000000E+01 0. -1.
         -5    1    3    3    0  502 -0.41227267257E+02  0.60954221912E+01 -0.38691441999E+02  0.57020538591E+02  0.41800000000E+01 0. -1.
        -11    1    1    2    0    0  0.53588723594E+02  0.69714682809E+02 -0.41057291272E+02  0.97044265478E+02  0.00000000000E+00 0.  1.
         11    1    1    2    0    0  0.22772923991E+02  0.55001113825E+02 -0.14295462065E+03  0.15485397041E+03  0.00000000000E+00 0. -1.
</event>
<event>
 7    1  0.2688177E-009  0.9702300E+02  0.7561462E-02  0.1286684E+00
         -2   -1    0    0    0  501 -0.00000000000E+00  0.00000000000E+00  0.35701054817E+02  0.35701054817E+02  0.00000000000E+00 0. -1.
          2   -1    0    0  501    0  0.00000000000E+00 -0.00000000000E+00 -0.59845388519E+03  0.59845388519E+03  0.00000000000E+00 0.  1.
         25    2    1    2    0    0 -0.10534212171E+02  0.45930759429E+02 -0.12584835699E+03  0.18359103418E+03  0.12508898668E+03 0.  0.
          5    1    3    3  502    0 -0.42739332459E+02  0.10799098797E+01 -0.12053761621E+03  0.12796329968E+03  0.41800000000E+01 0.  1.
         -5    1    3    3    0  502  0.32205120288E+02  0.44850849549E+02 -0.53107407799E+01  0.55627734501E+02  0.41800000000E+01 0.  1.
        -11    1    1    2    0    0 -0.31425564522E+02  0.26329132233E+01 -0.55814254680E+02  0.64107170917E+02  0.00000000000E+00 0. -1.
         11    1    1    2    0    0  0.41959776693E+02 -0.48563672652E+02 -0.38109021870E+03  0.38645673490E+03  0.00000000000E+00 0.  1.
</event>
<event>
 7    1  0.2688177E-009  0.1162974E+03  0.7561462E-02  0.1249333E+00
         -1   -1    0    0    0  501 -0.00000000000E+00  0.00000000000E+00  0.11507759976E+03  0.11507759976E+03  0.00000000000E+00 0.  1.
          1   -1    0    0  501    0  0.00000000000E+00 -0.00000000000E+00 -0.13981142944E+03  0.13981142944E+03  0.00000000000E+00 0. -1.
         25    2    1    2    0    0 -0.77468423315E+01  0.58662721335E+02  0.15254803647E+02  0.13921693090E+03  0.12508923364E+03 0.  0.
          5    1    3    3  502    0  0.43328723049E+00  0.90793790969E+02 -0.17345222340E+02  0.92531234480E+02  0.41800000000E+01 0. -1.
         -5    1    3    3    0  502 -0.81801295620E+01 -0.32131069634E+02  0.32600025987E+02  0.46685696416E+02  0.41800000000E+01 0. -1.
        -11    1    1    2    0    0 -0.33333649250E+02 -0.58354178459E+02 -0.28638221901E+02  0.73051283833E+02  0.00000000000E+00 0.  1.
         11    1    1    2    0    0  0.41080491582E+02 -0.30854287592E+00 -0.11350411427E+02  0.42620814479E+02  0.00000000000E+00 0. -1.
</event>
<event>
 7    1  0.2688177E-009  0.1105240E+03  0.7561462E-02  0.1259603E+00
         -1   -1    0    0    0  501 -0.00000000000E+00  0.00000000000E+00  0.15608068542E+03  0.15608068542E+03  0.00000000000E+00 0.  1.
          1   -1    0    0  501    0  0.00000000000E+00 -0.00000000000E+00 -0.84544020459E+02  0.84544020459E+02  0.00000000000E+00 0. -1.
         25    2    1    2    0    0  0.12223471558E+02  0.22395366005E+02  0.69749096683E+02  0.14547464590E+03  0.12508785088E+03 0.  0.
          5    1    3    3  502    0  0.19530059715E+02  0.73201576525E+02  0.46305929351E+02  0.88890975534E+02  0.41800000000E+01 0.  1.
         -5    1    3    3    0  502 -0.73065881568E+01 -0.50806210520E+02  0.23443167332E+02  0.56583670370E+02  0.41800000000E+01 0.  1.
        -11    1    1    2    0    0 -0.51551159983E+02 -0.10799888045E+02 -0.72426670106E+01  0.53165928025E+02  0.00000000000E+00 0. -1.
         11    1    1    2    0    0  0.39327688425E+02 -0.11595477960E+02  0.90302352831E+01  0.41984131946E+02  0.00000000000E+00 0.  1.
</event>
<event>
 7    1  0.2688177E-009  0.1133807E+03  0.7561462E-02  0.1254434E+00
         -2   -1    0    0    0  501 -0.00000000000E+00  0.00000000000E+00  0.14102490623E+03  0.14102490623E+03  0.00000000000E+00 0. -1.
          2   -1    0    0  501    0  0.00000000000E+00 -0.00000000000E+00 -0.15507162118E+03  0.15507162118E+03  0.00000000000E+00 0.  1.
         25    2    1    2    0    0  0.53819948183E+02  0.50904192590E+02  0.59131413193E+02  0.15694663289E+03  0.12509155808E+03 0.  0.
          5    1    3    3  502    0 -0.32297326348E+02 -0.12786310231E+02  0.98805790398E+00  0.35000795377E+02  0.41800000000E+01 0.  1.
         -5    1    3    3    0  502  0.86117274532E+02  0.63690502821E+02  0.58143355289E+02  0.12194583751E+03  0.41800000000E+01 0.  1.
        -11    1    1    2    0    0 -0.31980026977E+02 -0.32285390304E+01 -0.80049528095E+02  0.86261651607E+02  0.00000000000E+00 0.  1.
         11    1    1    2    0    0 -0.21839921206E+02 -0.47675653559E+02  0.68713999529E+01  0.52888242908E+02  0.00000000000E+00 0. -1.
</event>
<event>
 7    1  0.2688177E-009  0.1415347E+03  0.7561462E-02  0.1211279E+00
          2   -1    0    0  501    0  0.00000000000E+00  0.00000000000E+00  0.17079148394E+03  0.17079148394E+03  0.00000000000E+00 0. -1.
         -2   -1    0    0    0  501 -0.00000000000E+00 -0.00000000000E+00 -0.14686153907E+03  0.14686153907E+03  0.00000000000E+00 0.  1.
         25    2    1    2    0    0 -0.40269867428E+02  0.10708237545E+03  0.17755110158E+02  0.17045069730E+03  0.12509955603E+03 0.  0.
          5    1    3    3  502    0 -0.34022502620E+02  0.13389326268E+03  0.15223659574E+01  0.13821984833E+03  0.41800000000E+01 0.  1.
         -5    1    3    3    0  502 -0.62473648084E+01 -0.26810887227E+02  0.16232744201E+02  0.32230848968E+02  0.41800000000E+01 0.  1.
        -11    1    1    2    0    0  0.22714861345E+02 -0.28248038167E+02 -0.40152255436E+02  0.54093624419E+02  0.00000000000E+00 0.  1.
         11    1    1    2    0    0  0.17555006083E+02 -0.78834337283E+02  0.46327090154E+02  0.93108701288E+02  0.00000000000E+00 0. -1.
</event>
<event>
 7    1  0.2688177E-009  0.1618189E+03  0.7561462E-02  0.1186658E+00
         -4   -1    0    0    0  501 -0.00000000000E+00  0.00000000000E+00  0.78875431845E+03  0.78875431845E+03  0.00000000000E+00 0.  1.
          4   -1    0    0  501    0  0.00000000000E+00 -0.00000000000E+00 -0.38882936939E+02  0.38882936939E+02  0.00000000000E+00 0. -1.
         25    2    1    2    0    0  0.16687514490E+02  0.12989828356E+03  0.49938258998E+03  0.53120760765E+03  0.12508602657E+03 0.  0.
          5    1    3    3  502    0  0.68717603381E+02  0.50592700759E+02  0.21290536403E+03  0.22940770871E+03  0.41800000000E+01 0. -1.
         -5    1    3    3    0  502 -0.52030088890E+02  0.79305582797E+02  0.28647722595E+03  0.30179989894E+03  0.41800000000E+01 0. -1.
        -11    1    1    2    0    0 -0.38465354075E+02 -0.88027050140E+02  0.99797391570E+02  0.13852026705E+03  0.00000000000E+00 0. -1.
         11    1    1    2    0    0  0.21777839585E+02 -0.41871233416E+02  0.15069139996E+03  0.15790938068E+03  0.00000000000E+00 0.  1.
</event>
<event>
 7    1  0.2688177E-009  0.1035931E+03  0.7561462E-02  0.1272917E+00
         -2   -1    0    0    0  501 -0.00000000000E+00  0.00000000000E+00  0.87390097359E+01  0.87390097359E+01  0.00000000000E+00 0.  1.
          2   -1    0    0  501    0  0.00000000000E+00 -0.00000000000E+00 -0.18857522567E+04  0.18857522567E+04  0.00000000000E+00 0. -1.
         25    2    1    2    0    0 -0.97376699061E+01 -0.22350172635E+02 -0.14691380192E+04  0.14746552834E+04  0.12508930030E+03 0.  0.
          5    1    3    3  502    0 -0.56555211454E+02 -0.84585694187E+00 -0.11465870532E+04  0.11479889156E+04  0.41800000000E+01 0.  1.
         -5    1    3    3    0  502  0.46817541548E+02 -0.21504315693E+02 -0.32255096596E+03  0.32666636777E+03  0.41800000000E+01 0.  1.
        -11    1    1    2    0    0  0.52491685536E+02  0.53218691635E+01 -0.24276705805E+03  0.24843418407E+03  0.00000000000E+00 0.  1.
         11    1    1    2    0    0 -0.42754015630E+02  0.17028303472E+02 -0.16510816970E+03  0.17140179892E+03  0.00000000000E+00 0. -1.
</event>
<event>
 7    1  0.2688177E-009  0.1894701E+03  0.7561462E-02  0.1158940E+00
          2   -1    0    0  501    0  0.00000000000E+00  0.00000000000E+00  0.35519466040E+03  0.35519466040E+03  0.00000000000E+00 0. -1.
         -2   -1    0    0    0  501 -0.00000000000E+00 -0.00000000000E+00 -0.11038430955E+03  0.11038430955E+03  0.00000000000E+00 0.  1.
         25    2    1    2    0    0 -0.12280531061E+03 -0.96267909048E+02  0.19599215392E+03  0.28001418538E+03  0.12508543076E+03 0.  0.
          5    1    3    3  502    0 -0.11768287106E+03 -0.12424232499E+03  0.17020894001E+03  0.24140001889E+03  0.41800000000E+01 0. -1.
         -5    1    3    3    0  502 -0.51224395438E+01  0.27974415940E+02  0.25783213913E+02  0.38614166490E+02  0.41800000000E+01 0. -1.
        -11    1    1    2    0    0  0.29049007143E+02 -0.15664655740E+02  0.81045687514E+01  0.33983971076E+02  0.00000000000E+00 0.  1.
         11    1    1    2    0    0  0.93756303465E+02  0.11193256479E+03  0.40713628180E+02  0.15158081349E+03  0.00000000000E+00 0. -1.
</event>
<event>
 7    1  0.2688177E-009  0.1452518E+03  0.7561462E-02  0.1206432E+00
         -1   -1    0    0    0  501 -0.00000000000E+00  0.00000000000E+00  0.17207150668E+03  0.17207150668E+03  0.00000000000E+00 0.  1.
          1   -1    0    0  501    0  0.00000000000E+00 -0.00000000000E+00 -0.42151273168E+03  0.42151273168E+03  0.00000000000E+00 0. -1.
         25    2    1    2    0    0  0.57686742310E+01  0.11566278453E+03  0.11177226822E+03  0.20384197143E+03  0.12508937624E+03 0.  0.
          5    1    3    3  502    0  0.45781763075E+02  0.82731192428E+02  0.17596010241E+02  0.96267917851E+02  0.41800000000E+01 0. -1.
         -5    1    3    3    0  502 -0.40013088844E+02  0.32931592098E+02  0.94176257977E+02  0.10757405358E+03  0.41800000000E+01 0. -1.
        -11    1    1    2    0    0 -0.36329380812E+02 -0.16131830027E+02 -0.13476141565E+03  0.14050159784E+03  0.00000000000E+00 0. -1.
         11    1    1    2    0    0  0.30560706580E+02 -0.99530954500E+02 -0.22645207757E+03  0.24924066909E+03  0.00000000000E+00 0.  1.
</event>
<event>
 7    1  0.2798502E-009  0.2533672E+03  0.7561462E-02  0.1111195E+00
         -2   -1    0    0    0  501 -0.00000000000E+00  0.00000000000E+00  0.20117213924E+03  0.20117213924E+03  0.00000000000E+00 0.  1.
          2   -1    0    0  501    0  0.00000000000E+00 -0.00000000000E+00 -0.49021995223E+03  0.49021995223E+03  0.00000000000E+00 0. -1.
         25    2    1    2    0    0  0.52700457606E+02 -0.24577650807E+03 -0.31589239022E+03  0.42263316658E+03  0.12508941261E+03 0.  0.
          5    1    3    3  502    0  0.32962386493E+02 -0.65083144737E+02 -0.20714958561E+02  0.75953384127E+02  0.41800000000E+01 0.  1.
         -5    1    3    3    0  502  0.19738071113E+02 -0.18069336334E+03 -0.29517743166E+03  0.34667978246E+03  0.41800000000E+01 0.  1.
        -11    1    1    2    0    0 -0.29827581902E+02  0.10243627890E+03  0.56319152144E+02  0.12064295576E+03  0.00000000000E+00 0.  1.
         11    1    1    2    0    0 -0.22872875704E+02  0.14334022917E+03 -0.29474574914E+02  0.14811596912E+03  0.00000000000E+00 0. -1.
</event>
<event>
 7    1  0.2688177E-009  0.1345786E+03  0.7561462E-02  0.1220816E+00
          1   -1    0    0  501    0  0.00000000000E+00  0.00000000000E+00  0.81039296139E+02  0.81039296139E+02  0.00000000000E+00 0. -1.
         -1   -1    0    0    0  501 -0.00000000000E+00 -0.00000000000E+00 -0.31864917857E+03  0.31864917857E+03  0.00000000000E+00 0.  1.
         25    2    1    2    0    0  0.27279533342E+02  0.99508505906E+02 -0.19731880733E+03  0.25539370685E+03  0.12508044646E+03 0.  0.
          5    1    3    3  502    0 -0.50182746261E+02  0.41602652897E+02 -0.81617136101E+02  0.10453668282E+03  0.41800000000E+01 0.  1.
         -5    1    3    3    0  502  0.77462279603E+02  0.57905853009E+02 -0.11570167123E+03  0.15085702403E+03  0.41800000000E+01 0.  1.
        -11    1    1    2    0    0 -0.28865483980E+02 -0.51800086429E+02 -0.67098988435E+02  0.89547414080E+02  0.00000000000E+00 0.  1.
         11    1    1    2    0    0  0.15859506375E+01 -0.47708419477E+02  0.26807913333E+02  0.54747353778E+02  0.00000000000E+00 0. -1.
</event>
<event>
 6    1  0.2688177E-009  0.1180595E+03  0.7561462E-02  0.1246333E+00
          2   -1    0    0  501    0  0.00000000000E+00  0.00000000000E+00  0.47433821578E+03  0.47433821578E+03  0.00000000000E+00 0. -1.
         -2   -1    0    0    0  501 -0.00000000000E+00 -0.00000000000E+00 -0.52798828076E+02  0.52798828076E+02  0.00000000000E+00 0.  1.
          5    1    1    2  502    0 -0.11336796293E+02 -0.47566428365E+02  0.61906111474E+01  0.49465989568E+02  0.41800000000E+01 0. -1.
         -5    1    1    2    0  502 -0.27416151413E+02 -0.59767512302E+02  0.24300957898E+03  0.25178349580E+03  0.41800000000E+01 0. -1.
        -11    1    1    2    0    0  0.90523726601E+01  0.80864892062E+02  0.16697179235E+03  0.18574352118E+03  0.00000000000E+00 0. -1.
         11    1    1    2    0    0  0.29700575046E+02  0.26469048604E+02  0.53674052275E+01  0.40144037303E+02  0.00000000000E+00 0.  1.
</event>
<event>
 7    1  0.2688177E-009  0.1072442E+03  0.7561462E-02  0.1265760E+00
          2   -1    0    0  501    0  0.00000000000E+00  0.00000000000E+00  0.65603818111E+02  0.65603818111E+02  0.00000000000E+00 0. -1.
         -2   -1    0    0    0  501 -0.00000000000E+00 -0.00000000000E+00 -0.27115401456E+03  0.27115401456E+03  0.00000000000E+00 0.  1.
         25    2    1    2    0    0 -0.59359894349E+02  0.39465763048E+02 -0.14334073495E+03  0.20316267100E+03  0.12508941235E+03 0.  0.
          5    1    3    3  502    0 -0.39509541204E+02  0.82883931019E+02 -0.11595830175E+03  0.14796807092E+03  0.41800000000E+01 0.  1.
         -5    1    3    3    0  502 -0.19850353145E+02 -0.43418167971E+02 -0.27382433202E+02  0.55194600080E+02  0.41800000000E+01 0.  1.
        -11    1    1    2    0    0  0.48180784370E+01 -0.13322829677E+02 -0.71067963055E+02  0.72466316611E+02  0.00000000000E+00 0.  1.
         11    1    1    2    0    0  0.54541815912E+02 -0.26142933372E+02  0.88585015581E+01  0.61128845058E+02  0.00000000000E+00 0. -1.
</event>
<event>
 7    1  0.2688177E-009  0.1250348E+03  0.7561462E-02  0.1235015E+00
         -1   -1    0    0    0  501 -0.00000000000E+00  0.00000000000E+00  0.25195183557E+02  0.25195183557E+02  0.00000000000E+00 0.  1.
          1   -1    0    0  501    0  0.00000000000E+00 -0.00000000000E+00 -0.83351937462E+03  0.83351937462E+03  0.00000000000E+00 0. -1.
         25    2    1    2    0    0  0.77206026600E+02  0.35242726869E+02 -0.31286408641E+03  0.34746761914E+03  0.12508792687E+03 0.  0.
          5    1    3    3  502    0  0.55502968917E+02 -0.29607176371E+02 -0.65998800397E+02  0.91271455040E+02  0.41800000000E+01 0.  1.
         -5    1    3    3    0  502  0.21703057683E+02  0.64849903241E+02 -0.24686528601E+03  0.25619616410E+03  0.41800000000E+01 0.  1.
        -11    1    1    2    0    0 -0.54080378283E+02 -0.62576960605E+02 -0.41527636297E+03  0.42343242785E+03  0.00000000000E+00 0.  1.
         11    1    1    2    0    0 -0.23125648317E+02  0.27334233736E+02 -0.80183741685E+02  0.87814511185E+02  0.00000000000E+00 0. -1.
</event>
<event>
 7    1  0.2688177E-009  0.1020066E+03  0.7561462E-02  0.1276132E+00
         -2   -1    0    0    0  501 -0.00000000000E+00  0.00000000000E+00  0.27497686515E+02  0.27497686515E+02  0.00000000000E+00 0.  1.
          2   -1    0    0  501    0  0.00000000000E+00 -0.00000000000E+00 -0.47422416835E+03  0.47422416835E+03  0.00000000000E+00 0. -1.
         25    2    1    2    0    0 -0.52446549112E+02 -0.15432581686E+02 -0.22426103614E+03  0.26254489345E+03  0.12509198078E+03 0.  0.
          5    1    3    3  502    0 -0.83349711434E+02 -0.17757597199E+01 -0.20935141959E+03  0.22537927368E+03  0.41800000000E+01 0. -1.
         -5    1    3    3    0  502  0.30903162323E+02 -0.13656821966E+02 -0.14909616551E+02  0.37165619777E+02  0.41800000000E+01 0. -1.
        -11    1    1    2    0    0  0.30751734800E+02  0.42089355034E+02 -0.11301549326E+03  0.12445756191E+03  0.00000000000E+00 0.  1.
         11    1    1    2    0    0  0.21694814311E+02 -0.26656773349E+02 -0.10944995244E+03  0.11471939950E+03  0.00000000000E+00 0. -1.
</event>
<event>
 7    1  0.2688177E-009  0.1106871E+03  0.7561462E-02  0.1259303E+00
         -2   -1    0    0    0  501 -0.00000000000E+00  0.00000000000E+00  0.13830929374E+02  0.13830929374E+02  0.00000000000E+00 0.  1.
          2   -1    0    0  501    0  0.00000000000E+00 -0.00000000000E+00 -0.96210352461E+03  0.96210352461E+03  0.00000000000E+00 0. -1.
         25    2    1    2    0    0  0.22002619260E+02 -0.28081243618E+02 -0.61561907099E+03  0.62921113061E+03  0.12508850791E+03 0.  0.
          5    1    3    3  502    0  0.38568837809E+02 -0.69292276483E+02 -0.29495164996E+03  0.30545527176E+03  0.41800000000E+01 0. -1.
         -5    1    3    3    0  502 -0.16566218548E+02  0.41211032865E+02 -0.32066742104E+03  0.32375585885E+03  0.41800000000E+01 0. -1.
        -11    1    1    2    0    0  0.18126718882E+02  0.48892117669E+02 -0.16207463165E+03  0.17025628720E+03  0.00000000000E+00 0.  1.
         11    1    1    2    0    0 -0.40129338143E+02 -0.20810874051E+02 -0.17057889259E+03  0.17646703617E+03  0.00000000000E+00 0. -1.
</event>
<event>
 7    1  0.2688177E-009  0.7335266E+02  0.7561462E-02  0.1349050E+00
          4   -1    0    0  501    0  0.00000000000E+00  0.00000000000E+00  0.37958249291E+02  0.37958249291E+02  0.00000000000E+00 0. -1.
         -4   -1    0    0    0  501 -0.00000000000E+00 -0.00000000000E+00 -0.38408945093E+03  0.38408945093E+03  0.00000000000E+00 0.  1.
         25    2    1    2    0    0 -0.40304417342E+02  0.21923105021E+02 -0.14806466673E+03  0.19918660180E+03  0.12508832165E+03 0.  0.
          5    1    3    3  502    0 -0.33973698528E+02  0.29857808158E+02 -0.16929688413E+03  0.17528436404E+03  0.41800000000E+01 0.  1.
         -5    1    3    3    0  502 -0.63307188138E+01 -0.79347031374E+01  0.21232217399E+02  0.23902237767E+02  0.41800000000E+01 0.  1.
        -11    1    1    2    0    0  0.16258485441E+02  0.29418234983E+02 -0.28501007649E+02  0.44069017862E+02  0.00000000000E+00 0. -1.
         11    1    1    2    0    0  0.24045931901E+02 -0.51341340004E+02 -0.16956552726E+03  0.17879208055E+03  0.00000000000E+00 0.  1.
</event>
<event>
 7    1  0.2688177E-009  0.1680690E+03  0.7561462E-02  0.1179877E+00
         -1   -1    0    0    0  501 -0.00000000000E+00  0.00000000000E+00  0.32248606752E+03  0.32248606752E+03  0.00000000000E+00 0.  1.
          1   -1    0    0  501    0  0.00000000000E+00 -0.00000000000E+00 -0.10756749697E+03  0.10756749697E+03  0.00000000000E+00 0. -1.
         25    2    1    2    0    0  0.11332279752E+03  0.80384259824E+02  0.40396075587E+02  0.19126741427E+03  0.12509074775E+03 0.  0.
          5    1    3    3  502    0  0.44676005499E+02 -0.24827995307E+02 -0.15686528310E+02  0.53627552515E+02  0.41800000000E+01 0.  1.
         -5    1    3    3    0  502  0.68646792025E+02  0.10521225513E+03  0.56082603897E+02  0.13763986176E+03  0.41800000000E+01 0.  1.
        -11    1    1    2    0    0 -0.26242900075E+02 -0.65835405310E+02  0.10368919512E+03  0.12559633586E+03  0.00000000000E+00 0.  1.
         11    1    1    2    0    0 -0.87079897450E+02 -0.14548854513E+02  0.70833299842E+02  0.11318981436E+03  0.00000000000E+00 0. -1.
</event>
<event>
 6    1  0.2688177E-009  0.1438931E+03  0.7561462E-02  0.1208184E+00
          1   -1    0    0  501    0  0.00000000000E+00  0.00000000000E+00  0.33813355559E+03  0.33813355559E+03  0.00000000000E+00 0. -1.
         -1   -1    0    0    0  501 -0.00000000000E+00 -0.00000000000E+00 -0.77973591482E+02  0.77973591482E+02  0.00000000000E+00 0.  1.
          5    1    1    2  502    0  0.72130706736E+01 -0.12711067091E+03  0.21425485270E+03  0.24926244272E+03  0.41800000000E+01 0.  1.
         -5    1    1    2    0  502  0.12464019111E+02  0.22271974931E+02  0.77233666300E+01  0.26991025024E+02  0.41800000000E+01 0.  1.
        -11    1    1    2    0    0  0.31425115652E+02  0.27030048535E+02  0.11556123761E+02  0.43031446803E+02  0.00000000000E+00 0. -1.
         11    1    1    2    0    0 -0.51102205437E+02  0.77808647440E+02  0.26625621025E+02  0.96822232529E+02  0.00000000000E+00 0.  1.
</event>
<event>
 7    1  0.2688177E-009  0.1177959E+03  0.7561462E-02  0.1246778E+00
         -4   -1    0    0    0  501 -0.00000000000E+00  0.00000000000E+00  0.17626490348E+03  0.17626490348E+03  0.00000000000E+00 0. -1.
          4   -1    0    0  501    0  0.00000000000E+00 -0.00000000000E+00 -0.11604330234E+03  0.11604330234E+03  0.00000000000E+00 0.  1.
         25    2    1    2    0    0 -0.68587475961E+02  0.54767388274E+02  0.23278192346E+01  0.15283150406E+03  0.12509333001E+03 0.  0.
          5    1    3    3  502    0 -0.10011316109E+03  0.23979748585E+02  0.20384602389E+02  0.10502703357E+03  0.41800000000E+01 0. -1.
         -5    1    3    3    0  502  0.31525685132E+02  0.30787639688E+02 -0.18056783154E+02  0.47804470487E+02  0.41800000000E+01 0. -1.
        -11    1    1    2    0    0  0.40620744517E+02 -0.26295021524E+02 -0.19680639069E+02  0.52237922970E+02  0.00000000000E+00 0.  1.
         11    1    1    2    0    0  0.27966731444E+02 -0.28472366750E+02  0.77574420971E+02  0.87238778792E+02  0.00000000000E+00 0. -1.
</event>
<event>
 7    1  0.2688177E-009  0.1171541E+03  0.7561462E-02  0.1247867E+00
         -2   -1    0    0    0  501 -0.00000000000E+00  0.00000000000E+00  0.72171959178E+02  0.72171959178E+02  0.00000000000E+00 0.  1.
          2   -1    0    0  501    0  0.00000000000E+00 -0.00000000000E+00 -0.24326253803E+03  0.24326253803E+03  0.00000000000E+00 0. -1.
         25    2    1    2    0    0  0.67767516425E+02 -0.28689177315E+02 -0.74075923900E+02  0.16295722113E+03  0.12510918528E+03 0.  0.
          5    1    3    3  502    0  0.46359194391E+02  0.40316695565E+02 -0.65789785677E+02  0.90113146351E+02  0.41800000000E+01 0.  1.
         -5    1    3    3    0  502  0.21408322034E+02 -0.69005872880E+02 -0.82861382234E+01  0.72844074782E+02  0.41800000000E+01 0.  1.
        -11    1    1    2    0    0  0.11754169303E+02 -0.64613216609E+01  0.84056363651E+01  0.15829210224E+02  0.00000000000E+00 0.  1.
         11    1    1    2    0    0 -0.79521685727E+02  0.35150498976E+02 -0.10542029131E+03  0.13664806585E+03  0.00000000000E+00 0. -1.
</event>
<event>
 7    1  0.2688177E-009  0.9304746E+02  0.7561462E-02  0.1295635E+00
         -2   -1    0    0    0  501 -0.00000000000E+00  0.00000000000E+00  0.24698835410E+03  0.24698835410E+03  0.00000000000E+00 0.  1.
          2   -1    0    0  501    0  0.00000000000E+00 -0.00000000000E+00 -0.84707514761E+02  0.84707514761E+02  0.00000000000E+00 0. -1.
         25    2    1    2    0    0 -0.59170198749E+02 -0.11211377380E+02  0.38527174577E+01  0.13888767907E+03  0.12509251202E+03 0.  0.
          5    1    3    3  502    0  0.64589851938E+01  0.13624854860E+02 -0.48678972061E+02  0.51131887121E+02  0.41800000000E+01 0.  1.
         -5    1    3    3    0  502 -0.65629183943E+02 -0.24836232239E+02  0.52531689518E+02  0.87755791949E+02  0.41800000000E+01 0.  1.
        -11    1    1    2    0    0  0.30298423434E+02  0.45913799782E+02  0.46183849770E+02  0.71826314486E+02  0.00000000000E+00 0. -1.
         11    1    1    2    0    0  0.28871775315E+02 -0.34702422402E+02  0.11224427211E+03  0.12098187530E+03  0.00000000000E+00 0.  1.
</event>
<event>
 7    1  0.2688177E-009  0.8601267E+02  0.7561462E-02  0.1312805E+00
          1   -1    0    0  501    0  0.00000000000E+00  0.00000000000E+00  0.59537185251E+03  0.59537185251E+03  0.00000000000E+00 0. -1.
         -1   -1    0    0    0  501 -0.00000000000E+00 -0.00000000000E+00 -0.24502654890E+02  0.24502654890E+02  0.00000000000E+00 0.  1.
         25    2    1    2    0    0 -0.43891434689E+02  0.16434356532E+02  0.31352656520E+03  0.34079928643E+03  0.12509476580E+03 0.  0.
          5    1    3    3  502    0 -0.47432844452E+01  0.25026246747E+02  0.11540746267E+01  0.25838267392E+02  0.41800000000E+01 0.  1.
         -5    1    3    3    0  502 -0.39148150244E+02 -0.85918902149E+01  0.31237249058E+03  0.31496101904E+03  0.41800000000E+01 0.  1.
        -11    1    1    2    0    0 -0.30356843548E+02 -0.36654570203E+01  0.10100370111E+03  0.10553066456E+03  0.00000000000E+00 0.  1.
         11    1    1    2    0    0  0.74248278237E+02 -0.12768899512E+02  0.15633893131E+03  0.17354455641E+03  0.00000000000E+00 0. -1.
</event>
<event>
 7    1  0.2688177E-009  0.8133555E+02  0.7561462E-02  0.1325304E+00
          2   -1    0    0  501    0  0.00000000000E+00  0.00000000000E+00  0.76071166967E+02  0.76071166967E+02  0.00000000000E+00 0. -1.
         -2   -1    0    0    0  501 -0.00000000000E+00 -0.00000000000E+00 -0.23714774222E+03  0.23714774222E+03  0.00000000000E+00 0.  1.
         25    2    1    2    0    0 -0.99791352541E+01 -0.24010912480E+02 -0.79839425813E+02  0.15067512952E+03  0.12511016619E+03 0.  0.
          5    1    3    3  502    0 -0.36597083730E+01 -0.17679570297E+02 -0.11380473524E+03  0.11530373296E+03  0.41800000000E+01 0.  1.
         -5    1    3    3    0  502 -0.63194268811E+01 -0.63313421838E+01  0.33965309431E+02  0.35371396561E+02  0.41800000000E+01 0.  1.
        -11    1    1    2    0    0 -0.33145552387E+02 -0.43174475632E+02 -0.95804804223E+01  0.55267066090E+02  0.00000000000E+00 0. -1.
         11    1    1    2    0    0  0.43124687641E+02  0.67185388112E+02 -0.71656669014E+02  0.10727671357E+03  0.00000000000E+00 0.  1.
</event>
<event>
 7    1  0.2688177E-009  0.1382091E+03  0.7561462E-02  0.1215759E+00
          1   -1    0    0  501    0  0.00000000000E+00  0.00000000000E+00  0.12933086366E+03  0.12933086366E+03  0.00000000000E+00 0. -1.
         -1   -1    0    0    0  501 -0.00000000000E+00 -0.00000000000E+00 -0.14934303855E+03  0.14934303855E+03  0.00000000000E+00 0.  1.
         25    2    1    2    0    0  0.86626410311E+01 -0.85425198120E+02  0.81462172961E+00  0.15172263198E+03  0.12508632069E+03 0.  0.
          5    1    3    3  502    0  0.31325822495E+02 -0.11178964270E+03 -0.47417345755E+01  0.11626774195E+03  0.41800000000E+01 0. -1.
         -5    1    3    3    0  502 -0.22663181464E+02  0.26364444582E+02  0.55563563051E+01  0.35454890038E+02  0.41800000000E+01 0. -1.
        -11    1    1    2    0    0 -0.27721778804E+02 -0.88093524050E+01 -0.46426751915E+01  0.29456003510E+02  0.00000000000E+00 0. -1.
         11    1    1    2    0    0  0.19059137773E+02  0.94234550525E+02 -0.16184121431E+02  0.97495266715E+02  0.00000000000E+00 0.  1.
</event>
<event>
 7    1  0.2688177E-009  0.9526968E+02  0.7561462E-02  0.1290570E+00
          1   -1    0    0  501    0  0.00000000000E+00  0.00000000000E+00  0.71647007919E+02  0.71647007919E+02  0.00000000000E+00 0. -1.
         -1   -1    0    0    0  501 -0.00000000000E+00 -0.00000000000E+00 -0.19940075408E+03  0.19940075408E+03  0.00000000000E+00 0.  1.
         25    2    1    2    0    0  0.27538362482E+02  0.34228096745E+02 -0.40503493484E+02  0.13860400477E+03  0.12506243696E+03 0.  0.
          5    1    3    3  502    0  0.42806778273E+02  0.72980052494E+02 -0.70239698698E+01  0.85001863985E+02  0.41800000000E+01 0. -1.
         -5    1    3    3    0  502 -0.15268415792E+02 -0.38751955749E+02 -0.33479523614E+02  0.53602140784E+02  0.41800000000E+01 0. -1.
        -11    1    1    2    0    0 -0.23366798935E+02 -0.45936613351E+02 -0.10131725539E+03  0.11367218647E+03  0.00000000000E+00 0.  1.
         11    1    1    2    0    0 -0.41715635470E+01  0.11708516607E+02  0.14067002708E+02  0.18771570759E+02  0.00000000000E+00 0. -1.
</event>
<event>
 7    1  0.2688177E-009  0.1605818E+03  0.7561462E-02  0.1188042E+00
         -1   -1    0    0    0  501 -0.00000000000E+00  0.00000000000E+00  0.17503269480E+03  0.17503269480E+03  0.00000000000E+00 0.  1.
          1   -1    0    0  501    0  0.00000000000E+00 -0.00000000000E+00 -0.21534612406E+03  0.21534612406E+03  0.00000000000E+00 0. -1.
         25    2    1    2    0    0  0.41296454951E+02  0.12703140332E+03  0.69378734865E+02  0.19571556549E+03  0.12509516018E+03 0.  0.
          5    1    3    3  502    0  0.69270210143E+02  0.13108400792E+03  0.37663622669E+02  0.15302744858E+03  0.41800000000E+01 0. -1.
         -5    1    3    3    0  502 -0.27973755192E+02 -0.40526045970E+01  0.31715112196E+02  0.42688116909E+02  0.41800000000E+01 0. -1.
        -11    1    1    2    0    0 -0.19001717780E+01 -0.90572142186E+02 -0.10799205570E+03  0.14095817708E+03  0.00000000000E+00 0. -1.
         11    1    1    2    0    0 -0.39396283173E+02 -0.36459261138E+02 -0.17001084230E+01  0.53705076289E+02  0.00000000000E+00 0.  1.
</event>
<event>
 7    1  0.2688177E-009  0.1583826E+03  0.7561462E-02  0.1190535E+00
          2   -1    0    0  501    0  0.00000000000E+00  0.00000000000E+00  0.58965820838E+03  0.58965820838E+03  0.00000000000E+00 0. -1.
         -2   -1    0    0    0  501 -0.00000000000E+00 -0.00000000000E+00 -0.51664908979E+02  0.51664908979E+02  0.00000000000E+00 0.  1.
         25    2    1    2    0    0  0.11720224239E+03 -0.86517208414E+01  0.41955244214E+03  0.45330199163E+03  0.12508887249E+03 0.  0.
          5    1    3    3  502    0  0.16414015466E+02  0.51447044902E+02  0.13759291723E+03  0.14786988066E+03  0.41800000000E+01 0.  1.
         -5    1    3    3    0  502  0.10078822693E+03 -0.60098765743E+02  0.28195952491E+03  0.30543211098E+03  0.41800000000E+01 0.  1.
        -11    1    1    2    0    0 -0.44675576106E+02  0.45554825949E+02  0.62164392764E+02  0.89081765785E+02  0.00000000000E+00 0. -1.
         11    1    1    2    0    0 -0.72526666286E+02 -0.36903105108E+02  0.56276464501E+02  0.98939359943E+02  0.00000000000E+00 0.  1.
</event>
<event>
 7    1  0.2688177E-009  0.1132085E+03  0.7561462E-02  0.1254741E+00
          2   -1    0    0  501    0  0.00000000000E+00  0.00000000000E+00  0.10325676044E+03  0.10325676044E+03  0.00000000000E+00 0. -1.
         -2   -1    0    0    0  501 -0.00000000000E+00 -0.00000000000E+00 -0.18437498161E+03  0.18437498161E+03  0.00000000000E+00 0.  1.
         25    2    1    2    0    0  0.22457727043E+02  0.24669086967E+02  0.36125805649E+02  0.13440811167E+03  0.12509018064E+03 0.  0.
          5    1    3    3  502    0 -0.51628836063E+02  0.52193356425E+01  0.21449798890E+02  0.56305811869E+02  0.41800000000E+01 0.  1.
         -5    1    3    3    0  502  0.74086563106E+02  0.19449751325E+02  0.14676006758E+02  0.78102299799E+02  0.41800000000E+01 0.  1.
        -11    1    1    2    0    0 -0.58145579765E+02 -0.97148797456E+01 -0.59880598188E+02  0.84029598202E+02  0.00000000000E+00 0. -1.
         11    1    1    2    0    0  0.35687852722E+02 -0.14954207222E+02 -0.57363428629E+02  0.69194032182E+02  0.00000000000E+00 0.  1.
</event>
<event>
 7    1  0.2688177E-009  0.1769695E+03  0.7561462E-02  0.1170769E+00
         -2   -1    0    0    0  501 -0.00000000000E+00  0.00000000000E+00  0.17341942289E+03  0.17341942289E+03  0.00000000000E+00 0.  1.
          2   -1    0    0  501    0  0.00000000000E+00 -0.00000000000E+00 -0.21609737331E+03  0.21609737331E+03  0.00000000000E+00 0. -1.
         25    2    1    2    0    0  0.26644690615E+02 -0.15718775135E+03 -0.29683998458E+02  0.20480933766E+03  0.12509115202E+03 0.  0.
          5    1    3    3  502    0  0.28086936997E+02 -0.20048121189E+02  0.38264363678E+02  0.51695619938E+02  0.41800000000E+01 0. -1.
         -5    1    3    3    0  502 -0.14422463824E+01 -0.13713963017E+03 -0.67948362136E+02  0.15311371772E+03  0.41800000000E+01 0. -1.
        -11    1    1    2    0    0  0.32485795760E+02  0.52647525803E+02 -0.18215806916E+02  0.64489569087E+02  0.00000000000E+00 0.  1.
         11    1    1    2    0    0 -0.59130486375E+02  0.10454022555E+03  0.52218549488E+01  0.12021788946E+03  0.00000000000E+00 0. -1.
</event>
<event>
 7    1  0.2688177E-009  0.1357876E+03  0.7561462E-02  0.1219112E+00
          2   -1    0    0  501    0  0.00000000000E+00  0.00000000000E+00  0.13495041007E+03  0.13495041007E+03  0.00000000000E+00 0.  1.
         -2   -1    0    0    0  501 -0.00000000000E+00 -0.00000000000E+00 -0.21288534554E+03  0.21288534554E+03  0.00000000000E+00 0. -1.
         25    2    1    2    0    0 -0.69740949143E+02 -0.75328277710E+02 -0.12278908185E+03  0.20313210470E+03  0.12508934378E+03 0.  0.
          5    1    3    3  502    0  0.20453017002E+01 -0.86664521409E+02 -0.49874884305E+02  0.10009944563E+03  0.41800000000E+01 0.  1.
         -5    1    3    3    0  502 -0.71786250843E+02  0.11336243700E+02 -0.72914197550E+02  0.10303265907E+03  0.41800000000E+01 0.  1.
        -11    1    1    2    0    0  0.38459724017E+02  0.10278320106E+02 -0.22713219609E+02  0.45833225728E+02  0.00000000000E+00 0. -1.
         11    1    1    2    0    0  0.31281225125E+02  0.65049957603E+02  0.67567365985E+02  0.98870425182E+02  0.00000000000E+00 0.  1.
</event>
<event>
 7    1  0.2688177E-009  0.1140907E+03  0.7561462E-02  0.1253177E+00
          1   -1    0    0  501    0  0.00000000000E+00  0.00000000000E+00  0.59690213107E+03  0.59690213107E+03  0.00000000000E+00 0. -1.
         -1   -1    0    0    0  501 -0.00000000000E+00 -0.00000000000E+00 -0.41287879474E+02  0.41287879474E+02  0.00000000000E+00 0.  1.
         25    2    1    2    0    0  0.31894209232E+02 -0.95832943748E+02  0.19451392377E+03  0.25235734544E+03  0.12508944626E+03 0.  0.
          5    1    3    3  502    0 -0.15376551573E+02 -0.67691635112E+01  0.13310102518E+03  0.13422226052E+03  0.41800000000E+01 0.  1.
         -5    1    3    3    0  502  0.47270760805E+02 -0.89063780237E+02  0.61412898589E+02  0.11813508493E+03  0.41800000000E+01 0.  1.
        -11    1    1    2    0    0  0.30595288815E+01  0.59340624195E+02  0.30326713203E+03  0.30903336999E+03  0.00000000000E+00 0. -1.
         11    1    1    2    0    0 -0.34953738113E+02  0.36492319553E+02  0.57833195791E+02  0.76799295113E+02  0.00000000000E+00 0.  1.
</event>
<event>
 7    1  0.2688177E-009  0.1133621E+03  0.7561462E-02  0.1254468E+00
         -1   -1    0    0    0  501 -0.00000000000E+00  0.00000000000E+00  0.12830065643E+03  0.12830065643E+03  0.00000000000E+00 0.  1.
          1   -1    0    0  501    0  0.00000000000E+00 -0.00000000000E+00 -0.77653935194E+03  0.77653935194E+03  0.00000000000E+00 0. -1.
         25    2    1    2    0    0 -0.53851289543E+02  0.16853405930E+02 -0.72870578535E+03  0.74151477933E+03  0.12509215678E+03 0.  0.
          5    1    3    3  502    0 -0.49119919603E+02 -0.15916640330E+02 -0.68278912815E+03  0.68475146722E+03  0.41800000000E+01 0. -1.
         -5    1    3    3    0  502 -0.47313699393E+01  0.32770046260E+02 -0.45916657201E+02  0.56763312112E+02  0.41800000000E+01 0. -1.
        -11    1    1    2    0    0  0.51763092565E+02  0.51584835049E+02  0.34172156169E+02  0.80673100945E+02  0.00000000000E+00 0. -1.
         11    1    1    2    0    0  0.20881969781E+01 -0.68438240979E+02  0.46294933673E+02  0.82652128095E+02  0.00000000000E+00 0.  1.
</event>
<event>
 7    1  0.2688177E-009  0.1551370E+03  0.7561462E-02  0.1194299E+00
         -2   -1    0    0    0  501 -0.00000000000E+00  0.00000000000E+00  0.59728537302E+03  0.59728537302E+03  0.00000000000E+00 0.  1.
          2   -1    0    0  501    0  0.00000000000E+00 -0.00000000000E+00 -0.48214785982E+02  0.48214785982E+02  0.00000000000E+00 0. -1.
         25    2    1    2    0    0  0.34771329805E+02  0.10852359032E+03  0.41256387743E+03  0.44592005428E+03  0.12509726942E+03 0.  0.
          5    1    3    3  502    0  0.77607091833E+02  0.37802242514E+02  0.21280562198E+03  0.22968581887E+03  0.41800000000E+01 0.  1.
         -5    1    3    3    0  502 -0.42835762028E+02  0.70721347809E+02  0.19975825545E+03  0.21623423541E+03  0.41800000000E+01 0.  1.
        -11    1    1    2    0    0  0.20448850498E+02 -0.72016606284E+02  0.96858817692E+02  0.12241804455E+03  0.00000000000E+00 0.  1.
         11    1    1    2    0    0 -0.55220180303E+02 -0.36506984038E+02  0.39647891914E+02  0.77162060168E+02  0.00000000000E+00 0. -1.
</event>
<event>
 7    1  0.2688177E-009  0.8788948E+02  0.7561462E-02  0.1308045E+00
         -2   -1    0    0    0  501 -0.00000000000E+00  0.00000000000E+00  0.14885870220E+03  0.14885870220E+03  0.00000000000E+00 0. -1.
          2   -1    0    0  501    0  0.00000000000E+00 -0.00000000000E+00 -0.10059531240E+03  0.10059531240E+03  0.00000000000E+00 0.  1.
         25    2    1    2    0    0 -0.69795817627E+00  0.56804000859E+02  0.12095351489E+02  0.13791506512E+03  0.12508831280E+03 0.  0.
          5    1    3    3  502    0 -0.47113863463E+02  0.28644347868E+02 -0.35403115651E+02  0.65658722140E+02  0.41800000000E+01 0. -1.
         -5    1    3    3    0  502  0.46415905287E+02  0.28159652990E+02  0.47498467140E+02  0.72256342980E+02  0.41800000000E+01 0. -1.
        -11    1    1    2    0    0  0.16925369527E+02 -0.23230231505E+02 -0.26188082597E+02  0.38883511409E+02  0.00000000000E+00 0.  1.
         11    1    1    2    0    0 -0.16227411351E+02 -0.33573769354E+02  0.62356120906E+02  0.72655438078E+02  0.00000000000E+00 0. -1.
</event>
<event>
 7    1  0.2688177E-009  0.9846894E+02  0.7561462E-02  0.1283549E+00
         -2   -1    0    0    0  501 -0.00000000000E+00  0.00000000000E+00  0.53696340658E+02  0.53696340658E+02  0.00000000000E+00 0.  1.
          2   -1    0    0  501    0  0.00000000000E+00 -0.00000000000E+00 -0.30836137501E+03  0.30836137501E+03  0.00000000000E+00 0. -1.
         25    2    1    2    0    0 -0.43133032352E+02 -0.56351474301E+01 -0.22894742399E+03  0.26449374188E+03  0.12509117944E+03 0.  0.
          5    1    3    3  502    0 -0.83988215640E+02 -0.68139746074E+01 -0.10985608419E+03  0.13851455610E+03  0.41800000000E+01 0.  1.
         -5    1    3    3    0  502  0.40855183288E+02  0.11788271774E+01 -0.11909133980E+03  0.12597918578E+03  0.41800000000E+01 0.  1.
        -11    1    1    2    0    0 -0.57359745223E-01 -0.20830508700E+02  0.20330652808E+02  0.29107538997E+02  0.00000000000E+00 0.  1.
         11    1    1    2    0    0  0.43190392097E+02  0.26465656130E+02 -0.46048263165E+02  0.68456434792E+02  0.00000000000E+00 0. -1.
</event>
<event>
 7    1  0.2688177E-009  0.8173216E+02  0.7561462E-02  0.1324206E+00
          1   -1    0    0  501    0  0.00000000000E+00  0.00000000000E+00  0.45331023670E+02  0.45331023670E+02  0.00000000000E+00 0. -1.
         -1   -1    0    0    0  501 -0.00000000000E+00 -0.00000000000E+00 -0.34424200443E+03  0.34424200443E+03  0.00000000000E+00 0.  1.
         25    2    1    2    0    0  0.54641918062E+02 -0.17014323844E+02 -0.12889531084E+03  0.18850906486E+03  0.12508573041E+03 0.  0.
          5    1    3    3  502    0  0.39256624745E+02 -0.15555077674E+02  0.14028549125E+02  0.44691337174E+02  0.41800000000E+01 0. -1.
         -5    1    3    3    0  502  0.15385293316E+02 -0.14592461700E+01 -0.14292385996E+03  0.14381772769E+03  0.41800000000E+01 0. -1.
        -11    1    1    2    0    0 -0.36356931666E+02  0.53224759207E+02 -0.83273159817E+02  0.10530489361E+03  0.00000000000E+00 0.  1.
         11    1    1    2    0    0 -0.18284986396E+02 -0.36210435363E+02 -0.86742510105E+02  0.95759069628E+02  0.00000000000E+00 0. -1.
</event>
<event>
 7    1  0.2688177E-009  0.7325058E+02  0.7561462E-02  0.1349376E+00
          1   -1    0    0  501    0  0.00000000000E+00  0.00000000000E+00  0.35911911012E+02  0.35911911012E+02  0.00000000000E+00 0. -1.
         -1   -1    0    0    0  501 -0.00000000000E+00 -0.00000000000E+00 -0.44204492686E+03  0.44204492686E+03  0.00000000000E+00 0.  1.
         25    2    1    2    0    0 -0.66279940430E+01 -0.60161603397E+02 -0.18440588456E+03  0.23090390947E+03  0.12509091222E+03 0.  0.
          5    1    3    3  502    0 -0.28195407037E+01 -0.71766814745E+02 -0.19888975136E+03  0.21150184657E+03  0.41800000000E+01 0. -1.
         -5    1    3    3    0  502 -0.38084533393E+01  0.11605211348E+02  0.14483866797E+02  0.19402062897E+02  0.41800000000E+01 0. -1.
        -11    1    1    2    0    0  0.57284333219E+01  0.10361104360E+02  0.64640864060E+01  0.13488952700E+02  0.00000000000E+00 0. -1.
         11    1    1    2    0    0  0.89956072109E+00  0.49800499037E+02 -0.22819121770E+03  0.23356397571E+03  0.00000000000E+00 0.  1.
</event>
<event>
 7    1  0.3177665E-009  0.8279879E+02  0.7561462E-02  0.1321291E+00
          1   -1    0    0  501    0  0.00000000000E+00  0.00000000000E+00  0.17417689767E+03  0.17417689767E+03  0.00000000000E+00 0. -1.
         -1   -1    0    0    0  501 -0.00000000000E+00 -0.00000000000E+00 -0.10346386841E+03  0.10346386841E+03  0.00000000000E+00 0.  1.
         25    2    1    2    0    0  0.24150036991E+02 -0.55534216812E+02  0.91584181115E+02  0.16643121592E+03  0.12507763141E+03 0.  0.
          5    1    3    3  502    0  0.43207928017E+02 -0.68652880660E+02  0.10987814456E+03  0.13664121676E+03  0.41800000000E+01 0.  1.
         -5    1    3    3    0  502 -0.19057891026E+02  0.13118663848E+02 -0.18293963445E+02  0.29789999162E+02  0.41800000000E+01 0.  1.
        -11    1    1    2    0    0 -0.18378248701E+02  0.35013292705E+02 -0.56932855754E+02  0.69318401277E+02  0.00000000000E+00 0.  1.
         11    1    1    2    0    0 -0.57717882905E+01  0.20520924107E+02  0.36061703901E+02  0.41891148881E+02  0.00000000000E+00 0. -1.
</event>
<event>
 7    1  0.2688177E-009  0.2496155E+03  0.7561462E-02  0.1113548E+00
         -2   -1    0    0    0  501 -0.00000000000E+00  0.00000000000E+00  0.46377331900E+03  0.46377331900E+03  0.00000000000E+00 0.  1.
          2   -1    0    0  501    0  0.00000000000E+00 -0.00000000000E+00 -0.15242864258E+03  0.15242864258E+03  0.00000000000E+00 0. -1.
         25    2    1    2    0    0  0.20697454021E+03 -0.12637517957E+03  0.16286164094E+03  0.31777376424E+03  0.12508838812E+03 0.  0.
          5    1    3    3  502    0  0.18365849656E+03 -0.92066079306E+02  0.71879885346E+02  0.21769427331E+03  0.41800000000E+01 0.  1.
         -5    1    3    3    0  502  0.23316043655E+02 -0.34309100263E+02  0.90981755595E+02  0.10007949092E+03  0.41800000000E+01 0.  1.
        -11    1    1    2    0    0 -0.33835984310E+02 -0.56716455854E+01  0.47012988370E+02  0.58200193070E+02  0.00000000000E+00 0.  1.
         11    1    1    2    0    0 -0.17313855590E+03  0.13204682515E+03  0.10147004712E+03  0.24022800427E+03  0.00000000000E+00 0. -1.
</event>
<event>
 7    1  0.2688177E-009  0.7907420E+02  0.7561462E-02  0.1331699E+00
          1   -1    0    0  501    0  0.00000000000E+00  0.00000000000E+00  0.23123414567E+03  0.23123414567E+03  0.00000000000E+00 0. -1.
         -1   -1    0    0    0  501 -0.00000000000E+00 -0.00000000000E+00 -0.64259614923E+02  0.64259614923E+02  0.00000000000E+00 0.  1.
         25    2    1    2    0    0  0.29479379590E+02  0.41304909034E+02  0.74878403502E+02  0.15435925739E+03  0.12507947753E+03 0.  0.
          5    1    3    3  502    0  0.27413140410E+01 -0.28924625572E+02  0.73432498585E+02  0.79081938618E+02  0.41800000000E+01 0.  1.
         -5    1    3    3    0  502  0.26738065549E+02  0.70229534606E+02  0.14459049171E+01  0.75277318770E+02  0.41800000000E+01 0.  1.
        -11    1    1    2    0    0 -0.23667489678E+02 -0.18620079495E+02 -0.13479295227E+02  0.32993163350E+02  0.00000000000E+00 0.  1.
         11    1    1    2    0    0 -0.58118899118E+01 -0.22684829539E+02  0.10557542247E+03  0.10814133985E+03  0.00000000000E+00 0. -1.
</event>
<event>
 7    1  0.2688177E-009  0.1657025E+03  0.7561462E-02  0.1182405E+00
         -2   -1    0    0    0  501 -0.00000000000E+00  0.00000000000E+00  0.23335577756E+02  0.23335577756E+02  0.00000000000E+00 0.  1.
          2   -1    0    0  501    0  0.00000000000E+00 -0.00000000000E+00 -0.15447075003E+04  0.15447075003E+04  0.00000000000E+00 0. -1.
         25    2    1    2    0    0  0.35732239097E+02 -0.15131187382E+03 -0.74864322134E+03  0.77478133719E+03  0.12508945409E+03 0.  0.
          5    1    3    3  502    0  0.24114993307E+02 -0.12617791978E+03 -0.31469575516E+03  0.33993130344E+03  0.41800000000E+01 0.  1.
         -5    1    3    3    0  502  0.11617245790E+02 -0.25133954038E+02 -0.43394746618E+03  0.43485003375E+03  0.41800000000E+01 0.  1.
        -11    1    1    2    0    0 -0.14117249285E+02  0.15256939611E+03 -0.72245009246E+03  0.73851936566E+03  0.00000000000E+00 0.  1.
         11    1    1    2    0    0 -0.21614989812E+02 -0.12575222932E+01 -0.50278608796E+02  0.54742375262E+02  0.00000000000E+00 0. -1.
</event>
<event>
 7    1  0.2688177E-009  0.8377464E+02  0.7561462E-02  0.1318668E+00
         -1   -1    0    0    0  501 -0.00000000000E+00  0.00000000000E+00  0.28924878762E+02  0.28924878762E+02  0.00000000000E+00 0.  1.
          1   -1    0    0  501    0  0.00000000000E+00 -0.00000000000E+00 -0.60560161769E+03  0.60560161769E+03  0.00000000000E+00 0. -1.
         25    2    1    2    0    0  0.61314109078E+02 -0.30216342858E+02 -0.40685606226E+03  0.43110014022E+03  0.12507209182E+03 0.  0.
          5    1    3    3  502    0  0.16342663109E+02 -0.46579893018E+02 -0.47787124781E+02  0.68832047520E+02  0.41800000000E+01 0. -1.
         -5    1    3    3    0  502  0.44971445969E+02  0.16363550159E+02 -0.35906893748E+03  0.36226809270E+03  0.41800000000E+01 0. -1.
        -11    1    1    2    0    0 -0.32048232254E+02  0.24034075806E+02 -0.10623880686E+02  0.41443851549E+02  0.00000000000E+00 0.  1.
         11    1    1    2    0    0 -0.29265876824E+02  0.61822670527E+01 -0.15919679599E+03  0.16198250469E+03  0.00000000000E+00 0. -1.
</event>
<event>
 7    1  0.2688177E-009  0.1185210E+03  0.7561462E-02  0.1245557E+00
          1   -1    0    0  501    0  0.00000000000E+00  0.00000000000E+00  0.87936998826E+03  0.87936998826E+03  0.00000000000E+00 0. -1.
         -1   -1    0    0    0  501 -0.00000000000E+00 -0.00000000000E+00 -0.18080987680E+02  0.18080987680E+02  0.00000000000E+00 0.  1.
         25    2    1    2    0    0  0.53585940198E+02  0.55878817635E+02  0.50104736975E+03  0.52219709159E+03  0.12508972973E+03 0.  0.
          5    1    3    3  502    0  0.45912702440E+02 -0.28492537503E+02  0.28476176032E+03  0.28987330591E+03  0.41800000000E+01 0. -1.
         -5    1    3    3    0  502  0.76732377588E+01  0.84371355138E+02  0.21628560943E+03  0.23232378568E+03  0.41800000000E+01 0. -1.
        -11    1    1    2    0    0  0.95204547334E+01 -0.26986766594E+02  0.52603653384E+02  0.59883795628E+02  0.00000000000E+00 0. -1.
         11    1    1    2    0    0 -0.63106394932E+02 -0.28892051041E+02  0.30763797744E+03  0.31537008872E+03  0.00000000000E+00 0.  1.
</event>
<event>
 7    1  0.2688177E-009  0.7820113E+02  0.7561462E-02  0.1334235E+00
         -1   -1    0    0    0  501 -0.00000000000E+00  0.00000000000E+00  0.16907480591E+03  0.16907480591E+03  0.00000000000E+00 0.  1.
          1   -1    0    0  501    0  0.00000000000E+00 -0.00000000000E+00 -0.77868145169E+02  0.77868145169E+02  0.00000000000E+00 0. -1.
         25    2    1    2    0    0  0.10410130706E+02 -0.28461678040E+02  0.76130584255E+02  0.14953851436E+03  0.12508982164E+03 0.  0.
          5    1    3    3  502    0 -0.10103471366E+02 -0.41480594909E+02  0.10389850031E+03  0.11240591913E+03  0.41800000000E+01 0. -1.
         -5    1    3    3    0  502  0.20513602072E+02  0.13018916868E+02 -0.27767916057E+02  0.37132595231E+02  0.41800000000E+01 0. -1.
        -11    1    1    2    0    0 -0.22983761130E+02 -0.24983506302E+02 -0.12231879737E+02  0.36083898690E+02  0.00000000000E+00 0. -1.
         11    1    1    2    0    0  0.12573630424E+02  0.53445184342E+02  0.27307956224E+02  0.61320538032E+02  0.00000000000E+00 0.  1.
</event>
<event>
 7    1  0.2688177E-009  0.1547002E+03  0.7561462E-02  0.1194813E+00
          2   -1    0    0  501    0  0.00000000000E+00  0.00000000000E+00  0.27021315164E+03  0.27021315164E+03  0.00000000000E+00 0. -1.
         -2   -1    0    0    0  501 -0.00000000000E+00 -0.00000000000E+00 -0.89900669283E+02  0.89900669283E+02  0.00000000000E+00 0.  1.
         25    2    1    2    0    0 -0.18534861827E+02 -0.10909817321E+03  0.11843030107E+03  0.20474195551E+03  0.12509028592E+03 0.  0.
          5    1    3    3  502    0  0.50775836222E+02 -0.21800288562E+02  0.36905048580E+02  0.66579975489E+02  0.41800000000E+01 0. -1.
         -5    1    3    3    0  502 -0.69310698048E+02 -0.87297884651E+02  0.81525252491E+02  0.13816198002E+03  0.41800000000E+01 0. -1.
        -11    1    1    2    0    0 -0.31761642640E+02  0.75620824494E+02  0.38158510947E+02  0.90462052807E+02  0.00000000000E+00 0.  1.
         11    1    1    2    0    0  0.50296504467E+02  0.33477348719E+02  0.23723670342E+02  0.64909812612E+02  0.00000000000E+00 0. -1.
</event>
<event>
 7    1  0.2688177E-009  0.1734143E+03  0.7561462E-02  0.1174333E+00
         -1   -1    0    0    0  501 -0.00000000000E+00  0.00000000000E+00  0.54424411789E+02  0.54424411789E+02  0.00000000000E+00 0.  1.
          1   -1    0    0  501    0  0.00000000000E+00 -0.00000000000E+00 -0.61412691162E+03  0.61412691162E+03  0.00000000000E+00 0. -1.
         25    2    1    2    0    0  0.13643007310E+03 -0.24650831848E+02 -0.37990622056E+03  0.42331595791E+03  0.12508731128E+03 0.  0.
          5    1    3    3  502    0  0.92397886799E+02  0.41149529987E+02 -0.26530086147E+03  0.28395892802E+03  0.41800000000E+01 0.  1.
         -5    1    3    3    0  502  0.44032186300E+02 -0.65800361835E+02 -0.11460535908E+03  0.13935702989E+03  0.41800000000E+01 0.  1.
        -11    1    1    2    0    0 -0.57934846791E+02 -0.35032408939E+02 -0.82256948329E+02  0.10653601127E+03  0.00000000000E+00 0. -1.
         11    1    1    2    0    0 -0.78495226309E+02  0.59683240786E+02 -0.97539330948E+02  0.13869935424E+03  0.00000000000E+00 0.  1.
</event>
<event>
 7    1  0.2688177E-009  0.2385115E+03  0.7561462E-02  0.1120788E+00
          2   -1    0    0  501    0  0.00000000000E+00  0.00000000000E+00  0.29519608095E+03  0.29519608095E+03  0.00000000000E+00 0.  1.
         -2   -1    0    0    0  501 -0.00000000000E+00 -0.00000000000E+00 -0.21219186969E+03  0.21219186969E+03  0.00000000000E+00 0. -1.
         25    2    1    2    0    0  0.19902451982E+03  0.10425259823E+03  0.43419026670E+02  0.26079171027E+03  0.12509092909E+03 0.  0.
          5    1    3    3  502    0  0.88749292423E+02  0.11013973497E+03  0.50006063188E+02  0.15008423262E+03  0.41800000000E+01 0.  1.
         -5    1    3    3    0  502  0.11027522740E+03 -0.58871367492E+01 -0.65870365177E+01  0.11070747765E+03  0.41800000000E+01 0.  1.
        -11    1    1    2    0    0 -0.11994121949E+03 -0.56092383944E+02  0.69174210420E+02  0.14938983586E+03  0.00000000000E+00 0.  1.
         11    1    1    2    0    0 -0.79083300328E+02 -0.48160214281E+02 -0.29589025830E+02  0.97206404521E+02  0.00000000000E+00 0. -1.
</event>
<event>
 7    1  0.2688177E-009  0.8415739E+02  0.7561462E-02  0.1317651E+00
          2   -1    0    0  501    0  0.00000000000E+00  0.00000000000E+00  0.11006588092E+03  0.11006588092E+03  0.00000000000E+00 0.  1.
         -2   -1    0    0    0  501 -0.00000000000E+00 -0.00000000000E+00 -0.12104894499E+03  0.12104894499E+03  0.00000000000E+00 0. -1.
         25    2    1    2    0    0  0.27583686953E+02 -0.21719575929E+02 -0.26111687233E+02  0.13252529136E+03  0.12509409608E+03 0.  0.
          5    1    3    3  502    0  0.26178467113E+02  0.48376804290E+02  0.56298157966E+01  0.55450830107E+02  0.41800000000E+01 0. -1.
         -5    1    3    3    0  502  0.14052198401E+01 -0.70096380219E+02 -0.31741503029E+02  0.77074461251E+02  0.41800000000E+01 0. -1.
        -11    1    1    2    0    0 -0.11701527238E+02 -0.42708928641E+01 -0.36543517807E+02  0.38608223985E+02  0.00000000000E+00 0. -1.
         11    1    1    2    0    0 -0.15882159715E+02  0.25990468793E+02  0.51672140964E+02  0.59981310565E+02  0.00000000000E+00 0.  1.
</event>
<event>
 7    1  0.2688177E-009  0.9664598E+02  0.7561462E-02  0.1287511E+00
         -2   -1    0    0    0  501 -0.00000000000E+00  0.00000000000E+00  0.59401673163E+02  0.59401673163E+02  0.00000000000E+00 0.  1.
          2   -1    0    0  501    0  0.00000000000E+00 -0.00000000000E+00 -0.26794431679E+03  0.26794431679E+03  0.00000000000E+00 0. -1.
         25    2    1    2    0    0 -0.10659418700E+02 -0.38307129900E+02 -0.18250441825E+03  0.22480321537E+03  0.12509022165E+03 0.  0.
          5    1    3    3  502    0 -0.47331638960E+02 -0.66333675512E+02 -0.90952086135E+02  0.12218917680E+03  0.41800000000E+01 0.  1.
         -5    1    3    3    0  502  0.36672220260E+02  0.28026545611E+02 -0.91552332116E+02  0.10261403858E+03  0.41800000000E+01 0.  1.
        -11    1    1    2    0    0 -0.19843189041E+02  0.25395573612E+02 -0.51507873747E+02  0.60759759450E+02  0.00000000000E+00 0. -1.
         11    1    1    2    0    0  0.30502607741E+02  0.12911556288E+02  0.25469648373E+02  0.41783015126E+02  0.00000000000E+00 0.  1.
</event>
<event>
 7    1  0.2688177E-009  0.5631272E+02  0.7561462E-02  0.1413991E+00
         -3   -1    0    0    0  501 -0.00000000000E+00  0.00000000000E+00  0.66898778611E+02  0.66898778611E+02  0.00000000000E+00 0.  1.
          3   -1    0    0  501    0  0.00000000000E+00 -0.00000000000E+00 -0.18020754829E+03  0.18020754829E+03  0.00000000000E+00 0. -1.
         25    2    1    2    0    0 -0.65974786419E+01  0.17481223388E+02 -0.76967616144E+02  0.14805457535E+03  0.12508806279E+03 0.  0.
          5    1    3    3  502    0  0.10591352943E+02 -0.16604115450E+01 -0.10738387454E+03  0.10799862331E+03  0.41800000000E+01 0. -1.
         -5    1    3    3    0  502 -0.17188831585E+02  0.19141634933E+02  0.30416258401E+02  0.40055952046E+02  0.41800000000E+01 0. -1.
        -11    1    1    2    0    0 -0.28290649253E+02  0.10659196337E+02  0.12541261511E+02  0.32730147295E+02  0.00000000000E+00 0.  1.
         11    1    1    2    0    0  0.34888127894E+02 -0.28140419725E+02 -0.48882415051E+02  0.66321604259E+02  0.00000000000E+00 0. -1.
</event>
<event>
 7    1  0.2688177E-009  0.9179385E+02  0.7561462E-02  0.1298565E+00
         -1   -1    0    0    0  501 -0.00000000000E+00  0.00000000000E+00  0.22727227580E+02  0.22727227580E+02  0.00000000000E+00 0.  1.
          1   -1    0    0  501    0  0.00000000000E+00 -0.00000000000E+00 -0.81341474049E+03  0.81341474049E+03  0.00000000000E+00 0. -1.
         25    2    1    2    0    0  0.55158750587E+02 -0.36773219085E+02 -0.59212413184E+03  0.60881346218E+03  0.12509231318E+03 0.  0.
          5    1    3    3  502    0  0.59515027930E+02 -0.50986121674E+02 -0.58746494114E+03  0.59268385555E+03  0.41800000000E+01 0.  1.
         -5    1    3    3    0  502 -0.43562773426E+01  0.14212902589E+02 -0.46591907004E+01  0.16129606638E+02  0.41800000000E+01 0.  1.
        -11    1    1    2    0    0  0.20140060253E+00 -0.14325968205E+02  0.65324517711E+00  0.14342268177E+02  0.00000000000E+00 0.  1.
         11    1    1    2    0    0 -0.55360151190E+02  0.51099187290E+02 -0.19921662624E+03  0.21298623771E+03  0.00000000000E+00 0. -1.
</event>
<event>
 7    1  0.2688177E-009  0.2139412E+03  0.7561462E-02  0.1138482E+00
          1   -1    0    0  501    0  0.00000000000E+00  0.00000000000E+00  0.94339702082E+02  0.94339702082E+02  0.00000000000E+00 0.  1.
         -1   -1    0    0    0  501 -0.00000000000E+00 -0.00000000000E+00 -0.59915356109E+03  0.59915356109E+03  0.00000000000E+00 0. -1.
         25    2    1    2    0    0  0.20069852817E+02 -0.20859795735E+03 -0.22153414401E+03  0.32960692054E+03  0.12508972101E+03 0.  0.
          5    1    3    3  502    0 -0.15475393600E+02 -0.10716357557E+03 -0.34264406210E+02  0.11364436488E+03  0.41800000000E+01 0.  1.
         -5    1    3    3    0  502  0.35545246417E+02 -0.10143438177E+03 -0.18726973780E+03  0.21596255566E+03  0.41800000000E+01 0.  1.
        -11    1    1    2    0    0  0.85296166822E+01  0.63819628181E+02 -0.30648322328E+02  0.71309318910E+02  0.00000000000E+00 0.  1.
         11    1    1    2    0    0 -0.28599469500E+02  0.14477832916E+03 -0.25263139267E+03  0.29257702373E+03  0.00000000000E+00 0. -1.
</event>
<event>
 7    1  0.2688177E-009  0.9596937E+02  0.7561462E-02  0.1289008E+00
          2   -1    0    0  501    0  0.00000000000E+00  0.00000000000E+00  0.42199418116E+03  0.42199418116E+03  0.00000000000E+00 0. -1.
         -2   -1    0    0    0  501 -0.00000000000E+00 -0.00000000000E+00 -0.38779430021E+02  0.38779430021E+02  0.00000000000E+00 0.  1.
         25    2    1    2    0    0 -0.35654834465E+01 -0.32406025739E+02  0.20311363582E+03  0.24076065263E+03  0.12509068559E+03 0.  0.
          5    1    3    3  502    0  0.44238493985E+02  0.26178364528E+01  0.16326819899E+03  0.16922728686E+03  0.41800000000E+01 0.  1.
         -5    1    3    3    0  502 -0.47803977432E+02 -0.35023862192E+02  0.39845436831E+02  0.71533365763E+02  0.41800000000E+01 0.  1.
        -11    1    1    2    0    0  0.41093575283E+02  0.46816758629E+01  0.16628597705E+03  0.17135234514E+03  0.00000000000E+00 0. -1.
         11    1    1    2    0    0 -0.37528091837E+02  0.27724349876E+02  0.13815138263E+02  0.48660613418E+02  0.00000000000E+00 0.  1.
</event>
<event>
 7    1  0.2688177E-009  0.1154392E+03  0.7561462E-02  0.1250816E+00
         -2   -1    0    0    0  501 -0.00000000000E+00  0.00000000000E+00  0.17718656295E+02  0.17718656295E+02  0.00000000000E+00 0.  1.
          2   -1    0    0  501    0  0.00000000000E+00 -0.00000000000E+00 -0.97914718663E+03  0.97914718663E+03  0.00000000000E+00 0. -1.
         25    2    1    2    0    0 -0.16045850203E+02  0.71227534570E+02 -0.58460425412E+03  0.60227967283E+03  0.12509132415E+03 0.  0.
          5    1    3    3  502    0 -0.49175371512E+02  0.21224286539E+02 -0.46811523627E+03  0.47118789705E+03  0.41800000000E+01 0.  1.
         -5    1    3    3    0  502  0.33129521309E+02  0.50003248031E+02 -0.11648901785E+03  0.13109177578E+03  0.41800000000E+01 0.  1.
        -11    1    1    2    0    0  0.42373678410E+02 -0.78939488044E+02 -0.29202265398E+03  0.30545736500E+03  0.00000000000E+00 0.  1.
         11    1    1    2    0    0 -0.26327828207E+02  0.77119534744E+01 -0.84801622229E+02  0.89128805092E+02  0.00000000000E+00 0. -1.
</event>
<event>
 7    1  0.2688177E-009  0.1136119E+03  0.7561462E-02  0.1254024E+00
         -2   -1    0    0    0  501 -0.00000000000E+00  0.00000000000E+00  0.41542809150E+03  0.41542809150E+03  0.00000000000E+00 0.  1.
          2   -1    0    0  501    0  0.00000000000E+00 -0.00000000000E+00 -0.74602002162E+02  0.74602002162E+02  0.00000000000E+00 0. -1.
         25    2    1    2    0    0 -0.86900564818E+02 -0.42374252602E+02  0.31868539647E+03  0.35574654413E+03  0.12509171151E+03 0.  0.
          5    1    3    3  502    0 -0.10082249236E+03 -0.21499535222E+02  0.31315741203E+03  0.32971569888E+03  0.41800000000E+01 0. -1.
         -5    1    3    3    0  502  0.13921927544E+02 -0.20874717379E+02  0.55279844388E+01  0.26030845245E+02  0.41800000000E+01 0. -1.
        -11    1    1    2    0    0  0.61160445754E+02  0.39278627789E+02  0.55915420349E+02  0.91705752047E+02  0.00000000000E+00 0.  1.
         11    1    1    2    0    0  0.25740119064E+02  0.30956248125E+01 -0.33774727480E+02  0.42577797486E+02  0.00000000000E+00 0. -1.
</event>
<event>
 7    1  0.2688177E-009  0.9500100E+02  0.7561462E-02  0.1291174E+00
         -1   -1    0    0    0  501 -0.00000000000E+00  0.00000000000E+00  0.54432566830E+02  0.54432566830E+02  0.00000000000E+00 0.  1.
          1   -1    0    0  501    0  0.00000000000E+00 -0.00000000000E+00 -0.30350982430E+03  0.30350982430E+03  0.00000000000E+00 0. -1.
         25    2    1    2    0    0  0.51850874454E+01 -0.73816592725E+02 -0.16816549361E+03  0.22226680171E+03  0.12508846233E+03 0.  0.
          5    1    3    3  502    0 -0.15305287082E+02 -0.40070547914E+02 -0.17651313069E+03  0.18169826176E+03  0.41800000000E+01 0.  1.
         -5    1    3    3    0  502  0.20490374527E+02 -0.33746044811E+02  0.83476370786E+01  0.40568539947E+02  0.41800000000E+01 0.  1.
        -11    1    1    2    0    0 -0.41251338259E+02  0.33773105129E+02 -0.52199636742E+02  0.74612985560E+02  0.00000000000E+00 0. -1.
         11    1    1    2    0    0  0.36066250813E+02  0.40043487596E+02 -0.28712127120E+02  0.61062603861E+02  0.00000000000E+00 0.  1.
</event>
<event>
 7    1  0.2688177E-009  0.1004022E+03  0.7561462E-02  0.1279452E+00
         -2   -1    0    0    0  501 -0.00000000000E+00  0.00000000000E+00  0.12562492699E+02  0.12562492699E+02  0.00000000000E+00 0.  1.
          2   -1    0    0  501    0  0.00000000000E+00 -0.00000000000E+00 -0.25985257925E+04  0.25985257925E+04  0.00000000000E+00 0. -1.
         25    2    1    2    0    0  0.94433577358E+01 -0.69781070369E+01 -0.23958574164E+04  0.23991494647E+04  0.12509006218E+03 0.  0.
          5    1    3    3  502    0  0.53185735889E+02  0.35744515250E+02 -0.12815531212E+04  0.12831610451E+04  0.41800000000E+01 0. -1.
         -5    1    3    3    0  502 -0.43742378154E+02 -0.42722622287E+02 -0.11143042951E+04  0.11159884196E+04  0.41800000000E+01 0. -1.
        -11    1    1    2    0    0 -0.30719345441E+02  0.30703313301E+02 -0.16705387884E+03  0.17260756087E+03  0.00000000000E+00 0. -1.
         11    1    1    2    0    0  0.21275987705E+02 -0.23725206264E+02 -0.23052004598E+02  0.39331259591E+02  0.00000000000E+00 0.  1.
</event>
<event>
 7    1  0.2688177E-009  0.1755359E+03  0.7561462E-02  0.1172195E+00
          1   -1    0    0  501    0  0.00000000000E+00  0.00000000000E+00  0.10264515346E+03  0.10264515346E+03  0.00000000000E+00 0. -1.
         -1   -1    0    0    0  501 -0.00000000000E+00 -0.00000000000E+00 -0.32069222249E+03  0.32069222249E+03  0.00000000000E+00 0.  1.
         25    2    1    2    0    0  0.12849122473E+03  0.62373456375E+02 -0.14631072171E+03  0.23969768057E+03  0.12509079858E+03 0.  0.
          5    1    3    3  502    0 -0.23199003111E+02  0.84991452247E+01 -0.52038852833E+01  0.25592616844E+02  0.41800000000E+01 0.  1.
         -5    1    3    3    0  502  0.15169022785E+03  0.53874311150E+02 -0.14110683643E+03  0.21410506372E+03  0.41800000000E+01 0.  1.
        -11    1    1    2    0    0 -0.28646369506E+02 -0.58417483214E+02 -0.90714450840E+01  0.65692525807E+02  0.00000000000E+00 0. -1.
         11    1    1    2    0    0 -0.99844855229E+02 -0.39559731603E+01 -0.62664902231E+02  0.11794716958E+03  0.00000000000E+00 0.  1.
</event>
<event>
 7    1  0.2688177E-009  0.9134911E+02  0.7561462E-02  0.1299617E+00
         -1   -1    0    0    0  501 -0.00000000000E+00  0.00000000000E+00  0.37305310164E+02  0.37305310164E+02  0.00000000000E+00 0.  1.
          1   -1    0    0  501    0  0.00000000000E+00 -0.00000000000E+00 -0.36234119488E+03  0.36234119488E+03  0.00000000000E+00 0. -1.
         25    2    1    2    0    0 -0.27112115929E+01 -0.25875419129E+02 -0.13325368058E+03  0.18461650211E+03  0.12509924653E+03 0.  0.
          5    1    3    3  502    0 -0.21493198670E+02 -0.57418742955E+02 -0.18673994878E+02  0.64226630896E+02  0.41800000000E+01 0. -1.
         -5    1    3    3    0  502  0.18781987077E+02  0.31543323826E+02 -0.11457968570E+03  0.12038987122E+03  0.41800000000E+01 0. -1.
        -11    1    1    2    0    0  0.10513253831E+01 -0.29189038090E+02 -0.12544679246E+03  0.12880218541E+03  0.00000000000E+00 0. -1.
         11    1    1    2    0    0  0.16598862098E+01  0.55064457218E+02 -0.66335411680E+02  0.86227817517E+02  0.00000000000E+00 0.  1.
</event>
<event>
 7    1  0.2688177E-009  0.1294963E+03  0.7561462E-02  0.1228205E+00
          2   -1    0    0  501    0  0.00000000000E+00  0.00000000000E+00  0.47733475384E+03  0.47733475384E+03  0.00000000000E+00 0.  1.
         -2   -1    0    0    0  501 -0.00000000000E+00 -0.00000000000E+00 -0.86438000262E+02  0.86438000262E+02  0.00000000000E+00 0. -1.
         25    2    1    2    0    0 -0.94572231879E+02  0.86445092066E+01  0.39792879482E+03  0.42780019561E+03  0.12508815707E+03 0.  0.
          5    1    3    3  502    0  0.10269027136E+02  0.32057186594E+02  0.19719607672E+03  0.20009218177E+03  0.41800000000E+01 0.  1.
         -5    1    3    3    0  502 -0.10484125902E+03 -0.23412677388E+02  0.20073271810E+03  0.22770801384E+03  0.41800000000E+01 0.  1.
        -11    1    1    2    0    0  0.55425728167E+02 -0.39217212242E+02  0.29787366540E+02  0.74143700233E+02  0.00000000000E+00 0.  1.
         11    1    1    2    0    0  0.39146503713E+02  0.30572703035E+02 -0.36819407780E+02  0.61828858255E+02  0.00000000000E+00 0. -1.
</event>
<event>
 7    1  0.2688177E-009  0.1335717E+03  0.7561462E-02  0.1222250E+00
         -1   -1    0    0    0  501 -0.00000000000E+00  0.00000000000E+00  0.44954599247E+02  0.44954599247E+02  0.00000000000E+00 0.  1.
          1   -1    0    0  501    0  0.00000000000E+00 -0.00000000000E+00 -0.44213368662E+03  0.44213368662E+03  0.00000000000E+00 0. -1.
         25    2    1    2    0    0  0.20689676400E+02 -0.84757482481E+02 -0.24961286220E+03  0.29251468402E+03  0.12508543418E+03 0.  0.
          5    1    3    3  502    0  0.32851232419E+02 -0.11158883985E+03 -0.22713863483E+03  0.25522677070E+03  0.41800000000E+01 0. -1.
         -5    1    3    3    0  502 -0.12161556019E+02  0.26831357374E+02 -0.22474227372E+02  0.37287913314E+02  0.41800000000E+01 0. -1.
        -11    1    1    2    0    0  0.32645820315E+02  0.37625415184E+02 -0.90663973733E+02  0.10344746292E+03  0.00000000000E+00 0. -1.
         11    1    1    2    0    0 -0.53335496714E+02  0.47132067297E+02 -0.56902251442E+02  0.91126138932E+02  0.00000000000E+00 0.  1.
</event>
<event>
 7    1  0.2688177E-009  0.1055610E+03  0.7561462E-02  0.1269018E+00
          2   -1    0    0  501    0  0.00000000000E+00  0.00000000000E+00  0.50837082540E+03  0.50837082540E+03  0.00000000000E+00 0. -1.
         -2   -1    0    0    0  501 -0.00000000000E+00 -0.00000000000E+00 -0.27796712947E+02  0.27796712947E+02  0.00000000000E+00 0.  1.
         25    2    1    2    0    0 -0.47447413873E+02  0.44459907286E+01  0.28788082467E+03  0.31749993056E+03  0.12513917362E+03 0.  0.
          5    1    3    3  502    0 -0.55836882324E+02  0.56707051933E+02  0.15222508411E+03  0.17182373468E+03  0.41800000000E+01 0.  1.
         -5    1    3    3    0  502  0.83894684511E+01 -0.52261061204E+02  0.13565574056E+03  0.14567619588E+03  0.41800000000E+01 0.  1.
        -11    1    1    2    0    0 -0.96146182156E+01  0.15199551216E+02  0.13532628300E+01  0.18036035066E+02  0.00000000000E+00 0.  1.
         11    1    1    2    0    0  0.57062032088E+02 -0.19645541945E+02  0.19134002495E+03  0.20063157273E+03  0.00000000000E+00 0. -1.
</event>
<event>
 7    1  0.2688177E-009  0.1030280E+03  0.7561462E-02  0.1274054E+00
          1   -1    0    0  501    0  0.00000000000E+00  0.00000000000E+00  0.15440251825E+02  0.15440251825E+02  0.00000000000E+00 0. -1.
         -1   -1    0    0    0  501 -0.00000000000E+00 -0.00000000000E+00 -0.84101230602E+03  0.84101230602E+03  0.00000000000E+00 0.  1.
         25    2    1    2    0    0  0.20490071471E+02  0.27945276895E+02 -0.52550997183E+03  0.54130438676E+03  0.12509567181E+03 0.  0.
          5    1    3    3  502    0  0.63021909349E+02  0.22160317597E+02 -0.44467559791E+03  0.44968511262E+03  0.41800000000E+01 0. -1.
         -5    1    3    3    0  502 -0.42531837879E+02  0.57849592987E+01 -0.80834373912E+02  0.91619274135E+02  0.41800000000E+01 0. -1.
        -11    1    1    2    0    0 -0.46508249732E+02  0.12267005430E+02 -0.16365643810E+03  0.17057821211E+03  0.00000000000E+00 0.  1.
         11    1    1    2    0    0  0.26018178261E+02 -0.40212282325E+02 -0.13640564428E+03  0.14456995898E+03  0.00000000000E+00 0. -1.
</event>
<event>
 7    1  0.2688177E-009  0.9580995E+02  0.7561462E-02  0.1289362E+00
         -4   -1    0    0    0  501 -0.00000000000E+00  0.00000000000E+00  0.25292117033E+03  0.25292117033E+03  0.00000000000E+00 0.  1.
          4   -1    0    0  501    0  0.00000000000E+00 -0.00000000000E+00 -0.77820469330E+02  0.77820469330E+02  0.00000000000E+00 0. -1.
         25    2    1    2    0    0  0.18552317474E+02 -0.85882310510E+02  0.81310542954E+02  0.17314058468E+03  0.12508516269E+03 0.  0.
          5    1    3    3  502    0  0.16264731441E+02 -0.36744523406E+02  0.10920381002E+03  0.11643730507E+03  0.41800000000E+01 0. -1.
         -5    1    3    3    0  502  0.22875860328E+01 -0.49137787104E+02 -0.27893267062E+02  0.56703279611E+02  0.41800000000E+01 0. -1.
        -11    1    1    2    0    0 -0.33740670658E+02  0.77447568227E+02  0.10660048215E+03  0.13601551924E+03  0.00000000000E+00 0. -1.
         11    1    1    2    0    0  0.15188353184E+02  0.84347422830E+01 -0.12810324097E+02  0.21585535743E+02  0.00000000000E+00 0.  1.
</event>
<event>
 7    1  0.2688177E-009  0.1149326E+03  0.7561462E-02  0.1251699E+00
          1   -1    0    0  501    0  0.00000000000E+00  0.00000000000E+00  0.31292507791E+03  0.31292507791E+03  0.00000000000E+00 0. -1.
         -1   -1    0    0    0  501 -0.00000000000E+00 -0.00000000000E+00 -0.66482799750E+02  0.66482799750E+02  0.00000000000E+00 0.  1.
         25    2    1    2    0    0  0.41812209100E+02  0.83669938845E+02  0.14688451961E+03  0.21440793278E+03  0.12508708982E+03 0.  0.
          5    1    3    3  502    0  0.14554803044E+02  0.79691214731E+02  0.16310924573E+03  0.18216649099E+03  0.41800000000E+01 0.  1.
         -5    1    3    3    0  502  0.27257406056E+02  0.39787241147E+01 -0.16224726121E+02  0.32241441783E+02  0.41800000000E+01 0.  1.
        -11    1    1    2    0    0  0.18613099309E+02 -0.46144848828E+02  0.10205427860E+02  0.50793161913E+02  0.00000000000E+00 0.  1.
         11    1    1    2    0    0 -0.60425308410E+02 -0.37525090017E+02  0.89352330684E+02  0.11420678297E+03  0.00000000000E+00 0. -1.
</event>
<event>
 7    1  0.2688177E-009  0.2116331E+03  0.7561462E-02  0.1140279E+00
          2   -1    0    0  501    0  0.00000000000E+00  0.00000000000E+00  0.11552996827E+04  0.11552996827E+04  0.00000000000E+00 0. -1.
         -2   -1    0    0    0  501 -0.00000000000E+00 -0.00000000000E+00 -0.58217627606E+02  0.58217627606E+02  0.00000000000E+00 0.  1.
         25    2    1    2    0    0  0.16546308546E+03 -0.12433727676E+03  0.30440643202E+03  0.38877731064E+03  0.12508689129E+03 0.  0.
          5    1    3    3  502    0  0.43428894161E+02 -0.47602666337E+02  0.20154827471E+03  0.21163946260E+03  0.41800000000E+01 0. -1.
         -5    1    3    3    0  502  0.12203419130E+03 -0.76734610423E+02  0.10285815730E+03  0.17713784804E+03  0.41800000000E+01 0. -1.
        -11    1    1    2    0    0 -0.10356365963E+03  0.10971966644E+03  0.41135485338E+03  0.43815140328E+03  0.00000000000E+00 0.  1.
         11    1    1    2    0    0 -0.61899425833E+02  0.14617610321E+02  0.38132076966E+03  0.38658859635E+03  0.00000000000E+00 0. -1.
</event>
<event>
 7    1  0.2688177E-009  0.1094500E+03  0.7561462E-02  0.1261592E+00
          4   -1    0    0  501    0  0.00000000000E+00  0.00000000000E+00  0.16273888887E+03  0.16273888887E+03  0.00000000000E+00 0. -1.
         -4   -1    0    0    0  501 -0.00000000000E+00 -0.00000000000E+00 -0.13655630528E+03  0.13655630528E+03  0.00000000000E+00 0.  1.
         25    2    1    2    0    0  0.78346861641E+02 -0.60664341684E+02 -0.58515854084E+01  0.15968804901E+03  0.12509052268E+03 0.  0.
          5    1    3    3  502    0  0.41328494284E+01 -0.42166467530E+02 -0.54340219539E+02  0.69032045370E+02  0.41800000000E+01 0.  1.
         -5    1    3    3    0  502  0.74214012212E+02 -0.18497874154E+02  0.48488634131E+02  0.90656003644E+02  0.41800000000E+01 0.  1.
        -11    1    1    2    0    0 -0.13586763841E+02  0.16340678168E+02  0.54069891557E+02  0.58096222662E+02  0.00000000000E+00 0. -1.
         11    1    1    2    0    0 -0.64760097800E+02  0.44323663516E+02 -0.22035722549E+02  0.81510922475E+02  0.00000000000E+00 0.  1.
</event>
<event>
 7    1  0.2688177E-009  0.1939397E+03  0.7561462E-02  0.1154955E+00
         -1   -1    0    0    0  501 -0.00000000000E+00  0.00000000000E+00  0.10187984284E+03  0.10187984284E+03  0.00000000000E+00 0.  1.
          1   -1    0    0  501    0  0.00000000000E+00 -0.00000000000E+00 -0.52951960416E+03  0.52951960416E+03  0.00000000000E+00 0. -1.
         25    2    1    2    0    0  0.15270686719E+03  0.64904321175E+02 -0.57168369703E+02  0.21552019063E+03  0.12509505138E+03 0.  0.
          5    1    3    3  502    0  0.36142904217E+02 -0.37711478440E+02 -0.12482163884E+02  0.53867819212E+02  0.41800000000E+01 0. -1.
         -5    1    3    3    0  502  0.11656396298E+03  0.10261579962E+03 -0.44686205819E+02  0.16165237142E+03  0.41800000000E+01 0. -1.
        -11    1    1    2    0    0 -0.13955308123E+03 -0.29886198614E+02 -0.33582362031E+03  0.36489142400E+03  0.00000000000E+00 0.  1.
         11    1    1    2    0    0 -0.13153785963E+02 -0.35018122561E+02 -0.34647771304E+02  0.50987832364E+02  0.00000000000E+00 0. -1.
</event>
<event>
 7    1  0.2688177E-009  0.3994753E+03  0.7561462E-02  0.1043961E+00
         -1   -1    0    0    0  501 -0.00000000000E+00  0.00000000000E+00  0.25458868961E+03  0.25458868961E+03  0.00000000000E+00 0.  1.
          1   -1    0    0  501    0  0.00000000000E+00 -0.00000000000E+00 -0.87962733877E+03  0.87962733877E+03  0.00000000000E+00 0. -1.
         25    2    1    2    0    0  0.15438490449E+03  0.36256344643E+03 -0.60038058270E+03  0.72896538208E+03  0.12508690088E+03 0.  0.
          5    1    3    3  502    0 -0.52845030012E+01  0.74979190718E+02 -0.59727443205E+02  0.96097059708E+02  0.41800000000E+01 0. -1.
         -5    1    3    3    0  502  0.15966940749E+03  0.28758425571E+03 -0.54065313949E+03  0.63286832237E+03  0.41800000000E+01 0. -1.
        -11    1    1    2    0    0 -0.11942933303E+03 -0.30233989655E+03  0.14435873993E+02  0.32539387377E+03  0.00000000000E+00 0.  1.
         11    1    1    2    0    0 -0.34955571460E+02 -0.60223549886E+02 -0.39093940458E+02  0.79856772521E+02  0.00000000000E+00 0. -1.
</event>
<event>
 7    1  0.2688177E-009  0.8587253E+02  0.7561462E-02  0.1313166E+00
          1   -1    0    0  501    0  0.00000000000E+00  0.00000000000E+00  0.15493639611E+03  0.15493639611E+03  0.00000000000E+00 0. -1.
         -1   -1    0    0    0  501 -0.00000000000E+00 -0.00000000000E+00 -0.10093868478E+03  0.10093868478E+03  0.00000000000E+00 0.  1.
         25    2    1    2    0    0 -0.59251379556E+02 -0.14583920154E+02  0.77712886076E+01  0.13940541847E+03  0.12510020410E+03 0.  0.
          5    1    3    3  502    0 -0.36360201310E+02 -0.30212905757E+02  0.62167081385E+02  0.78211906520E+02  0.41800000000E+01 0. -1.
         -5    1    3    3    0  502 -0.22891178246E+02  0.15628985604E+02 -0.54395792778E+02  0.61193511947E+02  0.41800000000E+01 0. -1.
        -11    1    1    2    0    0  0.12131457420E+02  0.40639045795E+02  0.46078920366E+02  0.62625643345E+02  0.00000000000E+00 0. -1.
         11    1    1    2    0    0  0.47119922136E+02 -0.26055125641E+02  0.14750235941E+00  0.53844019085E+02  0.00000000000E+00 0.  1.
</event>
<event>
 7    1  0.2688177E-009  0.1030209E+03  0.7561462E-02  0.1274069E+00
         -2   -1    0    0    0  501 -0.00000000000E+00  0.00000000000E+00  0.68768372538E+02  0.68768372538E+02  0.00000000000E+00 0. -1.
          2   -1    0    0  501    0  0.00000000000E+00 -0.00000000000E+00 -0.35936712900E+03  0.35936712900E+03  0.00000000000E+00 0.  1.
         25    2    1    2    0    0  0.84985195475E+02 -0.11427322436E+02 -0.54306690518E+02  0.16109395630E+03  0.12509587913E+03 0.  0.
          5    1    3    3  502    0  0.26169163583E+02 -0.18270982234E+02 -0.87395177529E+02  0.93134544449E+02  0.41800000000E+01 0.  1.
         -5    1    3    3    0  502  0.58816031892E+02  0.68436597987E+01  0.33088487011E+02  0.67959411855E+02  0.41800000000E+01 0.  1.
        -11    1    1    2    0    0 -0.32580938921E+02  0.42513235055E+02 -0.16384851515E+03  0.17238105654E+03  0.00000000000E+00 0.  1.
         11    1    1    2    0    0 -0.52404256554E+02 -0.31085912619E+02 -0.72443550787E+02  0.94660488690E+02  0.00000000000E+00 0. -1.
</event>
<event>
 7    1  0.2688177E-009  0.1025582E+03  0.7561462E-02  0.1275007E+00
         -2   -1    0    0    0  501 -0.00000000000E+00  0.00000000000E+00  0.56794081595E+02  0.56794081595E+02  0.00000000000E+00 0.  1.
          2   -1    0    0  501    0  0.00000000000E+00 -0.00000000000E+00 -0.22719121088E+03  0.22719121088E+03  0.00000000000E+00 0. -1.
         25    2    1    2    0    0  0.41581680578E+01  0.24440072252E+02 -0.70385247865E+02  0.14565745046E+03  0.12508957696E+03 0.  0.
          5    1    3    3  502    0 -0.52080812404E+02  0.12229835228E+02  0.12483838530E+01  0.53675047765E+02  0.41800000000E+01 0.  1.
         -5    1    3    3    0  502  0.56238980462E+02  0.12210237025E+02 -0.71633631718E+02  0.91982402690E+02  0.41800000000E+01 0.  1.
        -11    1    1    2    0    0  0.22719290260E+02 -0.51084627544E+02 -0.72426332560E+02  0.91495240146E+02  0.00000000000E+00 0.  1.
         11    1    1    2    0    0 -0.26877458318E+02  0.26644555292E+02 -0.27585548862E+02  0.46832601875E+02  0.00000000000E+00 0. -1.
</event>
<event>
 7    1  0.2688177E-009  0.8894996E+02  0.7561462E-02  0.1305415E+00
          2   -1    0    0  501    0  0.00000000000E+00  0.00000000000E+00  0.19000900855E+03  0.19000900855E+03  0.00000000000E+00 0. -1.
         -2   -1    0    0    0  501 -0.00000000000E+00 -0.00000000000E+00 -0.13983660739E+03  0.13983660739E+03  0.00000000000E+00 0.  1.
         25    2    1    2    0    0  0.30772015002E+02  0.22341892885E+02  0.14234081058E+03  0.19327291131E+03  0.12508970703E+03 0.  0.
          5    1    3    3  502    0  0.22566919707E+02 -0.23572149894E+02 -0.96063683807E+01  0.34273412861E+02  0.41800000000E+01 0.  1.
         -5    1    3    3    0  502  0.82050952945E+01  0.45914042779E+02  0.15194717896E+03  0.15899949845E+03  0.41800000000E+01 0.  1.
        -11    1    1    2    0    0  0.31469442444E+02 -0.16829318165E+02 -0.19262380894E+02  0.40553558110E+02  0.00000000000E+00 0.  1.
         11    1    1    2    0    0 -0.62241457446E+02 -0.55125747200E+01 -0.72906028516E+02  0.96019146524E+02  0.00000000000E+00 0. -1.
</event>
<event>
 7    1  0.2688177E-009  0.1077411E+03  0.7561462E-02  0.1264811E+00
         -1   -1    0    0    0  501 -0.00000000000E+00  0.00000000000E+00  0.30437006701E+03  0.30437006701E+03  0.00000000000E+00 0. -1.
          1   -1    0    0  501    0  0.00000000000E+00 -0.00000000000E+00 -0.71631475565E+02  0.71631475565E+02  0.00000000000E+00 0.  1.
         25    2    1    2    0    0 -0.83323844808E+01 -0.69699782512E+02  0.36119342655E+02  0.14790893774E+03  0.12507980907E+03 0.  0.
          5    1    3    3  502    0 -0.42661229996E+01  0.21042094134E+02  0.51256481094E+02  0.55728527571E+02  0.41800000000E+01 0.  1.
         -5    1    3    3    0  502 -0.40662614812E+01 -0.90741876646E+02 -0.15137138440E+02  0.92180410174E+02  0.41800000000E+01 0.  1.
        -11    1    1    2    0    0 -0.31602675841E+02  0.15075613750E+02  0.23366844005E+02  0.42095280603E+02  0.00000000000E+00 0.  1.
         11    1    1    2    0    0  0.39935060322E+02  0.54624168761E+02  0.17325240478E+03  0.18599732422E+03  0.00000000000E+00 0. -1.
</event>
<event>
 7    1  0.2688177E-009  0.1081666E+03  0.7561462E-02  0.1264003E+00
         -1   -1    0    0    0  501 -0.00000000000E+00  0.00000000000E+00  0.64038424451E+02  0.64038424451E+02  0.00000000000E+00 0.  1.
          1   -1    0    0  501    0  0.00000000000E+00 -0.00000000000E+00 -0.27215079275E+03  0.27215079275E+03  0.00000000000E+00 0. -1.
         25    2    1    2    0    0  0.53883647165E+02  0.44319643724E+02 -0.16615202309E+03  0.21936813699E+03  0.12509279155E+03 0.  0.
          5    1    3    3  502    0  0.82862211471E+02  0.11520108182E+02 -0.55981097569E+02  0.10074827377E+03  0.41800000000E+01 0. -1.
         -5    1    3    3    0  502 -0.28978564306E+02  0.32799535542E+02 -0.11017092552E+03  0.11861986322E+03  0.41800000000E+01 0. -1.
        -11    1    1    2    0    0 -0.40490466807E+02  0.18475796788E+01  0.14153162621E+02  0.42932545524E+02  0.00000000000E+00 0.  1.
         11    1    1    2    0    0 -0.13393180358E+02 -0.46167223403E+02 -0.56113507831E+02  0.73888534685E+02  0.00000000000E+00 0. -1.
</event>
<event>
 7    1  0.2688177E-009  0.1214098E+03  0.7561462E-02  0.1240789E+00
         -3   -1    0    0    0  501 -0.00000000000E+00  0.00000000000E+00  0.19447888517E+03  0.19447888517E+03  0.00000000000E+00 0.  1.
          3   -1    0    0  501    0  0.00000000000E+00 -0.00000000000E+00 -0.96042510670E+02  0.96042510670E+02  0.00000000000E+00 0. -1.
         25    2    1    2    0    0 -0.43052015546E+02  0.58200993148E+02  0.10323082143E+03  0.17760717056E+03  0.12508746098E+03 0.  0.
          5    1    3    3  502    0 -0.82734894398E+02  0.34121237673E+02  0.94448388641E+02  0.13018176573E+03  0.41800000000E+01 0. -1.
         -5    1    3    3    0  502  0.39682878852E+02  0.24079755474E+02  0.87824327910E+01  0.47425404831E+02  0.41800000000E+01 0. -1.
        -11    1    1    2    0    0 -0.15214891672E+02  0.90005650413E+01 -0.15264147760E+02  0.23355883766E+02  0.00000000000E+00 0. -1.
         11    1    1    2    0    0  0.58266907218E+02 -0.67201558189E+02  0.10469700832E+02  0.89558341517E+02  0.00000000000E+00 0.  1.
</event>
<event>
 7    1  0.2688177E-009  0.1859737E+03  0.7561462E-02  0.1162144E+00
          4   -1    0    0  501    0  0.00000000000E+00  0.00000000000E+00  0.61383732462E+03  0.61383732462E+03  0.00000000000E+00 0. -1.
         -4   -1    0    0    0  501 -0.00000000000E+00 -0.00000000000E+00 -0.72353029690E+02  0.72353029690E+02  0.00000000000E+00 0.  1.
         25    2    1    2    0    0  0.29002922857E+02 -0.17754285370E+03  0.29517629020E+03  0.36761326661E+03  0.12509131486E+03 0.  0.
          5    1    3    3  502    0  0.27954744209E+00 -0.79619983800E+02  0.33080243538E+02  0.86320303982E+02  0.41800000000E+01 0.  1.
         -5    1    3    3    0  502  0.28723375415E+02 -0.97922869896E+02  0.26209604667E+03  0.28129296263E+03  0.41800000000E+01 0.  1.
        -11    1    1    2    0    0 -0.31449432098E+02  0.33241047750E+02  0.11377703268E+03  0.12263460850E+03  0.00000000000E+00 0. -1.
         11    1    1    2    0    0  0.24465092407E+01  0.14430180595E+03  0.13253097204E+03  0.19594247921E+03  0.00000000000E+00 0.  1.
</event>
<event>
 7    1  0.2688177E-009  0.8967186E+02  0.7561462E-02  0.1303648E+00
         -1   -1    0    0    0  501 -0.00000000000E+00  0.00000000000E+00  0.18142848888E+03  0.18142848888E+03  0.00000000000E+00 0.  1.
          1   -1    0    0  501    0  0.00000000000E+00 -0.00000000000E+00 -0.66003669181E+02  0.66003669181E+02  0.00000000000E+00 0. -1.
         25    2    1    2    0    0 -0.46748976399E+01 -0.25419518887E+01  0.52207675631E+02  0.13565157606E+03  0.12508953795E+03 0.  0.
          5    1    3    3  502    0 -0.12869982795E+01 -0.44591255853E+02  0.75117344615E+02  0.87464989139E+02  0.41800000000E+01 0. -1.
         -5    1    3    3    0  502 -0.33878993604E+01  0.42049303964E+02 -0.22909668983E+02  0.48186586919E+02  0.41800000000E+01 0. -1.
        -11    1    1    2    0    0  0.28329035089E+02 -0.36678583044E+02  0.33460033109E+02  0.57161407425E+02  0.00000000000E+00 0.  1.
         11    1    1    2    0    0 -0.23654137450E+02  0.39220534933E+02  0.29757110959E+02  0.54619174577E+02  0.00000000000E+00 0. -1.
</event>
<event>
 7    1  0.2688177E-009  0.1125634E+03  0.7561462E-02  0.1255895E+00
         -1   -1    0    0    0  501 -0.00000000000E+00  0.00000000000E+00  0.21550242776E+02  0.21550242776E+02  0.00000000000E+00 0.  1.
          1   -1    0    0  501    0  0.00000000000E+00 -0.00000000000E+00 -0.79917610250E+03  0.79917610250E+03  0.00000000000E+00 0. -1.
         25    2    1    2    0    0 -0.68528008144E+02 -0.61547600521E+01 -0.33440471760E+03  0.36360447695E+03  0.12509089309E+03 0.  0.
          5    1    3    3  502    0 -0.89331356801E+02  0.56376019113E+01 -0.32572198811E+03  0.33782267509E+03  0.41800000000E+01 0. -1.
         -5    1    3    3    0  502  0.20803348657E+02 -0.11792361963E+02 -0.86827294890E+01  0.25781801865E+02  0.41800000000E+01 0. -1.
        -11    1    1    2    0    0  0.82469751345E+02 -0.17012078398E+02 -0.31343485058E+03  0.32454903521E+03  0.00000000000E+00 0.  1.
         11    1    1    2    0    0 -0.13941743200E+02  0.23166838450E+02 -0.12978629154E+03  0.13257283311E+03  0.00000000000E+00 0. -1.
</event>
<event>
 7    1  0.2688177E-009  0.1085184E+03  0.7561462E-02  0.1263338E+00
          1   -1    0    0  501    0  0.00000000000E+00  0.00000000000E+00  0.12400301252E+03  0.12400301252E+03  0.00000000000E+00 0. -1.
         -1   -1    0    0    0  501 -0.00000000000E+00 -0.00000000000E+00 -0.13550871105E+03  0.13550871105E+03  0.00000000000E+00 0.  1.
         25    2    1    2    0    0 -0.44286052410E+02  0.40932642394E+02  0.38160503636E+02  0.14401659956E+03  0.12509125174E+03 0.  0.
          5    1    3    3  502    0 -0.68967607055E+02  0.61856335240E+02 -0.13875460036E+01  0.92747693859E+02  0.41800000000E+01 0.  1.
         -5    1    3    3    0  502  0.24681554645E+02 -0.20923692846E+02  0.39548049639E+02  0.51268905706E+02  0.41800000000E+01 0.  1.
        -11    1    1    2    0    0 -0.69693806499E+01  0.14553773689E+02  0.10218586408E+02  0.19099845639E+02  0.00000000000E+00 0.  1.
         11    1    1    2    0    0  0.51255433060E+02 -0.55486416083E+02 -0.59884788582E+02  0.96395278367E+02  0.00000000000E+00 0. -1.
</event>
<event>
 7    1  0.2688177E-009  0.2203973E+03  0.7561462E-02  0.1133587E+00
         -1   -1    0    0    0  501 -0.00000000000E+00  0.00000000000E+00  0.93459722648E+02  0.93459722648E+02  0.00000000000E+00 0.  1.
          1   -1    0    0  501    0  0.00000000000E+00 -0.00000000000E+00 -0.63224236264E+03  0.63224236264E+03  0.00000000000E+00 0. -1.
         25    2    1    2    0    0  0.15165336298E+03 -0.14851161369E+03 -0.20882115746E+03  0.32296459712E+03  0.12508162649E+03 0.  0.
          5    1    3    3  502    0  0.41396532689E+02 -0.31149341482E+02 -0.13712711342E+03  0.14664675935E+03  0.41800000000E+01 0. -1.
         -5    1    3    3    0  502  0.11025683030E+03 -0.11736227221E+03 -0.71694044042E+02  0.17631783777E+03  0.41800000000E+01 0. -1.
        -11    1    1    2    0    0 -0.20705934215E+02  0.74491333166E+02 -0.14506978781E+03  0.16438654982E+03  0.00000000000E+00 0. -1.
         11    1    1    2    0    0 -0.13094742877E+03  0.74020280528E+02 -0.18489169472E+03  0.23835093834E+03  0.00000000000E+00 0.  1.
</event>
<event>
 7    1  0.2688177E-009  0.1122790E+03  0.7561462E-02  0.1256407E+00
         -2   -1    0    0    0  501 -0.00000000000E+00  0.00000000000E+00  0.36468073420E+02  0.36468073420E+02  0.00000000000E+00 0.  1.
          2   -1    0    0  501    0  0.00000000000E+00 -0.00000000000E+00 -0.37194861198E+03  0.37194861198E+03  0.00000000000E+00 0. -1.
         25    2    1    2    0    0 -0.22550311767E+02 -0.26777148608E+02 -0.22942374830E+03  0.26364678743E+03  0.12509532361E+03 0.  0.
          5    1    3    3  502    0 -0.14726218388E+02 -0.76455578402E+02 -0.11944125073E+03  0.14263941164E+03  0.41800000000E+01 0. -1.
         -5    1    3    3    0  502 -0.78240933787E+01  0.49678429794E+02 -0.10998249757E+03  0.12100737579E+03  0.41800000000E+01 0. -1.
        -11    1    1    2    0    0  0.57417959008E+02  0.15466673894E+02 -0.80511122374E+02  0.10009036339E+03  0.00000000000E+00 0. -1.
         11    1    1    2    0    0 -0.34867647242E+02  0.11310474714E+02 -0.25545667885E+02  0.44679534578E+02  0.00000000000E+00 0.  1.
</event>
<event>
 7    1  0.2688177E-009  0.1003744E+03  0.7561462E-02  0.1279511E+00
         -2   -1    0    0    0  501 -0.00000000000E+00  0.00000000000E+00  0.51430266199E+02  0.51430266199E+02  0.00000000000E+00 0.  1.
          2   -1    0    0  501    0  0.00000000000E+00 -0.00000000000E+00 -0.35721897308E+03  0.35721897308E+03  0.00000000000E+00 0. -1.
         25    2    1    2    0    0 -0.52317981975E+02 -0.42262052857E+02 -0.23848417987E+03  0.27758507985E+03  0.12512202106E+03 0.  0.
          5    1    3    3  502    0 -0.23954259018E+02 -0.72553232545E+02 -0.21815697840E+03  0.23118762446E+03  0.41800000000E+01 0. -1.
         -5    1    3    3    0  502 -0.28363722957E+02  0.30291179688E+02 -0.20327201474E+02  0.46397455390E+02  0.41800000000E+01 0. -1.
        -11    1    1    2    0    0  0.39811852121E+02  0.14520123541E+01  0.11480712045E+02  0.41459602727E+02  0.00000000000E+00 0.  1.
         11    1    1    2    0    0  0.12506129854E+02  0.40810040503E+02 -0.78785239048E+02  0.89604556701E+02  0.00000000000E+00 0. -1.
</event>
<event>
 7    1  0.2688177E-009  0.2831253E+03  0.7561462E-02  0.1093994E+00
         -1   -1    0    0    0  501 -0.00000000000E+00  0.00000000000E+00  0.11402720025E+03  0.11402720025E+03  0.00000000000E+00 0.  1.
          1   -1    0    0  501    0  0.00000000000E+00 -0.00000000000E+00 -0.85411283509E+03  0.85411283509E+03  0.00000000000E+00 0. -1.
         25    2    1    2    0    0 -0.19064226949E+02  0.26551026567E+03 -0.57594164669E+03  0.64669591678E+03  0.12509069695E+03 0.  0.
          5    1    3    3  502    0 -0.28966471019E+01  0.27269079740E+03 -0.55833796275E+03  0.62139151474E+03  0.41800000000E+01 0. -1.
         -5    1    3    3    0  502 -0.16167579847E+02 -0.71805317324E+01 -0.17603683948E+02  0.25304402041E+02  0.41800000000E+01 0. -1.
        -11    1    1    2    0    0  0.44415534688E+02 -0.20448989071E+03 -0.11251617133E+03  0.23758944408E+03  0.00000000000E+00 0.  1.
         11    1    1    2    0    0 -0.25351307738E+02 -0.61020374958E+02 -0.51627816814E+02  0.83854674485E+02  0.00000000000E+00 0. -1.
</event>
<event>
 7    1  0.2688177E-009  0.1276093E+03  0.7561462E-02  0.1231047E+00
         -2   -1    0    0    0  501 -0.00000000000E+00  0.00000000000E+00  0.55558609511E+02  0.55558609511E+02  0.00000000000E+00 0.  1.
          2   -1    0    0  501    0  0.00000000000E+00 -0.00000000000E+00 -0.45924172918E+03  0.45924172918E+03  0.00000000000E+00 0. -1.
         25    2    1    2    0    0  0.54097536074E+02  0.10336915635E+03 -0.19097117085E+03  0.25637753653E+03  0.12509087595E+03 0.  0.
          5    1    3    3  502    0  0.63930116834E+02  0.96624128450E+02 -0.71434708726E+02  0.13617515209E+03  0.41800000000E+01 0. -1.
         -5    1    3    3    0  502 -0.98325807591E+01  0.67450278987E+01 -0.11953646213E+03  0.12020238444E+03  0.41800000000E+01 0. -1.
        -11    1    1    2    0    0  0.57667112380E+01 -0.36274854554E+02 -0.13392483152E+03  0.13887037311E+03  0.00000000000E+00 0.  1.
         11    1    1    2    0    0 -0.59864247312E+02 -0.67094301795E+02 -0.78787117298E+02  0.11955242905E+03  0.00000000000E+00 0. -1.
</event>
<event>
 7    1  0.2688177E-009  0.8783662E+02  0.7561462E-02  0.1308177E+00
          2   -1    0    0  501    0  0.00000000000E+00  0.00000000000E+00  0.42603099652E+03  0.42603099652E+03  0.00000000000E+00 0.  1.
         -2   -1    0    0    0  501 -0.00000000000E+00 -0.00000000000E+00 -0.33018456167E+02  0.33018456167E+02  0.00000000000E+00 0. -1.
         25    2    1    2    0    0 -0.25008406162E+02  0.25499943266E+02  0.28983224512E+03  0.31769564063E+03  0.12510844207E+03 0.  0.
          5    1    3    3  502    0  0.41335170099E+01 -0.23836999082E+02  0.25027653369E+01  0.24678426255E+02  0.41800000000E+01 0. -1.
         -5    1    3    3    0  502 -0.29141923172E+02  0.49336942348E+02  0.28732947978E+03  0.29301721437E+03  0.41800000000E+01 0. -1.
        -11    1    1    2    0    0 -0.31466300289E+02 -0.19157192012E+02  0.58190663088E+02  0.68871469639E+02  0.00000000000E+00 0. -1.
         11    1    1    2    0    0  0.56474706451E+02 -0.63427512542E+01  0.44989632146E+02  0.72482342421E+02  0.00000000000E+00 0.  1.
</event>
<event>
 6    1  0.2688177E-009  0.7807320E+02  0.7561462E-02  0.1334610E+00
          1   -1    0    0  501    0  0.00000000000E+00  0.00000000000E+00  0.11960065400E+04  0.11960065400E+04  0.00000000000E+00 0. -1.
         -1   -1    0    0    0  501 -0.00000000000E+00 -0.00000000000E+00 -0.20793400428E+02  0.20793400428E+02  0.00000000000E+00 0.  1.
          5    1    1    2  502    0  0.97676732099E+01 -0.59372931808E+02  0.31397520900E+03  0.31971621282E+03  0.41800000000E+01 0.  1.
         -5    1    1    2    0  502 -0.20873025801E+02  0.46214301676E+02  0.74839414456E+03  0.75012179871E+03  0.41800000000E+01 0.  1.
        -11    1    1    2    0    0 -0.15621854758E+02  0.86100262487E+01 -0.10483317030E+02  0.20689969406E+02  0.00000000000E+00 0.  1.
         11    1    1    2    0    0  0.26727207350E+02  0.45486038831E+01  0.12332710300E+03  0.12627195945E+03  0.00000000000E+00 0. -1.
</event>
<event>
 7    1  0.2688177E-009  0.1067638E+03  0.7561462E-02  0.1266683E+00
          2   -1    0    0  501    0  0.00000000000E+00  0.00000000000E+00  0.31308697356E+03  0.31308697356E+03  0.00000000000E+00 0. -1.
         -2   -1    0    0    0  501 -0.00000000000E+00 -0.00000000000E+00 -0.43356098209E+02  0.43356098209E+02  0.00000000000E+00 0.  1.
         25    2    1    2    0    0  0.25412888867E+02 -0.65238690985E+01  0.20108355424E+03  0.23826459189E+03  0.12508814561E+03 0.  0.
          5    1    3    3  502    0 -0.49311316101E+02 -0.42649675353E+01  0.10744533015E+03  0.11837131077E+03  0.41800000000E+01 0. -1.
         -5    1    3    3    0  502  0.74724204968E+02 -0.22589015632E+01  0.93638224092E+02  0.11989328111E+03  0.41800000000E+01 0. -1.
        -11    1    1    2    0    0  0.68092551053E+01  0.41133650084E+02  0.54892149437E+02  0.68931061171E+02  0.00000000000E+00 0. -1.
         11    1    1    2    0    0 -0.32222143972E+02 -0.34609780985E+02  0.13755171670E+02  0.49247418711E+02  0.00000000000E+00 0.  1.
</event>
<event>
 7    1  0.2688177E-009  0.1024842E+03  0.7561462E-02  0.1275157E+00
         -2   -1    0    0    0  501 -0.00000000000E+00  0.00000000000E+00  0.15362314851E+03  0.15362314851E+03  0.00000000000E+00 0.  1.
          2   -1    0    0  501    0  0.00000000000E+00 -0.00000000000E+00 -0.98427022757E+02  0.98427022757E+02  0.00000000000E+00 0. -1.
         25    2    1    2    0    0 -0.49111809861E+02 -0.15276802204E+02  0.34758524011E+01  0.13530045660E+03  0.12509508964E+03 0.  0.
          5    1    3    3  502    0  0.22558535395E+02  0.10046751180E+02  0.42820096670E+02  0.49607033848E+02  0.41800000000E+01 0.  1.
         -5    1    3    3    0  502 -0.71670345256E+02 -0.25323553384E+02 -0.39344244269E+02  0.85693422747E+02  0.41800000000E+01 0.  1.
        -11    1    1    2    0    0  0.75777328893E+02  0.14278837344E+02  0.44809786294E+02  0.89185232622E+02  0.00000000000E+00 0.  1.
         11    1    1    2    0    0 -0.26665519032E+02  0.99796485959E+00  0.69104870544E+01  0.27564482046E+02  0.00000000000E+00 0. -1.
</event>
<event>
 7    1  0.2688177E-009  0.1152041E+03  0.7561462E-02  0.1251225E+00
         -1   -1    0    0    0  501 -0.00000000000E+00  0.00000000000E+00  0.54432834192E+02  0.54432834192E+02  0.00000000000E+00 0.  1.
          1   -1    0    0  501    0  0.00000000000E+00 -0.00000000000E+00 -0.35036395611E+03  0.35036395611E+03  0.00000000000E+00 0. -1.
         25    2    1    2    0    0 -0.33024813674E+02 -0.53249896101E+02 -0.24564324929E+03  0.28269002648E+03  0.12508739105E+03 0.  0.
          5    1    3    3  502    0  0.44095650150E+02 -0.33955882404E+01 -0.11195310303E+03  0.12044470125E+03  0.41800000000E+01 0.  1.
         -5    1    3    3    0  502 -0.77120463823E+02 -0.49854307861E+02 -0.13369014627E+03  0.16224532524E+03  0.41800000000E+01 0.  1.
        -11    1    1    2    0    0  0.53746648197E+02  0.49362555809E+02 -0.63911008587E+02  0.97005057224E+02  0.00000000000E+00 0. -1.
         11    1    1    2    0    0 -0.20721834524E+02  0.38873402926E+01  0.13623135959E+02  0.25101706594E+02  0.00000000000E+00 0.  1.
</event>
<event>
 7    1  0.2688177E-009  0.1445078E+03  0.7561462E-02  0.1207389E+00
          2   -1    0    0  501    0  0.00000000000E+00  0.00000000000E+00  0.27969386542E+03  0.27969386542E+03  0.00000000000E+00 0.  1.
         -2   -1    0    0    0  501 -0.00000000000E+00 -0.00000000000E+00 -0.96987813286E+02  0.96987813286E+02  0.00000000000E+00 0. -1.
         25    2    1    2    0    0 -0.12381553466E+03  0.32947847583E+02  0.11195590857E+03  0.21118424710E+03  0.12509521763E+03 0.  0.
          5    1    3    3  502    0  0.79796717525E+01  0.19222181196E+02 -0.16269400390E+02  0.26745713680E+02  0.41800000000E+01 0.  1.
         -5    1    3    3    0  502 -0.13179520642E+03  0.13725666387E+02  0.12822530896E+03  0.18443853342E+03  0.41800000000E+01 0.  1.
        -11    1    1    2    0    0  0.64945657695E+02  0.50561660882E+01  0.69722536457E+02  0.95418736938E+02  0.00000000000E+00 0.  1.
         11    1    1    2    0    0  0.58869876970E+02 -0.38004013671E+02  0.10276071019E+01  0.70078694665E+02  0.00000000000E+00 0. -1.
</event>
<event>
 7    1  0.2688177E-009  0.8389237E+02  0.7561462E-02  0.1318355E+00
         -2   -1    0    0    0  501 -0.00000000000E+00  0.00000000000E+00  0.88491551778E+02  0.88491551778E+02  0.00000000000E+00 0.  1.
          2   -1    0    0  501    0  0.00000000000E+00 -0.00000000000E+00 -0.15632059496E+03  0.15632059496E+03  0.00000000000E+00 0. -1.
         25    2    1    2    0    0  0.37241650664E+01  0.44942536530E+02 -0.45537824193E+02  0.14055200212E+03  0.12508985119E+03 0.  0.
          5    1    3    3  502    0 -0.54700165226E+02  0.14838106444E+02  0.56924171345E+01  0.57115264960E+02  0.41800000000E+01 0. -1.
         -5    1    3    3    0  502  0.58424330293E+02  0.30104430087E+02 -0.51230241328E+02  0.83436737157E+02  0.41800000000E+01 0. -1.
        -11    1    1    2    0    0 -0.25909343207E+01 -0.32055491930E+02 -0.57978371875E+02  0.66300521180E+02  0.00000000000E+00 0. -1.
         11    1    1    2    0    0 -0.11332307458E+01 -0.12887044601E+02  0.35687152887E+02  0.37959623439E+02  0.00000000000E+00 0.  1.
</event>
<event>
 7    1  0.2688177E-009  0.1155264E+03  0.7561462E-02  0.1250665E+00
         -2   -1    0    0    0  501 -0.00000000000E+00  0.00000000000E+00  0.50157586421E+03  0.50157586421E+03  0.00000000000E+00 0.  1.
          2   -1    0    0  501    0  0.00000000000E+00 -0.00000000000E+00 -0.27147977650E+02  0.27147977650E+02  0.00000000000E+00 0. -1.
         25    2    1    2    0    0  0.12280280410E+02  0.38620622883E+02  0.23768328447E+03  0.27163108839E+03  0.12509095357E+03 0.  0.
          5    1    3    3  502    0 -0.51736309907E+02  0.42398076229E+02  0.11370246544E+03  0.13198471759E+03  0.41800000000E+01 0.  1.
         -5    1    3    3    0  502  0.64016590317E+02 -0.37774533467E+01  0.12398081903E+03  0.13964637080E+03  0.41800000000E+01 0.  1.
        -11    1    1    2    0    0  0.37468097357E+02 -0.11473109274E+01  0.10133480772E+03  0.10804590643E+03  0.00000000000E+00 0.  1.
         11    1    1    2    0    0 -0.49748377767E+02 -0.37473311955E+02  0.13540979438E+03  0.14904684704E+03  0.00000000000E+00 0. -1.
</event>
<event>
 7    1  0.2688177E-009  0.9566488E+02  0.7561462E-02  0.1289686E+00
          2   -1    0    0  501    0  0.00000000000E+00  0.00000000000E+00  0.36937853657E+03  0.36937853657E+03  0.00000000000E+00 0.  1.
         -2   -1    0    0    0  501 -0.00000000000E+00 -0.00000000000E+00 -0.50053451425E+02  0.50053451425E+02  0.00000000000E+00 0. -1.
         25    2    1    2    0    0 -0.64798106293E+02  0.21818474460E+02  0.24208103147E+03  0.28093386411E+03  0.12508305160E+03 0.  0.
          5    1    3    3  502    0 -0.76010653662E+02  0.14042444149E+02  0.59085309016E+02  0.97382523325E+02  0.41800000000E+01 0.  1.
         -5    1    3    3    0  502  0.11212547368E+02  0.77760303107E+01  0.18299572246E+03  0.18355134078E+03  0.41800000000E+01 0.  1.
        -11    1    1    2    0    0  0.41584514606E+01 -0.36923019415E+02  0.64921282606E+02  0.74802239381E+02  0.00000000000E+00 0.  1.
         11    1    1    2    0    0  0.60639654833E+02  0.15104544954E+02  0.12322771069E+02  0.63695884509E+02  0.00000000000E+00 0. -1.
</event>
<event>
 7    1  0.2688177E-009  0.2527438E+03  0.7561462E-02  0.1111583E+00
          2   -1    0    0  501    0  0.00000000000E+00  0.00000000000E+00  0.15412387312E+04  0.15412387312E+04  0.00000000000E+00 0. -1.
         -2   -1    0    0    0  501 -0.00000000000E+00 -0.00000000000E+00 -0.56563864121E+02  0.56563864121E+02  0.00000000000E+00 0.  1.
         25    2    1    2    0    0 -0.23955215048E+03  0.77317626060E+02  0.46421741157E+03  0.54268595762E+03  0.12508795024E+03 0.  0.
          5    1    3    3  502    0 -0.37584789970E+02  0.23595996287E+02  0.14686035387E+02  0.46931221093E+02  0.41800000000E+01 0.  1.
         -5    1    3    3    0  502 -0.20196736051E+03  0.53721629773E+02  0.44953137618E+03  0.49575473653E+03  0.41800000000E+01 0.  1.
        -11    1    1    2    0    0  0.15890355194E+03 -0.46799428436E+02  0.82526020363E+03  0.84172140820E+03  0.00000000000E+00 0. -1.
         11    1    1    2    0    0  0.80648598540E+02 -0.30518197624E+02  0.19519725185E+03  0.21339522948E+03  0.00000000000E+00 0.  1.
</event>
<event>
 7    1  0.2688177E-009  0.1500140E+03  0.7561462E-02  0.1200456E+00
         -2   -1    0    0    0  501 -0.00000000000E+00  0.00000000000E+00  0.17549966905E+02  0.17549966905E+02  0.00000000000E+00 0.  1.
          2   -1    0    0  501    0  0.00000000000E+00 -0.00000000000E+00 -0.14372595609E+04  0.14372595609E+04  0.00000000000E+00 0. -1.
         25    2    1    2    0    0 -0.93141245704E+02  0.62634467485E+02 -0.88616823491E+03  0.90196453026E+03  0.12508998803E+03 0.  0.
          5    1    3    3  502    0 -0.91355383484E+01  0.74309592101E+02 -0.55677821551E+03  0.56180497257E+03  0.41800000000E+01 0. -1.
         -5    1    3    3    0  502 -0.84005707356E+02 -0.11675124616E+02 -0.32939001940E+03  0.34015955769E+03  0.41800000000E+01 0. -1.
        -11    1    1    2    0    0 -0.11332827910E+02  0.81253294208E+01 -0.22620656208E+02  0.26573446407E+02  0.00000000000E+00 0.  1.
         11    1    1    2    0    0  0.10447407361E+03 -0.70759796906E+02 -0.51092070291E+03  0.52627155118E+03  0.00000000000E+00 0. -1.
</event>
<event>
 7    1  0.2688177E-009  0.1081344E+03  0.7561462E-02  0.1264064E+00
          1   -1    0    0  501    0  0.00000000000E+00  0.00000000000E+00  0.94287084776E+02  0.94287084776E+02  0.00000000000E+00 0. -1.
         -1   -1    0    0    0  501 -0.00000000000E+00 -0.00000000000E+00 -0.19082075454E+03  0.19082075454E+03  0.00000000000E+00 0.  1.
         25    2    1    2    0    0 -0.80951709936E+02  0.18400982101E+02 -0.27260302295E+02  0.15258561202E+03  0.12508984543E+03 0.  0.
          5    1    3    3  502    0 -0.28768801207E+02 -0.22876985047E+02 -0.65869338141E+02  0.75546293588E+02  0.41800000000E+01 0. -1.
         -5    1    3    3    0  502 -0.52182908729E+02  0.41277967148E+02  0.38609035846E+02  0.77039318431E+02  0.41800000000E+01 0. -1.
        -11    1    1    2    0    0  0.65540210624E+00 -0.31280083289E+02 -0.14571839008E+02  0.34513934209E+02  0.00000000000E+00 0. -1.
         11    1    1    2    0    0  0.80296307830E+02  0.12879101189E+02 -0.54701528464E+02  0.98008293092E+02  0.00000000000E+00 0.  1.
</event>
<event>
 7    1  0.2688177E-009  0.1218658E+03  0.7561462E-02  0.1240050E+00
          1   -1    0    0  501    0  0.00000000000E+00  0.00000000000E+00  0.25893734174E+03  0.25893734174E+03  0.00000000000E+00 0. -1.
         -1   -1    0    0    0  501 -0.00000000000E+00 -0.00000000000E+00 -0.13989272104E+03  0.13989272104E+03  0.00000000000E+00 0.  1.
         25    2    1    2    0    0  0.93726038333E+02  0.73351736292E+00 -0.67418757530E+02  0.17022957382E+03  0.12509080952E+03 0.  0.
          5    1    3    3  502    0  0.87829006127E+02 -0.30004395210E+02 -0.91591194674E+02  0.13046308823E+03  0.41800000000E+01 0. -1.
         -5    1    3    3    0  502  0.58970322055E+01  0.30737912573E+02  0.24172437144E+02  0.39766485583E+02  0.41800000000E+01 0. -1.
        -11    1    1    2    0    0 -0.26479422904E+02  0.34372971939E+02  0.24685771095E+02  0.49920419988E+02  0.00000000000E+00 0.  1.
         11    1    1    2    0    0 -0.67246615429E+02 -0.35106489302E+02  0.16177760713E+03  0.17868006897E+03  0.00000000000E+00 0. -1.
</event>
<event>
 7    1  0.2688177E-009  0.1304176E+03  0.7561462E-02  0.1226837E+00
          2   -1    0    0  501    0  0.00000000000E+00  0.00000000000E+00  0.27789286801E+03  0.27789286801E+03  0.00000000000E+00 0. -1.
         -2   -1    0    0    0  501 -0.00000000000E+00 -0.00000000000E+00 -0.11460045637E+03  0.11460045637E+03  0.00000000000E+00 0.  1.
         25    2    1    2    0    0  0.48577736198E+02  0.69647800593E+02 -0.36558801733E+02  0.15554578265E+03  0.12508929584E+03 0.  0.
          5    1    3    3  502    0  0.43966738096E+02  0.97023267518E+02  0.34637667696E+01  0.10665860762E+03  0.41800000000E+01 0.  1.
         -5    1    3    3    0  502  0.46109981025E+01 -0.27375466925E+02 -0.40022568503E+02  0.48887175030E+02  0.41800000000E+01 0.  1.
        -11    1    1    2    0    0 -0.57257882172E+02 -0.13109213667E+01  0.75173250378E+02  0.94505032448E+02  0.00000000000E+00 0. -1.
         11    1    1    2    0    0  0.86801459740E+01 -0.68336879226E+02  0.12467796299E+03  0.14244250929E+03  0.00000000000E+00 0.  1.
</event>
<event>
 7    1  0.2688177E-009  0.1231503E+03  0.7561462E-02  0.1237989E+00
         -2   -1    0    0    0  501 -0.00000000000E+00  0.00000000000E+00  0.30524959978E+03  0.30524959978E+03  0.00000000000E+00 0.  1.
          2   -1    0    0  501    0  0.00000000000E+00 -0.00000000000E+00 -0.52574956903E+02  0.52574956903E+02  0.00000000000E+00 0. -1.
         25    2    1    2    0    0  0.51960242932E+02 -0.31751401446E+02  0.10320596466E+03  0.17322471386E+03  0.12508921621E+03 0.  0.
          5    1    3    3  502    0 -0.36117007600E+02  0.13628506180E+02  0.39313961707E+02  0.55256080243E+02  0.41800000000E+01 0. -1.
         -5    1    3    3    0  502  0.88077250532E+02 -0.45379907626E+02  0.63892002951E+02  0.11796863362E+03  0.41800000000E+01 0. -1.
        -11    1    1    2    0    0 -0.72418923432E+02  0.43728233889E+02  0.11492572712E+03  0.14270452573E+03  0.00000000000E+00 0. -1.
         11    1    1    2    0    0  0.20458680500E+02 -0.11976832443E+02  0.34542951094E+02  0.41895317082E+02  0.00000000000E+00 0.  1.
</event>
<event>
 7    1  0.2688177E-009  0.8709746E+02  0.7561462E-02  0.1310037E+00
          1   -1    0    0  501    0  0.00000000000E+00  0.00000000000E+00  0.20390613780E+02  0.20390613780E+02  0.00000000000E+00 0. -1.
         -1   -1    0    0    0  501 -0.00000000000E+00 -0.00000000000E+00 -0.61189682262E+03  0.61189682262E+03  0.00000000000E+00 0.  1.
         25    2    1    2    0    0  0.85056546332E+01 -0.19040280492E+02 -0.39928289031E+03  0.41893755032E+03  0.12508783367E+03 0.  0.
          5    1    3    3  502    0  0.49397116226E+02  0.18843109871E+02 -0.88551096740E+02  0.10321776502E+03  0.41800000000E+01 0.  1.
         -5    1    3    3    0  502 -0.40891461592E+02 -0.37883390363E+02 -0.31073179357E+03  0.31571978531E+03  0.41800000000E+01 0.  1.
        -11    1    1    2    0    0  0.94924552322E+01 -0.20073920809E+02 -0.71406814292E+01  0.23325058077E+02  0.00000000000E+00 0. -1.
         11    1    1    2    0    0 -0.17998109865E+02  0.39114201302E+02 -0.18508263710E+03  0.19002482800E+03  0.00000000000E+00 0.  1.
</event>
<event>
 7    1  0.2688177E-009  0.1584139E+03  0.7561462E-02  0.1190499E+00
          2   -1    0    0  501    0  0.00000000000E+00  0.00000000000E+00  0.31229861239E+03  0.31229861239E+03  0.00000000000E+00 0.  1.
         -2   -1    0    0    0  501 -0.00000000000E+00 -0.00000000000E+00 -0.95214925250E+02  0.95214925250E+02  0.00000000000E+00 0. -1.
         25    2    1    2    0    0  0.11876791310E+03 -0.28724199581E+02  0.50888993198E+02  0.18211820571E+03  0.12508578815E+03 0.  0.
          5    1    3    3  502    0 -0.16888678577E+02  0.22130060749E+02 -0.10160393571E+01  0.28168631291E+02  0.41800000000E+01 0.  1.
         -5    1    3    3    0  502  0.13565659167E+03 -0.50854260330E+02  0.51905032555E+02  0.15394957441E+03  0.41800000000E+01 0.  1.
        -11    1    1    2    0    0  0.58414188045E+01 -0.11418700473E+02  0.45710048931E+02  0.47475440676E+02  0.00000000000E+00 0.  1.
         11    1    1    2    0    0 -0.12460933190E+03  0.40142900053E+02  0.12048464501E+03  0.17791989125E+03  0.00000000000E+00 0. -1.
</event>
<event>
 7    1  0.2688177E-009  0.1431669E+03  0.7561462E-02  0.1209130E+00
          2   -1    0    0  501    0  0.00000000000E+00  0.00000000000E+00  0.63042164736E+03  0.63042164736E+03  0.00000000000E+00 0. -1.
         -2   -1    0    0    0  501 -0.00000000000E+00 -0.00000000000E+00 -0.38105815927E+02  0.38105815927E+02  0.00000000000E+00 0.  1.
         25    2    1    2    0    0  0.46274962279E+02 -0.93515871225E+02  0.44847183244E+03  0.47713882274E+03  0.12509149199E+03 0.  0.
          5    1    3    3  502    0  0.54449809394E+02 -0.12083801887E+03  0.39042356728E+03  0.41232831923E+03  0.41800000000E+01 0. -1.
         -5    1    3    3    0  502 -0.81748471157E+01  0.27322147648E+02  0.58048265155E+02  0.64810503508E+02  0.41800000000E+01 0. -1.
        -11    1    1    2    0    0 -0.21335576236E+01  0.78130249795E+02  0.76146763100E+02  0.10912019763E+03  0.00000000000E+00 0.  1.
         11    1    1    2    0    0 -0.44141404655E+02  0.15385621430E+02  0.67697235894E+02  0.82268442913E+02  0.00000000000E+00 0. -1.
</event>
<event>
 7    1  0.2688177E-009  0.1158022E+03  0.7561462E-02  0.1250187E+00
         -2   -1    0    0    0  501 -0.00000000000E+00  0.00000000000E+00  0.26972217404E+03  0.26972217404E+03  0.00000000000E+00 0.  1.
          2   -1    0    0  501    0  0.00000000000E+00 -0.00000000000E+00 -0.63374454400E+02  0.63374454400E+02  0.00000000000E+00 0. -1.
         25    2    1    2    0    0 -0.31773844984E+02  0.36838960664E+02  0.45928301833E+02  0.14185828655E+03  0.12509068033E+03 0.  0.
          5    1    3    3  502    0  0.40474450010E+02  0.40170802619E+02  0.21629940925E+01  0.57219100221E+02  0.41800000000E+01 0. -1.
         -5    1    3    3    0  502 -0.72248294994E+02 -0.33318419554E+01  0.43765307741E+02  0.84639186327E+02  0.41800000000E+01 0. -1.
        -11    1    1    2    0    0  0.57341231122E+02 -0.47322894766E+02  0.13264025517E+03  0.15205561630E+03  0.00000000000E+00 0.  1.
         11    1    1    2    0    0 -0.25567386138E+02  0.10483934102E+02  0.27779162634E+02  0.39182725592E+02  0.00000000000E+00 0. -1.
</event>
<event>
 7    1  0.2688177E-009  0.8215193E+02  0.7561462E-02  0.1323053E+00
          1   -1    0    0  501    0  0.00000000000E+00  0.00000000000E+00  0.13734731098E+03  0.13734731098E+03  0.00000000000E+00 0. -1.
         -1   -1    0    0    0  501 -0.00000000000E+00 -0.00000000000E+00 -0.13085152413E+03  0.13085152413E+03  0.00000000000E+00 0.  1.
         25    2    1    2    0    0  0.30965903451E+02 -0.24496024705E+02  0.41645423132E+02  0.13763156502E+03  0.12509661874E+03 0.  0.
          5    1    3    3  502    0 -0.27632206575E+02  0.19424064225E+02  0.53422395133E+02  0.63342385596E+02  0.41800000000E+01 0.  1.
         -5    1    3    3    0  502  0.58598110026E+02 -0.43920088931E+02 -0.11776972001E+02  0.74289179426E+02  0.41800000000E+01 0.  1.
        -11    1    1    2    0    0 -0.30016719581E+00  0.26205175863E+02 -0.75464758780E+02  0.79885738152E+02  0.00000000000E+00 0.  1.
         11    1    1    2    0    0 -0.30665736255E+02 -0.17091511585E+01  0.40315122493E+02  0.50681531936E+02  0.00000000000E+00 0. -1.
</event>
<event>
 7    1  0.2688177E-009  0.7315290E+02  0.7561462E-02  0.1349688E+00
         -2   -1    0    0    0  501 -0.00000000000E+00  0.00000000000E+00  0.39131994438E+02  0.39131994438E+02  0.00000000000E+00 0.  1.
          2   -1    0    0  501    0  0.00000000000E+00 -0.00000000000E+00 -0.49913657367E+03  0.49913657367E+03  0.00000000000E+00 0. -1.
         25    2    1    2    0    0  0.68568550585E+02 -0.89790331671E+01 -0.35318776617E+03  0.38101286216E+03  0.12508770439E+03 0.  0.
          5    1    3    3  502    0  0.17273514419E+02  0.61804189880E+01 -0.31402590990E+03  0.31458912309E+03  0.41800000000E+01 0. -1.
         -5    1    3    3    0  502  0.51295036166E+02 -0.15159452155E+02 -0.39161856272E+02  0.66423739067E+02  0.41800000000E+01 0. -1.
        -11    1    1    2    0    0 -0.23191431743E+02  0.15643813684E+02 -0.10781072434E+03  0.11138098445E+03  0.00000000000E+00 0. -1.
         11    1    1    2    0    0 -0.45377118842E+02 -0.66647805165E+01  0.99391127891E+00  0.45874721507E+02  0.00000000000E+00 0.  1.
</event>
<event>
 7    1  0.2688177E-009  0.2647662E+03  0.7561462E-02  0.1104313E+00
          1   -1    0    0  501    0  0.00000000000E+00  0.00000000000E+00  0.58839353551E+03  0.58839353551E+03  0.00000000000E+00 0. -1.
         -1   -1    0    0    0  501 -0.00000000000E+00 -0.00000000000E+00 -0.12714743160E+03  0.12714743160E+03  0.00000000000E+00 0.  1.
         25    2    1    2    0    0 -0.92810918363E+02  0.23229613484E+03  0.21580290239E+03  0.35326085739E+03  0.12508788853E+03 0.  0.
          5    1    3    3  502    0  0.21566890375E+01  0.10494902409E+03  0.14556993806E+03  0.17951887988E+03  0.41800000000E+01 0.  1.
         -5    1    3    3    0  502 -0.94967607401E+02  0.12734711076E+03  0.70232964329E+02  0.17374197752E+03  0.41800000000E+01 0.  1.
        -11    1    1    2    0    0 -0.14891095215E+01 -0.11523763606E+03  0.12139118139E+03  0.16738503257E+03  0.00000000000E+00 0. -1.
         11    1    1    2    0    0  0.94300027885E+02 -0.11705849879E+03  0.12405202012E+03  0.19489507714E+03  0.00000000000E+00 0.  1.
</event>
<event>
 7    1  0.2688177E-009  0.1074998E+03  0.7561462E-02  0.1265271E+00
         -1   -1    0    0    0  501 -0.00000000000E+00  0.00000000000E+00  0.33592398556E+02  0.33592398556E+02  0.00000000000E+00 0.  1.
          1   -1    0    0  501    0  0.00000000000E+00 -0.00000000000E+00 -0.51514790736E+03  0.51514790736E+03  0.00000000000E+00 0. -1.
         25    2    1    2    0    0 -0.31878223195E+02 -0.49967240305E+02 -0.36070548548E+03  0.38633991421E+03  0.12504853394E+03 0.  0.
          5    1    3    3  502    0 -0.34806069640E+00  0.27957748642E+02 -0.22418033145E+03  0.22595585911E+03  0.41800000000E+01 0. -1.
         -5    1    3    3    0  502 -0.31530162499E+02 -0.77924988947E+02 -0.13652515402E+03  0.16038405510E+03  0.41800000000E+01 0. -1.
        -11    1    1    2    0    0  0.38950000696E+02  0.70665940669E+02 -0.69159510408E+02  0.10627236520E+03  0.00000000000E+00 0.  1.
         11    1    1    2    0    0 -0.70717775001E+01 -0.20698700364E+02 -0.51690512918E+02  0.56128026506E+02  0.00000000000E+00 0. -1.
</event>
<event>
 7    1  0.2688177E-009  0.2760513E+03  0.7561462E-02  0.1097865E+00
         -1   -1    0    0    0  501 -0.00000000000E+00  0.00000000000E+00  0.13721152350E+03  0.13721152350E+03  0.00000000000E+00 0.  1.
          1   -1    0    0  501    0  0.00000000000E+00 -0.00000000000E+00 -0.62666134790E+03  0.62666134790E+03  0.00000000000E+00 0. -1.
         25    2    1    2    0    0  0.22763474213E+03  0.14083825338E+03 -0.18534107767E+03  0.34878658825E+03  0.12509108533E+03 0.  0.
          5    1    3    3  502    0  0.59858745048E+02  0.17041906055E+02 -0.11111073731E+03  0.12742277766E+03  0.41800000000E+01 0. -1.
         -5    1    3    3    0  502  0.16777599708E+03  0.12379634732E+03 -0.74230340356E+02  0.22136381059E+03  0.41800000000E+01 0. -1.
        -11    1    1    2    0    0 -0.14762948637E+03 -0.13648605928E+03 -0.23505711991E+03  0.30931336738E+03  0.00000000000E+00 0. -1.
         11    1    1    2    0    0 -0.80005255765E+02 -0.43521940938E+01 -0.69051626828E+02  0.10577291577E+03  0.00000000000E+00 0.  1.
</event>
<event>
 7    1  0.2688177E-009  0.5872534E+02  0.7561462E-02  0.1403260E+00
         -1   -1    0    0    0  501 -0.00000000000E+00  0.00000000000E+00  0.61195847054E+03  0.61195847054E+03  0.00000000000E+00 0.  1.
          1   -1    0    0  501    0  0.00000000000E+00 -0.00000000000E+00 -0.36221322209E+02  0.36221322209E+02  0.00000000000E+00 0. -1.
         25    2    1    2    0    0  0.41295882460E+02  0.69219732162E+01  0.51191344058E+03  0.52863802067E+03  0.12509805206E+03 0.  0.
          5    1    3    3  502    0  0.17035850761E+02  0.55612790690E+01  0.24334833634E+01  0.18561850051E+02  0.41800000000E+01 0.  1.
         -5    1    3    3    0  502  0.24260031699E+02  0.13606941472E+01  0.50947995722E+03  0.51007617062E+03  0.41800000000E+01 0.  1.
        -11    1    1    2    0    0 -0.52414764768E+02 -0.20990925740E+02  0.34564711620E+01  0.56567426334E+02  0.00000000000E+00 0. -1.
         11    1    1    2    0    0  0.11118882308E+02  0.14068952524E+02  0.60367236592E+02  0.62974345750E+02  0.00000000000E+00 0.  1.
</event>
<event>
 7    1  0.2688177E-009  0.1020808E+03  0.7561462E-02  0.1275980E+00
          3   -1    0    0  501    0  0.00000000000E+00  0.00000000000E+00  0.45175404168E+03  0.45175404168E+03  0.00000000000E+00 0. -1.
         -3   -1    0    0    0  501 -0.00000000000E+00 -0.00000000000E+00 -0.38129526497E+02  0.38129526497E+02  0.00000000000E+00 0.  1.
         25    2    1    2    0    0  0.54281094244E+02 -0.81845527785E+01  0.32383318075E+03  0.35146725443E+03  0.12509147807E+03 0.  0.
          5    1    3    3  502    0  0.51018270145E+01 -0.49519194762E+02  0.51976219997E+02  0.72091463669E+02  0.41800000000E+01 0.  1.
         -5    1    3    3    0  502  0.49179267230E+02  0.41334641983E+02  0.27185696075E+03  0.27937579076E+03  0.41800000000E+01 0.  1.
        -11    1    1    2    0    0 -0.39923776754E+02  0.39011877869E+02  0.17455095562E+02  0.58485168430E+02  0.00000000000E+00 0.  1.
         11    1    1    2    0    0 -0.14357317490E+02 -0.30827325091E+02  0.72336238865E+02  0.79931145312E+02  0.00000000000E+00 0. -1.
</event>
<event>
 7    1  0.2688177E-009  0.1807575E+03  0.7561462E-02  0.1167072E+00
         -2   -1    0    0    0  501 -0.00000000000E+00  0.00000000000E+00  0.15482179948E+03  0.15482179948E+03  0.00000000000E+00 0.  1.
          2   -1    0    0  501    0  0.00000000000E+00 -0.00000000000E+00 -0.36199090837E+03  0.36199090837E+03  0.00000000000E+00 0. -1.
         25    2    1    2    0    0  0.17118819284E+03 -0.37140187924E+01 -0.24403149198E+03  0.32328694792E+03  0.12507553843E+03 0.  0.
          5    1    3    3  502    0  0.86099600389E+02  0.39431929909E+02 -0.19297785868E+03  0.21500219679E+03  0.41800000000E+01 0.  1.
         -5    1    3    3    0  502  0.85088592455E+02 -0.43145948701E+02 -0.51053633303E+02  0.10828475114E+03  0.41800000000E+01 0.  1.
        -11    1    1    2    0    0 -0.12008595114E+03  0.24007104321E+01 -0.14594260282E+02  0.12099335315E+03  0.00000000000E+00 0. -1.
         11    1    1    2    0    0 -0.51102241701E+02  0.13133083603E+01  0.51456643377E+02  0.72532406781E+02  0.00000000000E+00 0.  1.
</event>
<event>
 7    1  0.2688177E-009  0.1194726E+03  0.7561462E-02  0.1243970E+00
         -1   -1    0    0    0  501 -0.00000000000E+00  0.00000000000E+00  0.26329952978E+03  0.26329952978E+03  0.00000000000E+00 0.  1.
          1   -1    0    0  501    0  0.00000000000E+00 -0.00000000000E+00 -0.81204904264E+02  0.81204904264E+02  0.00000000000E+00 0. -1.
         25    2    1    2    0    0 -0.64014806408E+02  0.76298523015E+02  0.71417752838E+02  0.17512155884E+03  0.12509078662E+03 0.  0.
          5    1    3    3  502    0 -0.30865821133E+02  0.39928141322E+01  0.88284706823E+02  0.93703272822E+02  0.41800000000E+01 0.  1.
         -5    1    3    3    0  502 -0.33148985275E+02  0.72305708883E+02 -0.16866953985E+02  0.81418286020E+02  0.41800000000E+01 0.  1.
        -11    1    1    2    0    0  0.11789114357E+02 -0.74716788583E+02  0.71399705904E+02  0.10401682420E+03  0.00000000000E+00 0.  1.
         11    1    1    2    0    0  0.52225692051E+02 -0.15817344318E+01  0.39277166779E+02  0.65366051006E+02  0.00000000000E+00 0. -1.
</event>
<event>
 7    1  0.2688177E-009  0.1022659E+03  0.7561462E-02  0.1275602E+00
         -2   -1    0    0    0  501 -0.00000000000E+00  0.00000000000E+00  0.29983383186E+03  0.29983383186E+03  0.00000000000E+00 0.  1.
          2   -1    0    0  501    0  0.00000000000E+00 -0.00000000000E+00 -0.51413325382E+02  0.51413325382E+02  0.00000000000E+00 0. -1.
         25    2    1    2    0    0 -0.13476077687E+02  0.49633664564E+02  0.18711247689E+03  0.23087649580E+03  0.12509105475E+03 0.  0.
          5    1    3    3  502    0  0.55703226607E+02  0.15897060250E+02  0.84653304834E+02  0.10266070523E+03  0.41800000000E+01 0.  1.
         -5    1    3    3    0  502 -0.69179304294E+02  0.33736604314E+02  0.10245917206E+03  0.12821579057E+03  0.41800000000E+01 0.  1.
        -11    1    1    2    0    0 -0.17418961820E+02 -0.20593711971E+02  0.71793150608E+02  0.76692748535E+02  0.00000000000E+00 0.  1.
         11    1    1    2    0    0  0.30895039507E+02 -0.29039952593E+02 -0.10485121023E+02  0.43677912904E+02  0.00000000000E+00 0. -1.
</event>
<event>
 7    1  0.2688177E-009  0.9864092E+02  0.7561462E-02  0.1283180E+00
         -2   -1    0    0    0  501 -0.00000000000E+00  0.00000000000E+00  0.42390019447E+02  0.42390019447E+02  0.00000000000E+00 0. -1.
          2   -1    0    0  501    0  0.00000000000E+00 -0.00000000000E+00 -0.46443931152E+03  0.46443931152E+03  0.00000000000E+00 0.  1.
         25    2    1    2    0    0 -0.17755960434E+02 -0.32749573709E+02 -0.36368444765E+03  0.38639527827E+03  0.12508846829E+03 0.  0.
          5    1    3    3  502    0  0.68302497611E+01  0.27875767441E+02 -0.17106719066E+02  0.33672287707E+02  0.41800000000E+01 0.  1.
         -5    1    3    3    0  502 -0.24586210195E+02 -0.60625341150E+02 -0.34657772858E+03  0.35272299056E+03  0.41800000000E+01 0.  1.
        -11    1    1    2    0    0  0.48109761774E+02  0.48681837063E+02 -0.25779645460E+02  0.73137272015E+02  0.00000000000E+00 0.  1.
         11    1    1    2    0    0 -0.30353801341E+02 -0.15932263354E+02 -0.32585198961E+02  0.47296780680E+02  0.00000000000E+00 0. -1.
</event>
<event>
 7    1  0.2688177E-009  0.1163882E+03  0.7561462E-02  0.1249177E+00
          1   -1    0    0  501    0  0.00000000000E+00  0.00000000000E+00  0.14041316197E+04  0.14041316197E+04  0.00000000000E+00 0. -1.
         -1   -1    0    0    0  501 -0.00000000000E+00 -0.00000000000E+00 -0.11577297555E+02  0.11577297555E+02  0.00000000000E+00 0.  1.
         25    2    1    2    0    0  0.29286588659E+02  0.55756956250E+02  0.89804320128E+03  0.90889764963E+03  0.12508718436E+03 0.  0.
          5    1    3    3  502    0  0.70515745347E+02  0.13961802927E+02  0.32726599122E+03  0.33509387296E+03  0.41800000000E+01 0.  1.
         -5    1    3    3    0  502 -0.41229156688E+02  0.41795153323E+02  0.57077721006E+03  0.57380377667E+03  0.41800000000E+01 0.  1.
        -11    1    1    2    0    0 -0.58404147610E+01 -0.72732744114E+02  0.42940365359E+03  0.43555902038E+03  0.00000000000E+00 0. -1.
         11    1    1    2    0    0 -0.23446173898E+02  0.16975787864E+02  0.65107467301E+02  0.71252247279E+02  0.00000000000E+00 0.  1.
</event>
<event>
 7    1  0.2688177E-009  0.1497550E+03  0.7561462E-02  0.1200774E+00
         -3   -1    0    0    0  501 -0.00000000000E+00  0.00000000000E+00  0.55628669787E+02  0.55628669787E+02  0.00000000000E+00 0.  1.
          3   -1    0    0  501    0  0.00000000000E+00 -0.00000000000E+00 -0.47266696597E+03  0.47266696597E+03  0.00000000000E+00 0. -1.
         25    2    1    2    0    0 -0.10828884152E+03  0.53889016886E+02 -0.20301319317E+03  0.26738257574E+03  0.12509430789E+03 0.  0.
          5    1    3    3  502    0 -0.11165374211E+03  0.74486698650E+02 -0.11489183184E+03  0.17672699802E+03  0.41800000000E+01 0. -1.
         -5    1    3    3    0  502  0.33649005884E+01 -0.20597681764E+02 -0.88121361322E+02  0.90655577718E+02  0.41800000000E+01 0. -1.
        -11    1    1    2    0    0  0.25076114178E+02  0.20450310745E+02 -0.23045511942E+02  0.39725587881E+02  0.00000000000E+00 0.  1.
         11    1    1    2    0    0  0.83212727346E+02 -0.74339327632E+02 -0.19097959108E+03  0.22118747214E+03  0.00000000000E+00 0. -1.
</event>
<event>
 7    1  0.2688177E-009  0.1145498E+03  0.7561462E-02  0.1252369E+00
          2   -1    0    0  501    0  0.00000000000E+00  0.00000000000E+00  0.27623666581E+03  0.27623666581E+03  0.00000000000E+00 0. -1.
         -2   -1    0    0    0  501 -0.00000000000E+00 -0.00000000000E+00 -0.76893687986E+02  0.76893687986E+02  0.00000000000E+00 0.  1.
         25    2    1    2    0    0 -0.88857547711E+02 -0.14358324506E+02  0.15089782103E+03  0.21568534639E+03  0.12509272956E+03 0.  0.
          5    1    3    3  502    0 -0.79771991549E+02  0.11427465402E+02  0.16570849928E+03  0.18431206346E+03  0.41800000000E+01 0. -1.
         -5    1    3    3    0  502 -0.90855561617E+01 -0.25785789908E+02 -0.14810678250E+02  0.31373282936E+02  0.41800000000E+01 0. -1.
        -11    1    1    2    0    0 -0.55351188386E+01  0.25139125597E+02 -0.79754212052E+01  0.26948478988E+02  0.00000000000E+00 0.  1.
         11    1    1    2    0    0  0.94392666550E+02 -0.10780801091E+02  0.56420578000E+02  0.11049652842E+03  0.00000000000E+00 0. -1.
</event>
<event>
 7    1  0.2688177E-009  0.7269107E+02  0.7561462E-02  0.1351174E+00
         -4   -1    0    0    0  501 -0.00000000000E+00  0.00000000000E+00  0.17895212006E+03  0.17895212006E+03  0.00000000000E+00 0.  1.
          4   -1    0    0  501    0  0.00000000000E+00 -0.00000000000E+00 -0.70877764784E+02  0.70877764784E+02  0.00000000000E+00 0. -1.
         25    2    1    2    0    0 -0.36423278606E+01 -0.10026241394E+02  0.34724488710E+02  0.13025769297E+03  0.12508990524E+03 0.  0.
          5    1    3    3  502    0  0.99514640776E+01 -0.34452294397E+02  0.73725904363E+02  0.82091251669E+02  0.41800000000E+01 0. -1.
         -5    1    3    3    0  502 -0.13593791938E+02  0.24426053002E+02 -0.39001415653E+02  0.48166441300E+02  0.41800000000E+01 0. -1.
        -11    1    1    2    0    0  0.41818336924E+02  0.92542198217E+01  0.68903754806E+02  0.81130396979E+02  0.00000000000E+00 0.  1.
         11    1    1    2    0    0 -0.38176009064E+02  0.77202157232E+00  0.44461117653E+01  0.38441794900E+02  0.00000000000E+00 0. -1.
</event>
<event>
 7    1  0.2688177E-009  0.1507953E+03  0.7561462E-02  0.1199499E+00
          2   -1    0    0  501    0  0.00000000000E+00  0.00000000000E+00  0.78536520388E+03  0.78536520388E+03  0.00000000000E+00 0. -1.
         -2   -1    0    0    0  501 -0.00000000000E+00 -0.00000000000E+00 -0.42044970524E+02  0.42044970524E+02  0.00000000000E+00 0.  1.
         25    2    1    2    0    0  0.10300564462E+03  0.84890097428E+02  0.26391573291E+03  0.32111859178E+03  0.12509654050E+03 0.  0.
          5    1    3    3  502    0 -0.12348067106E+02  0.86628524963E+01  0.12178355620E+03  0.12278528712E+03  0.41800000000E+01 0.  1.
         -5    1    3    3    0  502  0.11535371172E+03  0.76227244931E+02  0.14213217672E+03  0.19833330466E+03  0.41800000000E+01 0.  1.
        -11    1    1    2    0    0 -0.55481591407E+02 -0.83268181427E+02  0.20874984258E+03  0.23149145513E+03  0.00000000000E+00 0.  1.
         11    1    1    2    0    0 -0.47524053209E+02 -0.16219160010E+01  0.27065465786E+03  0.27480012749E+03  0.00000000000E+00 0. -1.
</event>
<event>
 7    1  0.2688177E-009  0.1114433E+03  0.7561462E-02  0.1257920E+00
          2   -1    0    0  501    0  0.00000000000E+00  0.00000000000E+00  0.30690180666E+03  0.30690180666E+03  0.00000000000E+00 0. -1.
         -2   -1    0    0    0  501 -0.00000000000E+00 -0.00000000000E+00 -0.60966942430E+02  0.60966942430E+02  0.00000000000E+00 0.  1.
         25    2    1    2    0    0  0.24533072050E+02 -0.77830626999E+02  0.15470676790E+03  0.21503237447E+03  0.12508101341E+03 0.  0.
          5    1    3    3  502    0  0.37769063081E+02 -0.15295269246E+01  0.12717095578E+03  0.13273569969E+03  0.41800000000E+01 0. -1.
         -5    1    3    3    0  502 -0.13235991031E+02 -0.76301100075E+02  0.27535812115E+02  0.82296674781E+02  0.41800000000E+01 0. -1.
        -11    1    1    2    0    0 -0.30477139880E+02  0.12614041514E+01 -0.37055775294E+01  0.30727487703E+02  0.00000000000E+00 0.  1.
         11    1    1    2    0    0  0.59440678297E+01  0.76569222848E+02  0.94933673859E+02  0.12210888691E+03  0.00000000000E+00 0. -1.
</event>
<event>
 7    1  0.2688177E-009  0.1159121E+03  0.7561462E-02  0.1249997E+00
         -1   -1    0    0    0  501 -0.00000000000E+00  0.00000000000E+00  0.55493197594E+02  0.55493197594E+02  0.00000000000E+00 0.  1.
          1   -1    0    0  501    0  0.00000000000E+00 -0.00000000000E+00 -0.38222325640E+03  0.38222325640E+03  0.00000000000E+00 0. -1.
         25    2    1    2    0    0  0.87951252295E+02 -0.24390700033E+02 -0.12566351968E+03  0.19942144609E+03  0.12508902413E+03 0.  0.
          5    1    3    3  502    0  0.63387721264E+02  0.20296187759E+02 -0.32754721032E+01  0.66769301046E+02  0.41800000000E+01 0. -1.
         -5    1    3    3    0  502  0.24563531030E+02 -0.44686887792E+02 -0.12238804757E+03  0.13265214505E+03  0.41800000000E+01 0. -1.
        -11    1    1    2    0    0  0.54376487413E+01  0.19730630262E+02 -0.93746774425E+02  0.95954799303E+02  0.00000000000E+00 0. -1.
         11    1    1    2    0    0 -0.93388901036E+02  0.46600697716E+01 -0.10731976471E+03  0.14234020860E+03  0.00000000000E+00 0.  1.
</event>
<event>
 7    1  0.2688177E-009  0.9899745E+02  0.7561462E-02  0.1282418E+00
          2   -1    0    0  501    0  0.00000000000E+00  0.00000000000E+00  0.49681262967E+03  0.49681262967E+03  0.00000000000E+00 0. -1.
         -2   -1    0    0    0  501 -0.00000000000E+00 -0.00000000000E+00 -0.28204890161E+02  0.28204890161E+02  0.00000000000E+00 0.  1.
         25    2    1    2    0    0 -0.28250370125E+02  0.21314527621E+02  0.18454277584E+03  0.22573436445E+03  0.12509026613E+03 0.  0.
          5    1    3    3  502    0 -0.44657053861E+02  0.60215490497E+02  0.15994940953E+03  0.17669590760E+03  0.41800000000E+01 0.  1.
         -5    1    3    3    0  502  0.16406683735E+02 -0.38900962877E+02  0.24593366312E+02  0.49038456853E+02  0.41800000000E+01 0.  1.
        -11    1    1    2    0    0  0.11436085168E+02 -0.47780249744E+02  0.24132393405E+03  0.24627419162E+03  0.00000000000E+00 0. -1.
         11    1    1    2    0    0  0.16814284957E+02  0.26465722124E+02  0.42741029619E+02  0.53008963761E+02  0.00000000000E+00 0.  1.
</event>
<event>
 7    1  0.2688177E-009  0.1460362E+03  0.7561462E-02  0.1205430E+00
          2   -1    0    0  501    0  0.00000000000E+00  0.00000000000E+00  0.10046693425E+03  0.10046693425E+03  0.00000000000E+00 0. -1.
         -2   -1    0    0    0  501 -0.00000000000E+00 -0.00000000000E+00 -0.22099657355E+03  0.22099657355E+03  0.00000000000E+00 0.  1.
         25    2    1    2    0    0 -0.94635734670E+02 -0.22538200701E+02 -0.91098209930E+02  0.18280327267E+03  0.12511698478E+03 0.  0.
          5    1    3    3  502    0  0.30244738038E+02 -0.68225296388E+00 -0.26599015230E+02  0.40499255047E+02  0.41800000000E+01 0. -1.
         -5    1    3    3    0  502 -0.12488047271E+03 -0.21855947737E+02 -0.64499194699E+02  0.14230401762E+03  0.41800000000E+01 0. -1.
        -11    1    1    2    0    0  0.11179267542E+03  0.77956312164E+01 -0.18665059484E+02  0.11360791605E+03  0.00000000000E+00 0.  1.
         11    1    1    2    0    0 -0.17156940747E+02  0.14742569484E+02 -0.10766369881E+02  0.25052319078E+02  0.00000000000E+00 0. -1.
</event>
<event>
 7    1  0.2688177E-009  0.1408418E+03  0.7561462E-02  0.1212201E+00
          1   -1    0    0  501    0  0.00000000000E+00  0.00000000000E+00  0.24404073473E+02  0.24404073473E+02  0.00000000000E+00 0. -1.
         -1   -1    0    0    0  501 -0.00000000000E+00 -0.00000000000E+00 -0.86055251619E+03  0.86055251619E+03  0.00000000000E+00 0.  1.
         25    2    1    2    0    0  0.92590948170E+02  0.17777922402E+02 -0.40039737998E+03  0.42994803104E+03  0.12509240302E+03 0.  0.
          5    1    3    3  502    0  0.68623944118E+02 -0.46322703397E+02 -0.27251833900E+03  0.28484865463E+03  0.41800000000E+01 0. -1.
         -5    1    3    3    0  502  0.23967004052E+02  0.64100625799E+02 -0.12787904099E+03  0.14509937641E+03  0.41800000000E+01 0. -1.
        -11    1    1    2    0    0 -0.65569247592E+02 -0.54060430591E+02 -0.26041572764E+03  0.27393102707E+03  0.00000000000E+00 0. -1.
         11    1    1    2    0    0 -0.27021700578E+02  0.36282508189E+02 -0.17533533509E+03  0.18107753156E+03  0.00000000000E+00 0.  1.
</event>
<event>
 7    1  0.2688177E-009  0.7608096E+02  0.7561462E-02  0.1340556E+00
         -1   -1    0    0    0  501 -0.00000000000E+00  0.00000000000E+00  0.14889727185E+03  0.14889727185E+03  0.00000000000E+00 0.  1.
          1   -1    0    0  501    0  0.00000000000E+00 -0.00000000000E+00 -0.10196879224E+03  0.10196879224E+03  0.00000000000E+00 0. -1.
         25    2    1    2    0    0  0.16357998080E+02  0.49971877115E+02  0.51035838531E+02  0.14497483503E+03  0.12509305886E+03 0.  0.
          5    1    3    3  502    0 -0.71788303812E+01  0.29768838283E+02  0.89905990728E+02  0.95069863296E+02  0.41800000000E+01 0.  1.
         -5    1    3    3    0  502  0.23536828462E+02  0.20203038832E+02 -0.38870152197E+02  0.49904971736E+02  0.41800000000E+01 0.  1.
        -11    1    1    2    0    0  0.28217297273E+02 -0.95683882691E+01 -0.28257026806E+02  0.41063724666E+02  0.00000000000E+00 0. -1.
         11    1    1    2    0    0 -0.44575295354E+02 -0.40403488846E+02  0.24149667885E+02  0.64827504393E+02  0.00000000000E+00 0.  1.
</event>
<event>
 7    1  0.2688177E-009  0.1121410E+03  0.7561462E-02  0.1256656E+00
          3   -1    0    0  501    0  0.00000000000E+00  0.00000000000E+00  0.33659229701E+02  0.33659229701E+02  0.00000000000E+00 0. -1.
         -3   -1    0    0    0  501 -0.00000000000E+00 -0.00000000000E+00 -0.50052760164E+03  0.50052760164E+03  0.00000000000E+00 0.  1.
         25    2    1    2    0    0  0.12028086180E+02 -0.31957126606E+02 -0.19831302640E+03  0.23694368626E+03  0.12509325010E+03 0.  0.
          5    1    3    3  502    0  0.35112795975E+02 -0.64007411089E+02 -0.64995679728E+02  0.97835412294E+02  0.41800000000E+01 0. -1.
         -5    1    3    3    0  502 -0.23084709795E+02  0.32050284483E+02 -0.13331734667E+03  0.13910827397E+03  0.41800000000E+01 0. -1.
        -11    1    1    2    0    0 -0.33611489820E+01  0.71184690827E+02 -0.93081895589E+02  0.11722967550E+03  0.00000000000E+00 0.  1.
         11    1    1    2    0    0 -0.86669371980E+01 -0.39227564221E+02 -0.17547344995E+03  0.18001346958E+03  0.00000000000E+00 0. -1.
</event>
<event>
 7    1  0.2688177E-009  0.1292926E+03  0.7561462E-02  0.1228509E+00
         -2   -1    0    0    0  501 -0.00000000000E+00  0.00000000000E+00  0.89585047103E+01  0.89585047103E+01  0.00000000000E+00 0.  1.
          2   -1    0    0  501    0  0.00000000000E+00 -0.00000000000E+00 -0.23474719199E+04  0.23474719199E+04  0.00000000000E+00 0. -1.
         25    2    1    2    0    0  0.44511589007E+02  0.64661472731E+02 -0.16980094737E+04  0.17044196091E+04  0.12509054153E+03 0.  0.
          5    1    3    3  502    0 -0.70760468338E+01  0.83103132287E+02 -0.71200693902E+03  0.71688740723E+03  0.41800000000E+01 0. -1.
         -5    1    3    3    0  502  0.51587635841E+02 -0.18441659556E+02 -0.98600253468E+03  0.98753220189E+03  0.41800000000E+01 0. -1.
        -11    1    1    2    0    0 -0.30210738662E+02 -0.87844126390E+02 -0.53739211041E+03  0.54536186116E+03  0.00000000000E+00 0.  1.
         11    1    1    2    0    0 -0.14300850346E+02  0.23182653659E+02 -0.10311183107E+03  0.10664895432E+03  0.00000000000E+00 0. -1.
</event>
<event>
 7    1  0.2688177E-009  0.1041168E+03  0.7561462E-02  0.1271870E+00
          2   -1    0    0  501    0  0.00000000000E+00  0.00000000000E+00  0.13097901574E+03  0.13097901574E+03  0.00000000000E+00 0.  1.
         -2   -1    0    0    0  501 -0.00000000000E+00 -0.00000000000E+00 -0.14337523516E+03  0.14337523516E+03  0.00000000000E+00 0. -1.
         25    2    1    2    0    0 -0.80727308211E+02 -0.27668857563E+02 -0.93719546790E+01  0.15171115391E+03  0.12508387873E+03 0.  0.
          5    1    3    3  502    0 -0.70951557583E+02 -0.31200266634E+02 -0.61099958690E+02  0.98783892985E+02  0.41800000000E+01 0.  1.
         -5    1    3    3    0  502 -0.97757506282E+01  0.35314090706E+01  0.51728004011E+02  0.52927260928E+02  0.41800000000E+01 0.  1.
        -11    1    1    2    0    0  0.31986499830E+01 -0.25307834499E+02  0.10855219024E+02  0.27722799801E+02  0.00000000000E+00 0.  1.
         11    1    1    2    0    0  0.77528658228E+02  0.52976692062E+02 -0.13879483762E+02  0.94920297186E+02  0.00000000000E+00 0. -1.
</event>
<event>
 7    1  0.2688177E-009  0.1165470E+03  0.7561462E-02  0.1248905E+00
         -2   -1    0    0    0  501 -0.00000000000E+00  0.00000000000E+00  0.71904838736E+02  0.71904838736E+02  0.00000000000E+00 0.  1.
          2   -1    0    0  501    0  0.00000000000E+00 -0.00000000000E+00 -0.26447131935E+03  0.26447131935E+03  0.00000000000E+00 0. -1.
         25    2    1    2    0    0  0.26952940969E+02  0.69938999194E+02 -0.52401091868E+02  0.15495697637E+03  0.12509142841E+03 0.  0.
          5    1    3    3  502    0 -0.51599833830E+01  0.96440898139E+02 -0.58006821168E+02  0.11273746478E+03  0.41800000000E+01 0.  1.
         -5    1    3    3    0  502  0.32112924353E+02 -0.26501898945E+02  0.56057292999E+01  0.42219511593E+02  0.41800000000E+01 0.  1.
        -11    1    1    2    0    0 -0.19217286830E+02  0.45016954233E+01  0.29105681791E+01  0.19950959423E+02  0.00000000000E+00 0.  1.
         11    1    1    2    0    0 -0.77356541398E+01 -0.74440694617E+02 -0.14307595692E+03  0.16146822229E+03  0.00000000000E+00 0. -1.
</event>
<event>
 7    1  0.2688177E-009  0.9470313E+02  0.7561462E-02  0.1291846E+00
         -1   -1    0    0    0  501 -0.00000000000E+00  0.00000000000E+00  0.22351671309E+02  0.22351671309E+02  0.00000000000E+00 0.  1.
          1   -1    0    0  501    0  0.00000000000E+00 -0.00000000000E+00 -0.78310827599E+03  0.78310827599E+03  0.00000000000E+00 0. -1.
         25    2    1    2    0    0 -0.20417878114E+02  0.69285374813E+02 -0.36186894410E+03  0.38963193758E+03  0.12508621496E+03 0.  0.
          5    1    3    3  502    0 -0.21733548085E+02  0.12797340095E+02 -0.31518122906E+03  0.31621637936E+03  0.41800000000E+01 0.  1.
         -5    1    3    3    0  502  0.13156699715E+01  0.56488034717E+02 -0.46687715040E+02  0.73415558224E+02  0.41800000000E+01 0.  1.
        -11    1    1    2    0    0  0.68138500350E+00 -0.83093231486E+02 -0.36444656811E+03  0.37379974640E+03  0.00000000000E+00 0. -1.
         11    1    1    2    0    0  0.19736493110E+02  0.13807856673E+02 -0.34441092484E+02  0.42028263320E+02  0.00000000000E+00 0.  1.
</event>
<event>
 7    1  0.2688177E-009  0.1115729E+03  0.7561462E-02  0.1257685E+00
          2   -1    0    0  501    0  0.00000000000E+00  0.00000000000E+00  0.52939987783E+02  0.52939987783E+02  0.00000000000E+00 0. -1.
         -2   -1    0    0    0  501 -0.00000000000E+00 -0.00000000000E+00 -0.36549725326E+03  0.36549725326E+03  0.00000000000E+00 0.  1.
         25    2    1    2    0    0  0.39145093890E+02  0.62632878716E+02 -0.10055582868E+03  0.17667567519E+03  0.12509038193E+03 0.  0.
          5    1    3    3  502    0 -0.26087179736E+02  0.21244386479E+02  0.15434611091E+02  0.37250027154E+02  0.41800000000E+01 0.  1.
         -5    1    3    3    0  502  0.65232273626E+02  0.41388492237E+02 -0.11599043977E+03  0.13942564804E+03  0.41800000000E+01 0.  1.
        -11    1    1    2    0    0 -0.65187217335E+02 -0.35331751810E+02 -0.10693579474E+03  0.13012674662E+03  0.00000000000E+00 0.  1.
         11    1    1    2    0    0  0.26042123446E+02 -0.27301126906E+02 -0.10506564206E+03  0.11163481923E+03  0.00000000000E+00 0. -1.
</event>
<event>
 7    1  0.2688177E-009  0.1092781E+03  0.7561462E-02  0.1261913E+00
         -1   -1    0    0    0  501 -0.00000000000E+00  0.00000000000E+00  0.27299688541E+03  0.27299688541E+03  0.00000000000E+00 0.  1.
          1   -1    0    0  501    0  0.00000000000E+00 -0.00000000000E+00 -0.56639547749E+02  0.56639547749E+02  0.00000000000E+00 0. -1.
         25    2    1    2    0    0 -0.27257984515E+02  0.53745784749E+02  0.11021870447E+03  0.17727270769E+03  0.12508334412E+03 0.  0.
          5    1    3    3  502    0  0.34607376190E+02  0.51138269701E+02  0.94986151337E+02  0.11336946000E+03  0.41800000000E+01 0. -1.
         -5    1    3    3    0  502 -0.61865360704E+02  0.26075150473E+01  0.15232553133E+02  0.63903247685E+02  0.41800000000E+01 0. -1.
        -11    1    1    2    0    0  0.42816927173E+02 -0.63245591449E+02  0.10981848425E+03  0.13376618995E+03  0.00000000000E+00 0.  1.
         11    1    1    2    0    0 -0.15558942658E+02  0.94998067009E+01 -0.36798510556E+01  0.18597535530E+02  0.00000000000E+00 0. -1.
</event>
<event>
 7    1  0.2688177E-009  0.1538810E+03  0.7561462E-02  0.1195784E+00
          1   -1    0    0  501    0  0.00000000000E+00  0.00000000000E+00  0.28914844408E+03  0.28914844408E+03  0.00000000000E+00 0. -1.
         -1   -1    0    0    0  501 -0.00000000000E+00 -0.00000000000E+00 -0.93065061666E+02  0.93065061666E+02  0.00000000000E+00 0.  1.
         25    2    1    2    0    0  0.11568601322E+03  0.12409787672E+02  0.56530051216E+02  0.17994573227E+03  0.12509022099E+03 0.  0.
          5    1    3    3  502    0  0.97196591168E+02  0.62328670723E+02  0.25972008911E+02  0.11842321637E+03  0.41800000000E+01 0.  1.
         -5    1    3    3    0  502  0.18489422055E+02 -0.49918883051E+02  0.30558042305E+02  0.61522515899E+02  0.41800000000E+01 0.  1.
        -11    1    1    2    0    0 -0.17332153688E+02  0.27644028143E+02  0.64319294639E+02  0.72121893391E+02  0.00000000000E+00 0. -1.
         11    1    1    2    0    0 -0.98353859535E+02 -0.40053815815E+02  0.75234036561E+02  0.13014588009E+03  0.00000000000E+00 0.  1.
</event>
<event>
 7    1  0.2688177E-009  0.9479842E+02  0.7561462E-02  0.1291631E+00
          1   -1    0    0  501    0  0.00000000000E+00  0.00000000000E+00  0.43607617363E+03  0.43607617363E+03  0.00000000000E+00 0. -1.
         -1   -1    0    0    0  501 -0.00000000000E+00 -0.00000000000E+00 -0.35250008202E+02  0.35250008202E+02  0.00000000000E+00 0.  1.
         25    2    1    2    0    0 -0.40621601158E+02 -0.34359381653E+02  0.17015278443E+03  0.21778549220E+03  0.12509144245E+03 0.  0.
          5    1    3    3  502    0 -0.83628208896E+02 -0.23088334242E+02  0.84438817767E+02  0.12113684348E+03  0.41800000000E+01 0. -1.
         -5    1    3    3    0  502  0.43006607738E+02 -0.11271047411E+02  0.85713966663E+02  0.96648648723E+02  0.41800000000E+01 0. -1.
        -11    1    1    2    0    0  0.13034941184E+02 -0.11872018652E+01 -0.46984446359E+01  0.13906635896E+02  0.00000000000E+00 0.  1.
         11    1    1    2    0    0  0.27586659974E+02  0.35546583519E+02  0.23537182564E+03  0.23963405374E+03  0.00000000000E+00 0. -1.
</event>
<event>
 7    1  0.2688177E-009  0.1049447E+03  0.7561462E-02  0.1270229E+00
          2   -1    0    0  501    0  0.00000000000E+00  0.00000000000E+00  0.17559977176E+03  0.17559977176E+03  0.00000000000E+00 0. -1.
         -2   -1    0    0    0  501 -0.00000000000E+00 -0.00000000000E+00 -0.71431302681E+02  0.71431302681E+02  0.00000000000E+00 0.  1.
         25    2    1    2    0    0 -0.21439648465E+02 -0.22672980059E+02  0.48421082815E+02  0.13772094180E+03  0.12509489996E+03 0.  0.
          5    1    3    3  502    0 -0.53900479173E+02  0.32296031868E+02  0.12007119029E+02  0.64108803116E+02  0.41800000000E+01 0.  1.
         -5    1    3    3    0  502  0.32460830709E+02 -0.54969011926E+02  0.36413963786E+02  0.73612138680E+02  0.41800000000E+01 0.  1.
        -11    1    1    2    0    0 -0.22004579482E+02  0.31679899736E+02  0.66087913593E+00  0.38577899459E+02  0.00000000000E+00 0.  1.
         11    1    1    2    0    0  0.43444227947E+02 -0.90069196772E+01  0.55086507128E+02  0.70732233187E+02  0.00000000000E+00 0. -1.
</event>
<event>
 7    1  0.2688177E-009  0.1067891E+03  0.7561462E-02  0.1266634E+00
         -1   -1    0    0    0  501 -0.00000000000E+00  0.00000000000E+00  0.20168943159E+03  0.20168943159E+03  0.00000000000E+00 0.  1.
          1   -1    0    0  501    0  0.00000000000E+00 -0.00000000000E+00 -0.88177065156E+02  0.88177065156E+02  0.00000000000E+00 0. -1.
         25    2    1    2    0    0  0.45874805216E+02 -0.25302276805E+02  0.64710509340E+00  0.13562184182E+03  0.12509261476E+03 0.  0.
          5    1    3    3  502    0  0.68776042330E+02  0.74046111937E+01  0.39489415017E+02  0.79761259794E+02  0.41800000000E+01 0. -1.
         -5    1    3    3    0  502 -0.22901237114E+02 -0.32706887998E+02 -0.38842309924E+02  0.55860582024E+02  0.41800000000E+01 0. -1.
        -11    1    1    2    0    0 -0.44037456033E+00  0.51623034181E+02  0.45352799615E+02  0.68716868531E+02  0.00000000000E+00 0. -1.
         11    1    1    2    0    0 -0.45434430656E+02 -0.26320757376E+02  0.67512461730E+02  0.85527786401E+02  0.00000000000E+00 0.  1.
</event>
<event>
 7    1  0.2688177E-009  0.8939923E+02  0.7561462E-02  0.1304313E+00
         -3   -1    0    0    0  501 -0.00000000000E+00  0.00000000000E+00  0.63319519912E+03  0.63319519912E+03  0.00000000000E+00 0.  1.
          3   -1    0    0  501    0  0.00000000000E+00 -0.00000000000E+00 -0.22502457868E+02  0.22502457868E+02  0.00000000000E+00 0. -1.
         25    2    1    2    0    0 -0.21037073299E+02  0.32801465972E+02  0.43835928827E+03  0.45752003919E+03  0.12508887251E+03 0.  0.
          5    1    3    3  502    0  0.35706695318E+02  0.42449096442E+02  0.10141332638E+03  0.11566775283E+03  0.41800000000E+01 0. -1.
         -5    1    3    3    0  502 -0.56743768616E+02 -0.96476304696E+01  0.33694596189E+03  0.34185228636E+03  0.41800000000E+01 0. -1.
        -11    1    1    2    0    0  0.22975194300E+02 -0.46373055750E+02  0.17643453756E+03  0.18386806655E+03  0.00000000000E+00 0.  1.
         11    1    1    2    0    0 -0.19381210017E+01  0.13571589778E+02 -0.41010845807E+01  0.14309551245E+02  0.00000000000E+00 0. -1.
</event>
<event>
 7    1  0.2688177E-009  0.1233316E+03  0.7561462E-02  0.1237700E+00
          1   -1    0    0  501    0  0.00000000000E+00  0.00000000000E+00  0.29976496225E+03  0.29976496225E+03  0.00000000000E+00 0. -1.
         -1   -1    0    0    0  501 -0.00000000000E+00 -0.00000000000E+00 -0.80582685983E+02  0.80582685983E+02  0.00000000000E+00 0.  1.
         25    2    1    2    0    0 -0.51713802917E+02 -0.69761985360E+02  0.31373049678E+02  0.15547423848E+03  0.12508764356E+03 0.  0.
          5    1    3    3  502    0 -0.40532892328E+02  0.12354870111E+02 -0.30151383621E+02  0.52174098078E+02  0.41800000000E+01 0. -1.
         -5    1    3    3    0  502 -0.11180910589E+02 -0.82116855471E+02  0.61524433299E+02  0.10330014040E+03  0.41800000000E+01 0. -1.
        -11    1    1    2    0    0  0.25702166760E+02  0.86456107890E+02  0.11796363285E+03  0.14849470914E+03  0.00000000000E+00 0.  1.
         11    1    1    2    0    0  0.26011636156E+02 -0.16694122530E+02  0.69845593739E+02  0.76378700613E+02  0.00000000000E+00 0. -1.
</event>
<event>
 7    1  0.2688177E-009  0.1251005E+03  0.7561462E-02  0.1234912E+00
          2   -1    0    0  501    0  0.00000000000E+00  0.00000000000E+00  0.15121756384E+04  0.15121756384E+04  0.00000000000E+00 0.  1.
         -2   -1    0    0    0  501 -0.00000000000E+00 -0.00000000000E+00 -0.14682361466E+02  0.14682361466E+02  0.00000000000E+00 0. -1.
         25    2    1    2    0    0  0.98501960777E+02 -0.29687432339E+02  0.75259485802E+03  0.76982500379E+03  0.12509011241E+03 0.  0.
          5    1    3    3  502    0  0.72766152931E+02  0.36116717172E+01  0.16153513193E+03  0.17725413516E+03  0.41800000000E+01 0.  1.
         -5    1    3    3    0  502  0.25735807846E+02 -0.33299104056E+02  0.59105972610E+03  0.59257086863E+03  0.41800000000E+01 0.  1.
        -11    1    1    2    0    0 -0.10995958148E+02  0.44801870241E+02  0.26617193818E+03  0.27013999953E+03  0.00000000000E+00 0. -1.
         11    1    1    2    0    0 -0.87506002629E+02 -0.15114437902E+02  0.47872648074E+03  0.48689299655E+03  0.00000000000E+00 0.  1.
</event>
<event>
 7    1  0.2688177E-009  0.1288626E+03  0.7561462E-02  0.1229153E+00
         -2   -1    0    0    0  501 -0.00000000000E+00  0.00000000000E+00  0.30290656130E+02  0.30290656130E+02  0.00000000000E+00 0.  1.
          2   -1    0    0  501    0  0.00000000000E+00 -0.00000000000E+00 -0.61360827813E+03  0.61360827813E+03  0.00000000000E+00 0. -1.
         25    2    1    2    0    0 -0.26083039604E+02  0.68850479345E+02 -0.23589684610E+03  0.27697580772E+03  0.12509021785E+03 0.  0.
          5    1    3    3  502    0  0.37565841341E+02  0.71532987346E+02 -0.14199980079E+03  0.16343064749E+03  0.41800000000E+01 0.  1.
         -5    1    3    3    0  502 -0.63648880944E+02 -0.26825080008E+01 -0.93897045308E+02  0.11354516023E+03  0.41800000000E+01 0.  1.
        -11    1    1    2    0    0  0.11742167618E+02  0.19883814193E+02 -0.35830755776E+02  0.42627310808E+02  0.00000000000E+00 0. -1.
         11    1    1    2    0    0  0.14340871986E+02 -0.88734293538E+02 -0.31159002012E+03  0.32429581573E+03  0.00000000000E+00 0.  1.
</event>
<event>
 7    1  0.2688177E-009  0.1123191E+03  0.7561462E-02  0.1256335E+00
         -1   -1    0    0    0  501 -0.00000000000E+00  0.00000000000E+00  0.28550826840E+02  0.28550826840E+02  0.00000000000E+00 0.  1.
          1   -1    0    0  501    0  0.00000000000E+00 -0.00000000000E+00 -0.65297869070E+03  0.65297869070E+03  0.00000000000E+00 0. -1.
         25    2    1    2    0    0  0.52639005738E+02  0.47912242282E+02 -0.44150323538E+03  0.46436925348E+03  0.12508896367E+03 0.  0.
          5    1    3    3  502    0 -0.25687420577E+02  0.42163140690E+02 -0.77640599833E+02  0.92103795531E+02  0.41800000000E+01 0. -1.
         -5    1    3    3    0  502  0.78326426315E+02  0.57491015923E+01 -0.36386263555E+03  0.37226545795E+03  0.41800000000E+01 0. -1.
        -11    1    1    2    0    0 -0.28374053028E+02 -0.62140947804E+02 -0.59565228723E+02  0.90634434692E+02  0.00000000000E+00 0.  1.
         11    1    1    2    0    0 -0.24264952710E+02  0.14228705521E+02 -0.12335939976E+03  0.12652582937E+03  0.00000000000E+00 0. -1.
</event>
<event>
 7    1  0.2688177E-009  0.1087587E+03  0.7561462E-02  0.1262886E+00
          2   -1    0    0  501    0  0.00000000000E+00  0.00000000000E+00  0.46354618569E+03  0.46354618569E+03  0.00000000000E+00 0. -1.
         -2   -1    0    0    0  501 -0.00000000000E+00 -0.00000000000E+00 -0.38220102940E+02  0.38220102940E+02  0.00000000000E+00 0.  1.
         25    2    1    2    0    0 -0.47304115141E+02  0.39309209778E+01  0.12204023047E+03  0.18109037107E+03  0.12508706245E+03 0.  0.
          5    1    3    3  502    0  0.26876236674E+02 -0.29247726165E+02  0.80197107484E+02  0.89592466382E+02  0.41800000000E+01 0. -1.
         -5    1    3    3    0  502 -0.74180351815E+02  0.33178647143E+02  0.41843122986E+02  0.91497904691E+02  0.41800000000E+01 0. -1.
        -11    1    1    2    0    0  0.55190465992E+02  0.28999665206E+02  0.24906877889E+03  0.25675323705E+03  0.00000000000E+00 0. -1.
         11    1    1    2    0    0 -0.78863508510E+01 -0.32930586184E+02  0.54217073389E+02  0.63922680505E+02  0.00000000000E+00 0.  1.
</event>
<event>
 7    1  0.2688177E-009  0.8934090E+02  0.7561462E-02  0.1304456E+00
          2   -1    0    0  501    0  0.00000000000E+00  0.00000000000E+00  0.90091193594E+03  0.90091193594E+03  0.00000000000E+00 0. -1.
         -2   -1    0    0    0  501 -0.00000000000E+00 -0.00000000000E+00 -0.17312414978E+02  0.17312414978E+02  0.00000000000E+00 0.  1.
         25    2    1    2    0    0  0.13255473948E+02  0.30252743859E+02  0.68227494424E+03  0.69443399725E+03  0.12509412813E+03 0.  0.
          5    1    3    3  502    0 -0.11868981336E+02 -0.46666961685E+02  0.26093453673E+03  0.26537328971E+03  0.41800000000E+01 0.  1.
         -5    1    3    3    0  502  0.25124455283E+02  0.76919705544E+02  0.42134040751E+03  0.42906070754E+03  0.41800000000E+01 0.  1.
        -11    1    1    2    0    0 -0.29660837013E+01 -0.36934010622E+02  0.20698776687E+03  0.21027804077E+03  0.00000000000E+00 0. -1.
         11    1    1    2    0    0 -0.10289390246E+02  0.66812667630E+01 -0.56631901558E+01  0.13512312901E+02  0.00000000000E+00 0.  1.
</event>
<event>
 7    1  0.2688177E-009  0.1535865E+03  0.7561462E-02  0.1196134E+00
         -1   -1    0    0    0  501 -0.00000000000E+00  0.00000000000E+00  0.23728556456E+02  0.23728556456E+02  0.00000000000E+00 0.  1.
          1   -1    0    0  501    0  0.00000000000E+00 -0.00000000000E+00 -0.12959963040E+04  0.12959963040E+04  0.00000000000E+00 0. -1.
         25    2    1    2    0    0  0.75789371225E+02 -0.10716151165E+03 -0.52681829490E+03  0.55714615402E+03  0.12508678083E+03 0.  0.
          5    1    3    3  502    0  0.85344995241E+02 -0.70242929258E+02 -0.49528408854E+03  0.50748560382E+03  0.41800000000E+01 0.  1.
         -5    1    3    3    0  502 -0.95556240158E+01 -0.36918582391E+02 -0.31534206355E+02  0.49660550204E+02  0.41800000000E+01 0.  1.
        -11    1    1    2    0    0 -0.65175135991E+01  0.85311322495E+02 -0.46933240998E+03  0.47706751178E+03  0.00000000000E+00 0.  1.
         11    1    1    2    0    0 -0.69271857626E+02  0.21850189153E+02 -0.27611704265E+03  0.28551119464E+03  0.00000000000E+00 0. -1.
</event>
<event>
 7    1  0.2688177E-009  0.7707634E+02  0.7561462E-02  0.1337559E+00
         -3   -1    0    0    0  501 -0.00000000000E+00  0.00000000000E+00  0.20842476865E+03  0.20842476865E+03  0.00000000000E+00 0.  1.
          3   -1    0    0  501    0  0.00000000000E+00 -0.00000000000E+00 -0.72810914061E+02  0.72810914061E+02  0.00000000000E+00 0. -1.
         25    2    1    2    0    0 -0.91596293537E+01  0.53595703052E+02  0.10431191386E+03  0.17171100411E+03  0.12508914967E+03 0.  0.
          5    1    3    3  502    0 -0.30552031962E+02  0.49674395336E+02  0.12711902916E+03  0.13992030654E+03  0.41800000000E+01 0. -1.
         -5    1    3    3    0  502  0.21392402608E+02  0.39213077164E+01 -0.22807115299E+02  0.31790697568E+02  0.41800000000E+01 0. -1.
        -11    1    1    2    0    0  0.28847944209E+02 -0.41120247273E+02  0.56229407734E+02  0.75397777918E+02  0.00000000000E+00 0.  1.
         11    1    1    2    0    0 -0.19688314855E+02 -0.12475455780E+02 -0.24927467006E+02  0.34126900681E+02  0.00000000000E+00 0. -1.
</event>
<event>
 7    1  0.2688177E-009  0.9048250E+02  0.7561462E-02  0.1301687E+00
         -3   -1    0    0    0  501 -0.00000000000E+00  0.00000000000E+00  0.13057454341E+03  0.13057454341E+03  0.00000000000E+00 0.  1.
          3   -1    0    0  501    0  0.00000000000E+00 -0.00000000000E+00 -0.10164821148E+03  0.10164821148E+03  0.00000000000E+00 0. -1.
         25    2    1    2    0    0 -0.34167109285E+02 -0.17611933149E+02  0.74999907967E+01  0.13107612941E+03  0.12508848985E+03 0.  0.
          5    1    3    3  502    0  0.12691719510E+02  0.34824573250E+02 -0.33012299594E+02  0.49810791709E+02  0.41800000000E+01 0.  1.
         -5    1    3    3    0  502 -0.46858828796E+02 -0.52436506399E+02  0.40512290391E+02  0.81265337704E+02  0.41800000000E+01 0.  1.
        -11    1    1    2    0    0 -0.14193832332E+02  0.20313688631E+02  0.41804882890E+02  0.48597932626E+02  0.00000000000E+00 0.  1.
         11    1    1    2    0    0  0.48360941618E+02 -0.27017554825E+01 -0.20378541754E+02  0.52548692856E+02  0.00000000000E+00 0. -1.
</event>
<event>
 7    1  0.2688177E-009  0.1180668E+03  0.7561462E-02  0.1246321E+00
          2   -1    0    0  501    0  0.00000000000E+00  0.00000000000E+00  0.98087033178E+03  0.98087033178E+03  0.00000000000E+00 0. -1.
         -2   -1    0    0    0  501 -0.00000000000E+00 -0.00000000000E+00 -0.19392422036E+02  0.19392422036E+02  0.00000000000E+00 0.  1.
         25    2    1    2    0    0 -0.49657495073E+02 -0.13179402466E+02  0.77348229855E+03  0.78521469925E+03  0.12509074418E+03 0.  0.
          5    1    3    3  502    0 -0.73513606959E+02 -0.49729412446E+02  0.58434822363E+03  0.59106478810E+03  0.41800000000E+01 0. -1.
         -5    1    3    3    0  502  0.23856111886E+02  0.36550009979E+02  0.18913407493E+03  0.19414991116E+03  0.41800000000E+01 0. -1.
        -11    1    1    2    0    0  0.24775604541E+02 -0.38669088537E+02  0.98302751138E+02  0.10850142796E+03  0.00000000000E+00 0. -1.
         11    1    1    2    0    0  0.24881890532E+02  0.51848491003E+02  0.89692860050E+02  0.10654662660E+03  0.00000000000E+00 0.  1.
</event>
<event>
 7    1  0.2688177E-009  0.1443851E+03  0.7561462E-02  0.1207547E+00
          1   -1    0    0  501    0  0.00000000000E+00  0.00000000000E+00  0.15937880050E+03  0.15937880050E+03  0.00000000000E+00 0. -1.
         -1   -1    0    0    0  501 -0.00000000000E+00 -0.00000000000E+00 -0.19194721824E+03  0.19194721824E+03  0.00000000000E+00 0.  1.
         25    2    1    2    0    0 -0.70002173439E+02  0.10930883270E+03  0.26186407436E+02  0.18215655662E+03  0.12508620224E+03 0.  0.
          5    1    3    3  502    0 -0.62037950725E+02  0.39652850428E+02  0.68088724633E+02  0.10037232038E+03  0.41800000000E+01 0. -1.
         -5    1    3    3    0  502 -0.79642227149E+01  0.69655982274E+02 -0.41902317197E+02  0.81784236235E+02  0.41800000000E+01 0. -1.
        -11    1    1    2    0    0  0.31303756091E+02 -0.10027910335E+03 -0.71915019828E+02  0.12730904835E+03  0.00000000000E+00 0. -1.
         11    1    1    2    0    0  0.38698417349E+02 -0.90297293487E+01  0.13160194659E+02  0.41860413769E+02  0.00000000000E+00 0.  1.
</event>
<event>
 7    1  0.2688177E-009  0.1137322E+03  0.7561462E-02  0.1253810E+00
          2   -1    0    0  501    0  0.00000000000E+00  0.00000000000E+00  0.47827530795E+02  0.47827530795E+02  0.00000000000E+00 0. -1.
         -2   -1    0    0    0  501 -0.00000000000E+00 -0.00000000000E+00 -0.80294516765E+03  0.80294516765E+03  0.00000000000E+00 0.  1.
         25    2    1    2    0    0 -0.43060881146E+02  0.54965794713E+02 -0.71955079435E+03  0.73367316574E+03  0.12508992931E+03 0.  0.
          5    1    3    3  502    0  0.36226986921E+02 -0.86328406023E+01 -0.12552952688E+03  0.13100402680E+03  0.41800000000E+01 0.  1.
         -5    1    3    3    0  502 -0.79287868068E+02  0.63598635315E+02 -0.59402126747E+03  0.60266913895E+03  0.41800000000E+01 0.  1.
        -11    1    1    2    0    0  0.10442890563E+02 -0.54651732958E+02 -0.55730374517E+02  0.78751130293E+02  0.00000000000E+00 0.  1.
         11    1    1    2    0    0  0.32617990583E+02 -0.31406175451E+00  0.20163532006E+02  0.38348402410E+02  0.00000000000E+00 0. -1.
</event>
<event>
 7    1  0.2688177E-009  0.1583744E+03  0.7561462E-02  0.1190544E+00
         -1   -1    0    0    0  501 -0.00000000000E+00  0.00000000000E+00  0.41479139408E+02  0.41479139408E+02  0.00000000000E+00 0.  1.
          1   -1    0    0  501    0  0.00000000000E+00 -0.00000000000E+00 -0.76202769583E+03  0.76202769583E+03  0.00000000000E+00 0. -1.
         25    2    1    2    0    0  0.76332985823E+02  0.11649178986E+03 -0.34539229429E+03  0.39286097413E+03  0.12508735433E+03 0.  0.
          5    1    3    3  502    0  0.84854268472E+02  0.98064547008E+02 -0.15854736612E+03  0.20486981710E+03  0.41800000000E+01 0. -1.
         -5    1    3    3    0  502 -0.85212826491E+01  0.18427242855E+02 -0.18684492817E+03  0.18799115703E+03  0.41800000000E+01 0. -1.
        -11    1    1    2    0    0 -0.21345484093E+02 -0.10865315374E+03 -0.26731080121E+03  0.28933752254E+03  0.00000000000E+00 0.  1.
         11    1    1    2    0    0 -0.54987501731E+02 -0.78386361277E+01 -0.10784546092E+03  0.12130833856E+03  0.00000000000E+00 0. -1.
</event>
<event>
 7    1  0.2688177E-009  0.1035569E+03  0.7561462E-02  0.1272989E+00
          1   -1    0    0  501    0  0.00000000000E+00  0.00000000000E+00  0.46141362012E+03  0.46141362012E+03  0.00000000000E+00 0. -1.
         -1   -1    0    0    0  501 -0.00000000000E+00 -0.00000000000E+00 -0.59654919685E+02  0.59654919685E+02  0.00000000000E+00 0.  1.
         25    2    1    2    0    0  0.33550496724E+02 -0.18848195565E+02  0.39482598765E+03  0.41595138701E+03  0.12508839085E+03 0.  0.
          5    1    3    3  502    0  0.27988169631E+02 -0.60106752718E+02  0.34284671299E+03  0.34922414059E+03  0.41800000000E+01 0. -1.
         -5    1    3    3    0  502  0.55623270928E+01  0.41258557152E+02  0.51979274659E+02  0.66727246422E+02  0.41800000000E+01 0. -1.
        -11    1    1    2    0    0 -0.21484963052E+02  0.55891516577E+02 -0.13121892934E+02  0.61299668326E+02  0.00000000000E+00 0.  1.
         11    1    1    2    0    0 -0.12065533672E+02 -0.37043321012E+02  0.20054605715E+02  0.43817484464E+02  0.00000000000E+00 0. -1.
</event>
<event>
 7    1  0.2688177E-009  0.1251918E+03  0.7561462E-02  0.1234770E+00
         -1   -1    0    0    0  501 -0.00000000000E+00  0.00000000000E+00  0.78845871280E+02  0.78845871280E+02  0.00000000000E+00 0.  1.
          1   -1    0    0  501    0  0.00000000000E+00 -0.00000000000E+00 -0.31893790002E+03  0.31893790002E+03  0.00000000000E+00 0. -1.
         25    2    1    2    0    0  0.83998426749E+02  0.61959222305E+02 -0.68435361047E+02  0.17671405217E+03  0.12509906742E+03 0.  0.
          5    1    3    3  502    0  0.58948184358E+02  0.13313350281E+02 -0.97370809860E+02  0.11467641757E+03  0.41800000000E+01 0.  1.
         -5    1    3    3    0  502  0.25050242391E+02  0.48645872025E+02  0.28935448813E+02  0.62037634601E+02  0.41800000000E+01 0.  1.
        -11    1    1    2    0    0 -0.44380819240E+02 -0.79932008568E+02 -0.14023276504E+03  0.16740373801E+03  0.00000000000E+00 0. -1.
         11    1    1    2    0    0 -0.39617607509E+02  0.17972786263E+02 -0.31423902655E+02  0.53665981113E+02  0.00000000000E+00 0.  1.
</event>
<event>
 7    1  0.2688177E-009  0.8517171E+02  0.7561462E-02  0.1314984E+00
          3   -1    0    0  501    0  0.00000000000E+00  0.00000000000E+00  0.50004561706E+02  0.50004561706E+02  0.00000000000E+00 0. -1.
         -3   -1    0    0    0  501 -0.00000000000E+00 -0.00000000000E+00 -0.31681621934E+03  0.31681621934E+03  0.00000000000E+00 0.  1.
         25    2    1    2    0    0 -0.21122848770E+02 -0.36693371871E+02 -0.21725085965E+03  0.25423307790E+03  0.12507575145E+03 0.  0.
          5    1    3    3  502    0  0.12609330538E+02  0.12053618568E+02 -0.18642610320E+03  0.18728707721E+03  0.41800000000E+01 0.  1.
         -5    1    3    3    0  502 -0.33732179308E+02 -0.48746990439E+02 -0.30824756451E+02  0.66946000687E+02  0.41800000000E+01 0.  1.
        -11    1    1    2    0    0  0.33744819384E+02 -0.17025619095E+02 -0.42629075823E+02  0.56972121659E+02  0.00000000000E+00 0.  1.
         11    1    1    2    0    0 -0.12621970615E+02  0.53718990966E+02 -0.69317221691E+01  0.55615581494E+02  0.00000000000E+00 0. -1.
</event>
<event>
 7    1  0.2688177E-009  0.2265546E+03  0.7561462E-02  0.1129089E+00
          2   -1    0    0  501    0  0.00000000000E+00  0.00000000000E+00  0.84445775796E+03  0.84445775796E+03  0.00000000000E+00 0. -1.
         -2   -1    0    0    0  501 -0.00000000000E+00 -0.00000000000E+00 -0.78180722003E+02  0.78180722003E+02  0.00000000000E+00 0.  1.
         25    2    1    2    0    0  0.18901406032E+03 -0.10742990701E+03  0.54399208603E+03  0.59903452714E+03  0.12508986822E+03 0.  0.
          5    1    3    3  502    0  0.14401120185E+03 -0.10097596048E+03  0.51672924611E+03  0.54585891679E+03  0.41800000000E+01 0.  1.
         -5    1    3    3    0  502  0.45002858468E+02 -0.64539465255E+01  0.27262839918E+02  0.53175610353E+02  0.41800000000E+01 0.  1.
        -11    1    1    2    0    0 -0.10659511134E+03  0.14941698577E+02  0.13194494811E+03  0.17027989151E+03  0.00000000000E+00 0.  1.
         11    1    1    2    0    0 -0.82418948981E+02  0.92488208431E+02  0.90340001815E+02  0.15332406131E+03  0.00000000000E+00 0. -1.
</event>
<event>
 7    1  0.2688177E-009  0.1451201E+03  0.7561462E-02  0.1206601E+00
         -2   -1    0    0    0  501 -0.00000000000E+00  0.00000000000E+00  0.21525480388E+02  0.21525480388E+02  0.00000000000E+00 0.  1.
          2   -1    0    0  501    0  0.00000000000E+00 -0.00000000000E+00 -0.10396805163E+04  0.10396805163E+04  0.00000000000E+00 0. -1.
         25    2    1    2    0    0  0.15731162673E+02 -0.99792012341E+02 -0.58825561247E+03  0.60983457998E+03  0.12509050375E+03 0.  0.
          5    1    3    3  502    0  0.59717268772E+02 -0.89623453875E+02 -0.31712394565E+03  0.33493818083E+03  0.41800000000E+01 0. -1.
         -5    1    3    3    0  502 -0.43986106098E+02 -0.10168558466E+02 -0.27113166682E+03  0.27489639915E+03  0.41800000000E+01 0. -1.
        -11    1    1    2    0    0  0.21483697379E+02  0.97499134813E+02 -0.32837747373E+03  0.34321916583E+03  0.00000000000E+00 0. -1.
         11    1    1    2    0    0 -0.37214860053E+02  0.22928775277E+01 -0.10152194969E+03  0.10815225085E+03  0.00000000000E+00 0.  1.
</event>
<event>
 7    1  0.2688177E-009  0.1183734E+03  0.7561462E-02  0.1245805E+00
          2   -1    0    0  501    0  0.00000000000E+00  0.00000000000E+00  0.29499047471E+03  0.29499047471E+03  0.00000000000E+00 0. -1.
         -2   -1    0    0    0  501 -0.00000000000E+00 -0.00000000000E+00 -0.60794668751E+02  0.60794668751E+02  0.00000000000E+00 0.  1.
         25    2    1    2    0    0  0.90184518921E+02 -0.45072282648E+02  0.12345265342E+03  0.20261058441E+03  0.12508290515E+03 0.  0.
          5    1    3    3  502    0  0.95598392410E+02 -0.97655473087E+01  0.27350346381E+02  0.99999661964E+02  0.41800000000E+01 0. -1.
         -5    1    3    3    0  502 -0.54138734894E+01 -0.35306735340E+02  0.96102307041E+02  0.10261092245E+03  0.41800000000E+01 0. -1.
        -11    1    1    2    0    0 -0.22342472970E+02 -0.13647058489E+01  0.14842138218E+02  0.26857728633E+02  0.00000000000E+00 0.  1.
         11    1    1    2    0    0 -0.67842045951E+02  0.46436988497E+02  0.95901014319E+02  0.12631683042E+03  0.00000000000E+00 0. -1.
</event>
<event>
 7    1  0.2688177E-009  0.1193868E+03  0.7561462E-02  0.1244112E+00
          2   -1    0    0  501    0  0.00000000000E+00  0.00000000000E+00  0.24754063791E+03  0.24754063791E+03  0.00000000000E+00 0. -1.
         -2   -1    0    0    0  501 -0.00000000000E+00 -0.00000000000E+00 -0.88256179170E+02  0.88256179170E+02  0.00000000000E+00 0.  1.
         25    2    1    2    0    0  0.85509950745E+02  0.34070826395E+02  0.46223862124E+02  0.16204324374E+03  0.12509434249E+03 0.  0.
          5    1    3    3  502    0  0.56156790299E+02  0.66595016421E+02  0.70173285248E+02  0.11193857097E+03  0.41800000000E+01 0.  1.
         -5    1    3    3    0  502  0.29353160446E+02 -0.32524190026E+02 -0.23949423124E+02  0.50104672766E+02  0.41800000000E+01 0.  1.
        -11    1    1    2    0    0 -0.34721814897E+02  0.14171887873E+02 -0.36034114145E+01  0.37675342194E+02  0.00000000000E+00 0.  1.
         11    1    1    2    0    0 -0.50788135848E+02 -0.48242714268E+02  0.11666400803E+03  0.13607823115E+03  0.00000000000E+00 0. -1.
</event>
<event>
 7    1  0.2688177E-009  0.1577865E+03  0.7561462E-02  0.1191219E+00
          1   -1    0    0  501    0  0.00000000000E+00  0.00000000000E+00  0.18627156877E+03  0.18627156877E+03  0.00000000000E+00 0. -1.
         -1   -1    0    0    0  501 -0.00000000000E+00 -0.00000000000E+00 -0.18356319090E+03  0.18356319090E+03  0.00000000000E+00 0.  1.
         25    2    1    2    0    0 -0.14545206859E+03 -0.26179225772E+02  0.27640327338E+02  0.19559051980E+03  0.12509999048E+03 0.  0.
          5    1    3    3  502    0 -0.10390165716E+03  0.58055824873E+01 -0.38541866952E+02  0.11105047076E+03  0.41800000000E+01 0. -1.
         -5    1    3    3    0  502 -0.41550411432E+02 -0.31984808259E+02  0.66182194290E+02  0.84540049034E+02  0.41800000000E+01 0. -1.
        -11    1    1    2    0    0  0.10369824210E+03 -0.91876139469E+01  0.16768831721E+02  0.10544634361E+03  0.00000000000E+00 0. -1.
         11    1    1    2    0    0  0.41753826497E+02  0.35366839719E+02 -0.41700781189E+02  0.68797896266E+02  0.00000000000E+00 0.  1.
</event>
<event>
 7    1  0.2688177E-009  0.2045059E+03  0.7561462E-02  0.1145992E+00
          2   -1    0    0  501    0  0.00000000000E+00  0.00000000000E+00  0.37174245047E+03  0.37174245047E+03  0.00000000000E+00 0. -1.
         -2   -1    0    0    0  501 -0.00000000000E+00 -0.00000000000E+00 -0.13092902444E+03  0.13092902444E+03  0.00000000000E+00 0.  1.
         25    2    1    2    0    0 -0.46101618393E+02  0.18112285816E+03  0.79703724807E+02  0.23860291198E+03  0.12509123428E+03 0.  0.
          5    1    3    3  502    0 -0.58776463656E+02  0.30637101097E+02 -0.27881055139E+01  0.66472178961E+02  0.41800000000E+01 0.  1.
         -5    1    3    3    0  502  0.12674845262E+02  0.15048575706E+03  0.82491830321E+02  0.17213073302E+03  0.41800000000E+01 0.  1.
        -11    1    1    2    0    0  0.37149863951E+01 -0.99321466350E+02  0.29989318528E+02  0.10381673289E+03  0.00000000000E+00 0.  1.
         11    1    1    2    0    0  0.42386631998E+02 -0.81801391811E+02  0.13112038269E+03  0.16025183004E+03  0.00000000000E+00 0. -1.
</event>
<event>
 7    1  0.3498179E-009  0.1972024E+03  0.7561462E-02  0.1152121E+00
          1   -1    0    0  501    0  0.00000000000E+00  0.00000000000E+00  0.77745877405E+03  0.77745877405E+03  0.00000000000E+00 0. -1.
         -1   -1    0    0    0  501 -0.00000000000E+00 -0.00000000000E+00 -0.73591482267E+02  0.73591482267E+02  0.00000000000E+00 0.  1.
         25    2    1    2    0    0  0.11373563452E+03 -0.13592071341E+03  0.57261853824E+03  0.61233120885E+03  0.12508910468E+03 0.  0.
          5    1    3    3  502    0  0.13850653077E+03 -0.94067309841E+02  0.42292887435E+03  0.45488352686E+03  0.41800000000E+01 0. -1.
         -5    1    3    3    0  502 -0.24770896253E+02 -0.41853403565E+02  0.14968966389E+03  0.15744768199E+03  0.41800000000E+01 0. -1.
        -11    1    1    2    0    0 -0.86592162532E+02  0.90930462460E+02  0.13702790914E+03  0.18585800897E+03  0.00000000000E+00 0. -1.
         11    1    1    2    0    0 -0.27143471985E+02  0.44990250946E+02 -0.57791555921E+01  0.52861038497E+02  0.00000000000E+00 0.  1.
</event>
<event>
 7    1  0.2688177E-009  0.1657053E+03  0.7561462E-02  0.1182402E+00
         -1   -1    0    0    0  501 -0.00000000000E+00  0.00000000000E+00  0.14222968904E+03  0.14222968904E+03  0.00000000000E+00 0.  1.
          1   -1    0    0  501    0  0.00000000000E+00 -0.00000000000E+00 -0.23802392082E+03  0.23802392082E+03  0.00000000000E+00 0. -1.
         25    2    1    2    0    0 -0.77300247493E+02 -0.12225942362E+03 -0.15069324907E+02  0.19182514178E+03  0.12508839090E+03 0.  0.
          5    1    3    3  502    0 -0.94878689854E+02 -0.13470927299E+03 -0.26733355339E+02  0.16697514398E+03  0.41800000000E+01 0.  1.
         -5    1    3    3    0  502  0.17578442361E+02  0.12449849366E+02  0.11664030431E+02  0.24849997807E+02  0.41800000000E+01 0.  1.
        -11    1    1    2    0    0  0.41402454515E+02  0.65563918901E+02 -0.92068379196E+02  0.12037182872E+03  0.00000000000E+00 0.  1.
         11    1    1    2    0    0  0.35897792978E+02  0.56695504724E+02  0.11343472323E+02  0.68056639359E+02  0.00000000000E+00 0. -1.
</event>
<event>
 7    1  0.2688177E-009  0.1288989E+03  0.7561462E-02  0.1229099E+00
         -1   -1    0    0    0  501 -0.00000000000E+00  0.00000000000E+00  0.53454605473E+03  0.53454605473E+03  0.00000000000E+00 0.  1.
          1   -1    0    0  501    0  0.00000000000E+00 -0.00000000000E+00 -0.49425286936E+02  0.49425286936E+02  0.00000000000E+00 0. -1.
         25    2    1    2    0    0  0.24298665497E+02  0.11831865929E+03  0.27441932307E+03  0.32487192965E+03  0.12508427367E+03 0.  0.
          5    1    3    3  502    0 -0.10370582809E+02  0.13324613113E+01 -0.10187293243E+02  0.15184787933E+02  0.41800000000E+01 0. -1.
         -5    1    3    3    0  502  0.34669248307E+02  0.11698619798E+03  0.28460661631E+03  0.30968714172E+03  0.41800000000E+01 0. -1.
        -11    1    1    2    0    0 -0.31153931947E+02 -0.87561945095E+02  0.73965459323E+02  0.11877942110E+03  0.00000000000E+00 0. -1.
         11    1    1    2    0    0  0.68552664490E+01 -0.30756714197E+02  0.13673598540E+03  0.14031999092E+03  0.00000000000E+00 0.  1.
</event>
<event>
 7    1  0.2688177E-009  0.1013761E+03  0.7561462E-02  0.1277428E+00
          1   -1    0    0  501    0  0.00000000000E+00  0.00000000000E+00  0.85121677608E+02  0.85121677608E+02  0.00000000000E+00 0. -1.
         -1   -1    0    0    0  501 -0.00000000000E+00 -0.00000000000E+00 -0.22532921410E+03  0.22532921410E+03  0.00000000000E+00 0.  1.
         25    2    1    2    0    0  0.31565404507E+02 -0.61016733238E+02 -0.17531054252E+02  0.14378348681E+03  0.12508771610E+03 0.  0.
          5    1    3    3  502    0  0.66044524829E+02 -0.40907915170E+02  0.28370654679E+02  0.82811250627E+02  0.41800000000E+01 0. -1.
         -5    1    3    3    0  502 -0.34479120322E+02 -0.20108818068E+02 -0.45901708931E+02  0.60972236182E+02  0.41800000000E+01 0. -1.
        -11    1    1    2    0    0 -0.33305860116E+02  0.11445128989E+02 -0.95844670408E+00  0.35230525340E+02  0.00000000000E+00 0. -1.
         11    1    1    2    0    0  0.17404556087E+01  0.49571604249E+02 -0.12171803553E+03  0.13143687956E+03  0.00000000000E+00 0.  1.
</event>
<event>
 7    1  0.2688177E-009  0.1486874E+03  0.7561462E-02  0.1202095E+00
         -1   -1    0    0    0  501 -0.00000000000E+00  0.00000000000E+00  0.11201541821E+03  0.11201541821E+03  0.00000000000E+00 0. -1.
          1   -1    0    0  501    0  0.00000000000E+00 -0.00000000000E+00 -0.24458919107E+03  0.24458919107E+03  0.00000000000E+00 0.  1.
         25    2    1    2    0    0  0.85964478547E+02 -0.81814233689E+02 -0.10364967752E+03  0.20118153137E+03  0.12508913825E+03 0.  0.
          5    1    3    3  502    0  0.54828871846E+01 -0.90029609779E+02 -0.66053533680E+02  0.11187463698E+03  0.41800000000E+01 0. -1.
         -5    1    3    3    0  502  0.80481591362E+02  0.82153760901E+01 -0.37596143840E+02  0.89306894382E+02  0.41800000000E+01 0. -1.
        -11    1    1    2    0    0 -0.19205128484E+02 -0.15563845339E+01 -0.43548537524E+02  0.47620735120E+02  0.00000000000E+00 0.  1.
         11    1    1    2    0    0 -0.66759350063E+02  0.83370618223E+02  0.14624442184E+02  0.10780234280E+03  0.00000000000E+00 0. -1.
</event>
<event>
 7    1  0.2688177E-009  0.8872769E+02  0.7561462E-02  0.1305962E+00
         -3   -1    0    0    0  501 -0.00000000000E+00  0.00000000000E+00  0.72232108218E+02  0.72232108218E+02  0.00000000000E+00 0.  1.
          3   -1    0    0  501    0  0.00000000000E+00 -0.00000000000E+00 -0.20609342451E+03  0.20609342451E+03  0.00000000000E+00 0. -1.
         25    2    1    2    0    0 -0.20105367827E+02  0.43385924102E+02 -0.10519832583E+03  0.17028988437E+03  0.12508154435E+03 0.  0.
          5    1    3    3  502    0 -0.43109744595E+02  0.17258653968E+02 -0.12258651912E+03  0.13115349132E+03  0.41800000000E+01 0. -1.
         -5    1    3    3    0  502  0.23004376769E+02  0.26127270133E+02  0.17388193289E+02  0.39136393050E+02  0.41800000000E+01 0. -1.
        -11    1    1    2    0    0  0.52283966217E+02 -0.19946375145E+02  0.46132743021E+01  0.56149383831E+02  0.00000000000E+00 0.  1.
         11    1    1    2    0    0 -0.32178598390E+02 -0.23439548956E+02 -0.33276264759E+02  0.51886264521E+02  0.00000000000E+00 0. -1.
</event>
<event>
 7    1  0.2688177E-009  0.7570726E+02  0.7561462E-02  0.1341695E+00
         -1   -1    0    0    0  501 -0.00000000000E+00  0.00000000000E+00  0.67836379240E+02  0.67836379240E+02  0.00000000000E+00 0.  1.
          1   -1    0    0  501    0  0.00000000000E+00 -0.00000000000E+00 -0.19882888799E+03  0.19882888799E+03  0.00000000000E+00 0. -1.
         25    2    1    2    0    0  0.19011178419E+02 -0.41345320728E+02 -0.74662687774E+02  0.15259802519E+03  0.12506310366E+03 0.  0.
          5    1    3    3  502    0  0.21446437312E+02 -0.42856837533E+02  0.24031348603E+02  0.53773937110E+02  0.41800000000E+01 0.  1.
         -5    1    3    3    0  502 -0.24352588921E+01  0.15115168047E+01 -0.98694036377E+02  0.98824088082E+02  0.41800000000E+01 0.  1.
        -11    1    1    2    0    0  0.13436966687E+02  0.59541523768E+02 -0.27235651858E+02  0.66839553099E+02  0.00000000000E+00 0.  1.
         11    1    1    2    0    0 -0.32448145106E+02 -0.18196203040E+02 -0.29094169123E+02  0.47227688943E+02  0.00000000000E+00 0. -1.
</event>
<event>
 7    1  0.2688177E-009  0.1351206E+03  0.7561462E-02  0.1220049E+00
          1   -1    0    0  501    0  0.00000000000E+00  0.00000000000E+00  0.28656565053E+03  0.28656565053E+03  0.00000000000E+00 0.  1.
         -1   -1    0    0    0  501 -0.00000000000E+00 -0.00000000000E+00 -0.80061494480E+02  0.80061494480E+02  0.00000000000E+00 0. -1.
         25    2    1    2    0    0 -0.10974682066E+03 -0.15293047362E+02  0.13815987466E+03  0.21682656615E+03  0.12508943551E+03 0.  0.
          5    1    3    3  502    0 -0.10393835158E+03 -0.40026226372E+02  0.45041951215E+02  0.12021451450E+03  0.41800000000E+01 0. -1.
         -5    1    3    3    0  502 -0.58084690839E+01  0.24733179009E+02  0.93117923447E+02  0.96612051650E+02  0.41800000000E+01 0. -1.
        -11    1    1    2    0    0  0.38127618779E+02 -0.29810322247E+02  0.20355986369E+02  0.52504636055E+02  0.00000000000E+00 0.  1.
         11    1    1    2    0    0  0.71619201882E+02  0.45103369610E+02  0.47988295021E+02  0.97295942810E+02  0.00000000000E+00 0. -1.
</event>
<event>
 6    1  0.2688177E-009  0.9925399E+02  0.7561462E-02  0.1281873E+00
          1   -1    0    0  501    0  0.00000000000E+00  0.00000000000E+00  0.10635761891E+04  0.10635761891E+04  0.00000000000E+00 0. -1.
         -1   -1    0    0    0  501 -0.00000000000E+00 -0.00000000000E+00 -0.12024039365E+02  0.12024039365E+02  0.00000000000E+00 0.  1.
          5    1    1    2  502    0 -0.49321460366E+02 -0.55920064314E+01  0.44857196258E+03  0.45132931990E+03  0.41800000000E+01 0.  1.
         -5    1    1    2    0  502  0.62635499485E+02  0.26339143862E+02  0.26982559431E+03  0.27828093726E+03  0.41800000000E+01 0.  1.
        -11    1    1    2    0    0 -0.44494560687E+02 -0.26658366658E+01  0.26661257147E+03  0.27031303313E+03  0.00000000000E+00 0. -1.
         11    1    1    2    0    0  0.31180521568E+02 -0.18081300765E+02  0.66542021351E+02  0.75676938152E+02  0.00000000000E+00 0.  1.
</event>
<event>
 7    1  0.2688177E-009  0.1749148E+03  0.7561462E-02  0.1172817E+00
         -2   -1    0    0    0  501 -0.00000000000E+00  0.00000000000E+00  0.15207827010E+02  0.15207827010E+02  0.00000000000E+00 0.  1.
          2   -1    0    0  501    0  0.00000000000E+00 -0.00000000000E+00 -0.35864964621E+04  0.35864964621E+04  0.00000000000E+00 0. -1.
         25    2    1    2    0    0 -0.15790365089E+03 -0.24776369332E+02 -0.28472823337E+04  0.28545060046E+04  0.12506162967E+03 0.  0.
          5    1    3    3  502    0 -0.11658167247E+03 -0.38572655418E+02 -0.26295440470E+04  0.26324130572E+04  0.41800000000E+01 0.  1.
         -5    1    3    3    0  502 -0.41321978422E+02  0.13796286085E+02 -0.21773828665E+03  0.22209294740E+03  0.41800000000E+01 0.  1.
        -11    1    1    2    0    0  0.65988492902E+02  0.55560364267E+02 -0.29352479042E+03  0.30593829094E+03  0.00000000000E+00 0.  1.
         11    1    1    2    0    0  0.91915157992E+02 -0.30783994935E+02 -0.43048151099E+03  0.44125999356E+03  0.00000000000E+00 0. -1.
</event>
<event>
 7    1  0.2688177E-009  0.1162583E+03  0.7561462E-02  0.1249400E+00
          1   -1    0    0  501    0  0.00000000000E+00  0.00000000000E+00  0.21963622381E+03  0.21963622381E+03  0.00000000000E+00 0. -1.
         -1   -1    0    0    0  501 -0.00000000000E+00 -0.00000000000E+00 -0.76757338883E+02  0.76757338883E+02  0.00000000000E+00 0.  1.
         25    2    1    2    0    0  0.56132151500E+02 -0.46785392093E+02  0.86536286549E+02  0.16874490717E+03  0.12508646394E+03 0.  0.
          5    1    3    3  502    0 -0.13415564049E+02  0.20667266079E+02  0.64675377861E+02  0.69336066714E+02  0.41800000000E+01 0. -1.
         -5    1    3    3    0  502  0.69547715549E+02 -0.67452658172E+02  0.21860908688E+02  0.99408840458E+02  0.41800000000E+01 0. -1.
        -11    1    1    2    0    0 -0.77516345378E+02  0.29095845641E+02  0.26590364454E+02  0.86962057911E+02  0.00000000000E+00 0.  1.
         11    1    1    2    0    0  0.21384193878E+02  0.17689546452E+02  0.29752233918E+02  0.40686597605E+02  0.00000000000E+00 0. -1.
</event>
<event>
 7    1  0.2688177E-009  0.1023061E+03  0.7561462E-02  0.1275520E+00
          1   -1    0    0  501    0  0.00000000000E+00  0.00000000000E+00  0.50012392195E+03  0.50012392195E+03  0.00000000000E+00 0. -1.
         -1   -1    0    0    0  501 -0.00000000000E+00 -0.00000000000E+00 -0.26774996104E+02  0.26774996104E+02  0.00000000000E+00 0.  1.
         25    2    1    2    0    0  0.11683783930E+02  0.47422328511E+02  0.31834775275E+03  0.34552028592E+03  0.12511430076E+03 0.  0.
          5    1    3    3  502    0 -0.15464918609E+02  0.72133837662E+02  0.28910947395E+03  0.29840277239E+03  0.41800000000E+01 0. -1.
         -5    1    3    3    0  502  0.27148702539E+02 -0.24711509151E+02  0.29238278800E+02  0.47117513530E+02  0.41800000000E+01 0. -1.
        -11    1    1    2    0    0  0.80774645093E+01 -0.66093783125E+02  0.11757115577E+03  0.13511702435E+03  0.00000000000E+00 0. -1.
         11    1    1    2    0    0 -0.19761248440E+02  0.18671454614E+02  0.37430017330E+02  0.46261607783E+02  0.00000000000E+00 0.  1.
</event>
<event>
 7    1  0.2688177E-009  0.1042074E+03  0.7561462E-02  0.1271689E+00
         -2   -1    0    0    0  501 -0.00000000000E+00  0.00000000000E+00  0.76534614388E+02  0.76534614388E+02  0.00000000000E+00 0.  1.
          2   -1    0    0  501    0  0.00000000000E+00 -0.00000000000E+00 -0.18566803651E+03  0.18566803651E+03  0.00000000000E+00 0. -1.
         25    2    1    2    0    0 -0.17509989827E+01 -0.79782403144E+01 -0.91945608716E+01  0.12569723904E+03  0.12509411512E+03 0.  0.
          5    1    3    3  502    0 -0.43083970293E+02 -0.49999454388E+02 -0.77838893663E+01  0.66590053829E+02  0.41800000000E+01 0. -1.
         -5    1    3    3    0  502  0.41332971311E+02  0.42021214073E+02 -0.14106715053E+01  0.59107185212E+02  0.41800000000E+01 0. -1.
        -11    1    1    2    0    0 -0.39445647434E+02 -0.55403894041E+01 -0.78741201016E+02  0.88243026658E+02  0.00000000000E+00 0. -1.
         11    1    1    2    0    0  0.41196646417E+02  0.13518629718E+02 -0.21197660229E+02  0.48262385194E+02  0.00000000000E+00 0.  1.
</event>
<event>
 7    1  0.2688177E-009  0.9880891E+02  0.7561462E-02  0.1282821E+00
         -1   -1    0    0    0  501 -0.00000000000E+00  0.00000000000E+00  0.32994671975E+02  0.32994671975E+02  0.00000000000E+00 0.  1.
          1   -1    0    0  501    0  0.00000000000E+00 -0.00000000000E+00 -0.13751645083E+04  0.13751645083E+04  0.00000000000E+00 0. -1.
         25    2    1    2    0    0  0.36473830867E+02 -0.74321166716E+02 -0.12303297509E+04  0.12394404044E+04  0.12508894339E+03 0.  0.
          5    1    3    3  502    0  0.54147319548E+02 -0.75479864630E+02 -0.48189688175E+03  0.49078632746E+03  0.41800000000E+01 0.  1.
         -5    1    3    3    0  502 -0.17673488681E+02  0.11586979145E+01 -0.74843286920E+03  0.74865407691E+03  0.41800000000E+01 0.  1.
        -11    1    1    2    0    0 -0.88250738944E+01  0.46053168573E+02  0.32715384187E+01  0.47005097899E+02  0.00000000000E+00 0.  1.
         11    1    1    2    0    0 -0.27648756973E+02  0.28267998143E+02 -0.11511162382E+03  0.12171367803E+03  0.00000000000E+00 0. -1.
</event>
<event>
 7    1  0.3231303E-009  0.1144383E+03  0.7561462E-02  0.1252565E+00
          2   -1    0    0  501    0  0.00000000000E+00  0.00000000000E+00  0.13721269458E+03  0.13721269458E+03  0.00000000000E+00 0. -1.
         -2   -1    0    0    0  501 -0.00000000000E+00 -0.00000000000E+00 -0.15093196366E+03  0.15093196366E+03  0.00000000000E+00 0.  1.
         25    2    1    2    0    0 -0.72182942445E+01 -0.80678163438E+02 -0.57163688237E+02  0.15961006166E+03  0.12508642893E+03 0.  0.
          5    1    3    3  502    0  0.15825531511E+02 -0.10935897525E+03 -0.33004606163E+02  0.11539761411E+03  0.41800000000E+01 0.  1.
         -5    1    3    3    0  502 -0.23043825756E+02  0.28680811809E+02 -0.24159082074E+02  0.44212447548E+02  0.41800000000E+01 0.  1.
        -11    1    1    2    0    0  0.21513008352E+01  0.57744174079E+02 -0.19790023639E+02  0.61079151688E+02  0.00000000000E+00 0.  1.
         11    1    1    2    0    0  0.50669934093E+01  0.22933989359E+02  0.63234442800E+02  0.67455444898E+02  0.00000000000E+00 0. -1.
</event>
<event>
 7    1  0.2688177E-009  0.9306271E+02  0.7561462E-02  0.1295600E+00
          1   -1    0    0  501    0  0.00000000000E+00  0.00000000000E+00  0.23041706693E+02  0.23041706693E+02  0.00000000000E+00 0.  1.
         -1   -1    0    0    0  501 -0.00000000000E+00 -0.00000000000E+00 -0.79974040861E+03  0.79974040861E+03  0.00000000000E+00 0. -1.
         25    2    1    2    0    0 -0.19812856223E+02 -0.24759079310E+02 -0.63954269661E+03  0.65243225973E+03  0.12508969372E+03 0.  0.
          5    1    3    3  502    0 -0.13964183488E+02  0.30092925168E+02 -0.49103888794E+02  0.59407464685E+02  0.41800000000E+01 0.  1.
         -5    1    3    3    0  502 -0.58486727356E+01 -0.54852004478E+02 -0.59043880782E+03  0.59302479505E+03  0.41800000000E+01 0.  1.
        -11    1    1    2    0    0  0.50952525623E+02  0.37966504207E+02 -0.66292824258E+02  0.91827849029E+02  0.00000000000E+00 0. -1.
         11    1    1    2    0    0 -0.31139669400E+02 -0.13207424897E+02 -0.70863181049E+02  0.78522006540E+02  0.00000000000E+00 0.  1.
</event>
<event>
 7    1  0.2688177E-009  0.1380778E+03  0.7561462E-02  0.1215939E+00
          2   -1    0    0  501    0  0.00000000000E+00  0.00000000000E+00  0.11738795474E+04  0.11738795474E+04  0.00000000000E+00 0.  1.
         -2   -1    0    0    0  501 -0.00000000000E+00 -0.00000000000E+00 -0.17678752569E+02  0.17678752569E+02  0.00000000000E+00 0. -1.
         25    2    1    2    0    0 -0.73942324264E+01 -0.90200650794E+02  0.51607857651E+03  0.53867731508E+03  0.12508125588E+03 0.  0.
          5    1    3    3  502    0 -0.62767604990E+02 -0.24603026833E+02  0.25624829336E+03  0.26500139890E+03  0.41800000000E+01 0.  1.
         -5    1    3    3    0  502  0.55373372563E+02 -0.65597623961E+02  0.25983028315E+03  0.27367591618E+03  0.41800000000E+01 0.  1.
        -11    1    1    2    0    0 -0.90793155029E+01 -0.14263323514E+02  0.38711432629E+02  0.42242767237E+02  0.00000000000E+00 0.  1.
         11    1    1    2    0    0  0.16473547929E+02  0.10446397431E+03  0.60141078566E+03  0.61063821762E+03  0.00000000000E+00 0. -1.
</event>
<event>
 7    1  0.2688177E-009  0.1021976E+03  0.7561462E-02  0.1275741E+00
         -4   -1    0    0    0  501 -0.00000000000E+00  0.00000000000E+00  0.57164326631E+03  0.57164326631E+03  0.00000000000E+00 0.  1.
          4   -1    0    0  501    0  0.00000000000E+00 -0.00000000000E+00 -0.31662463315E+02  0.31662463315E+02  0.00000000000E+00 0. -1.
         25    2    1    2    0    0 -0.30089291198E+02 -0.52722932958E+02  0.40729153311E+03  0.43037164402E+03  0.12509310906E+03 0.  0.
          5    1    3    3  502    0 -0.49691374759E+02 -0.73021917453E+02  0.38246831788E+03  0.39255690000E+03  0.41800000000E+01 0.  1.
         -5    1    3    3    0  502  0.19602083561E+02  0.20298984495E+02  0.24823215224E+02  0.37814744023E+02  0.41800000000E+01 0.  1.
        -11    1    1    2    0    0  0.43627454214E+02  0.13068965163E+02  0.14906857739E+02  0.47920423822E+02  0.00000000000E+00 0. -1.
         11    1    1    2    0    0 -0.13538163016E+02  0.39653967795E+02  0.11778241215E+03  0.12501366178E+03  0.00000000000E+00 0.  1.
</event>
<event>
 7    1  0.2688177E-009  0.1882366E+03  0.7561462E-02  0.1160061E+00
          1   -1    0    0  501    0  0.00000000000E+00  0.00000000000E+00  0.57927451477E+03  0.57927451477E+03  0.00000000000E+00 0. -1.
         -1   -1    0    0    0  501 -0.00000000000E+00 -0.00000000000E+00 -0.80863435741E+02  0.80863435741E+02  0.00000000000E+00 0.  1.
         25    2    1    2    0    0  0.17213947069E+03  0.54487321772E+02  0.21960312521E+03  0.31060710051E+03  0.12510144956E+03 0.  0.
          5    1    3    3  502    0  0.52142750590E+02  0.24140774024E+01  0.15705201554E+03  0.16555211323E+03  0.41800000000E+01 0. -1.
         -5    1    3    3    0  502  0.11999672010E+03  0.52073244370E+02  0.62551109670E+02  0.14505498728E+03  0.41800000000E+01 0. -1.
        -11    1    1    2    0    0 -0.14856630849E+03 -0.17806072219E+02  0.26404924489E+03  0.30349795379E+03  0.00000000000E+00 0. -1.
         11    1    1    2    0    0 -0.23573162198E+02 -0.36681249553E+02  0.14758708934E+02  0.46032896217E+02  0.00000000000E+00 0.  1.
</event>
<event>
 7    1  0.2688177E-009  0.1124449E+03  0.7561462E-02  0.1256108E+00
         -1   -1    0    0    0  501 -0.00000000000E+00  0.00000000000E+00  0.15100847587E+03  0.15100847587E+03  0.00000000000E+00 0.  1.
          1   -1    0    0  501    0  0.00000000000E+00 -0.00000000000E+00 -0.13361204007E+03  0.13361204007E+03  0.00000000000E+00 0. -1.
         25    2    1    2    0    0 -0.36689682015E+02 -0.82295194556E+02 -0.63962964549E+01  0.15429317168E+03  0.12508732312E+03 0.  0.
          5    1    3    3  502    0 -0.71247042971E+02 -0.55569254973E+02  0.32036329082E+02  0.95957709494E+02  0.41800000000E+01 0.  1.
         -5    1    3    3    0  502  0.34557360956E+02 -0.26725939583E+02 -0.38432625537E+02  0.58335462186E+02  0.41800000000E+01 0.  1.
        -11    1    1    2    0    0  0.59046332461E+01  0.22947506593E+02  0.52475599777E+02  0.57577263955E+02  0.00000000000E+00 0.  1.
         11    1    1    2    0    0  0.30785048769E+02  0.59347687963E+02 -0.28682867520E+02  0.72750080298E+02  0.00000000000E+00 0. -1.
</event>
<event>
 7    1  0.2688177E-009  0.1103670E+03  0.7561462E-02  0.1259892E+00
         -3   -1    0    0    0  501 -0.00000000000E+00  0.00000000000E+00  0.19958887704E+03  0.19958887704E+03  0.00000000000E+00 0.  1.
          3   -1    0    0  501    0  0.00000000000E+00 -0.00000000000E+00 -0.66606119851E+02  0.66606119851E+02  0.00000000000E+00 0. -1.
         25    2    1    2    0    0  0.27093195168E+02 -0.11747507076E+02  0.39895820398E+02  0.13457809938E+03  0.12509014030E+03 0.  0.
          5    1    3    3  502    0  0.15463387593E+02 -0.68120771385E+02  0.14203783271E+02  0.71405712021E+02  0.41800000000E+01 0. -1.
         -5    1    3    3    0  502  0.11629807575E+02  0.56373264310E+02  0.25692037127E+02  0.63172387361E+02  0.41800000000E+01 0. -1.
        -11    1    1    2    0    0 -0.29737063071E+02 -0.35166968721E+02  0.45455520141E+02  0.64708677319E+02  0.00000000000E+00 0. -1.
         11    1    1    2    0    0  0.26438679023E+01  0.46914475796E+02  0.47631416646E+02  0.66908220186E+02  0.00000000000E+00 0.  1.
</event>
<event>
 7    1  0.2779301E-009  0.9796785E+02  0.7561462E-02  0.1284628E+00
          3   -1    0    0  501    0  0.00000000000E+00  0.00000000000E+00  0.22586701697E+03  0.22586701697E+03  0.00000000000E+00 0.  1.
         -3   -1    0    0    0  501 -0.00000000000E+00 -0.00000000000E+00 -0.95449293219E+02  0.95449293219E+02  0.00000000000E+00 0. -1.
         25    2    1    2    0    0 -0.63422249263E+02 -0.67260132908E+02  0.31952060436E+02  0.15879382468E+03  0.12509291510E+03 0.  0.
          5    1    3    3  502    0 -0.66937745810E+02 -0.48277371297E+02  0.74894686425E+02  0.11152601871E+03  0.41800000000E+01 0.  1.
         -5    1    3    3    0  502  0.35154965476E+01 -0.18982761611E+02 -0.42942625989E+02  0.47267805970E+02  0.41800000000E+01 0.  1.
        -11    1    1    2    0    0  0.45708192445E+02  0.57042429789E+02  0.12499334098E+02  0.74157339527E+02  0.00000000000E+00 0. -1.
         11    1    1    2    0    0  0.17714056818E+02  0.10217703119E+02  0.85966329215E+02  0.88365145983E+02  0.00000000000E+00 0.  1.
</event>
<event>
 7    1  0.2688177E-009  0.1206230E+03  0.7561462E-02  0.1242073E+00
          2   -1    0    0  501    0  0.00000000000E+00  0.00000000000E+00  0.16329768471E+04  0.16329768471E+04  0.00000000000E+00 0. -1.
         -2   -1    0    0    0  501 -0.00000000000E+00 -0.00000000000E+00 -0.16434564701E+02  0.16434564701E+02  0.00000000000E+00 0.  1.
         25    2    1    2    0    0  0.45397436392E+02  0.46624318858E+02  0.13851774530E+04  0.13923354792E+04  0.12508699321E+03 0.  0.
          5    1    3    3  502    0  0.54616679235E+02 -0.26410494426E+02  0.42462756846E+03  0.42895983514E+03  0.41800000000E+01 0. -1.
         -5    1    3    3    0  502 -0.92192428429E+01  0.73034813284E+02  0.96054988454E+03  0.96337564402E+03  0.41800000000E+01 0. -1.
        -11    1    1    2    0    0  0.19261282779E+02  0.91384190148E+01  0.84946584599E+02  0.87580990811E+02  0.00000000000E+00 0. -1.
         11    1    1    2    0    0 -0.64658719171E+02 -0.55762737872E+02  0.14641824484E+03  0.16949494187E+03  0.00000000000E+00 0.  1.
</event>
<event>
 7    1  0.2688177E-009  0.8668685E+02  0.7561462E-02  0.1311079E+00
         -4   -1    0    0    0  501 -0.00000000000E+00  0.00000000000E+00  0.91970220358E+02  0.91970220358E+02  0.00000000000E+00 0.  1.
          4   -1    0    0  501    0  0.00000000000E+00 -0.00000000000E+00 -0.12589406748E+03  0.12589406748E+03  0.00000000000E+00 0. -1.
         25    2    1    2    0    0  0.73395835608E+01  0.13533956365E+02 -0.25955330653E+02  0.12866485934E+03  0.12507569459E+03 0.  0.
          5    1    3    3  502    0  0.21649844442E+02 -0.44470408137E+02 -0.43773359165E+02  0.66180906135E+02  0.41800000000E+01 0.  1.
         -5    1    3    3    0  502 -0.14310260881E+02  0.58004364503E+02  0.17818028512E+02  0.62483953203E+02  0.41800000000E+01 0.  1.
        -11    1    1    2    0    0  0.12725737465E+02  0.20622709298E+02 -0.34033339560E+02  0.41779285949E+02  0.00000000000E+00 0. -1.
         11    1    1    2    0    0 -0.20065321026E+02 -0.34156665663E+02  0.26064823088E+02  0.47420142553E+02  0.00000000000E+00 0.  1.
</event>
<event>
 7    1  0.2688177E-009  0.1126543E+03  0.7561462E-02  0.1255732E+00
         -1   -1    0    0    0  501 -0.00000000000E+00  0.00000000000E+00  0.72922482931E+02  0.72922482931E+02  0.00000000000E+00 0.  1.
          1   -1    0    0  501    0  0.00000000000E+00 -0.00000000000E+00 -0.21251265578E+03  0.21251265578E+03  0.00000000000E+00 0. -1.
         25    2    1    2    0    0  0.54467319470E+02 -0.10288347412E+02 -0.45770652832E+02  0.14427469305E+03  0.12509074870E+03 0.  0.
          5    1    3    3  502    0 -0.26822384912E+02  0.28467606780E+02  0.67917831256E+01  0.39917987000E+02  0.41800000000E+01 0.  1.
         -5    1    3    3    0  502  0.81289704382E+02 -0.38755954192E+02 -0.52562435958E+02  0.10435670605E+03  0.41800000000E+01 0.  1.
        -11    1    1    2    0    0  0.19113491435E+02  0.11353668001E+02 -0.39559069832E+00  0.22234833571E+02  0.00000000000E+00 0.  1.
         11    1    1    2    0    0 -0.73580810906E+02 -0.10653205895E+01 -0.93423929318E+02  0.11892561209E+03  0.00000000000E+00 0. -1.
</event>
<event>
 7    1  0.2688177E-009  0.1051221E+03  0.7561462E-02  0.1269879E+00
         -1   -1    0    0    0  501 -0.00000000000E+00  0.00000000000E+00  0.11600727962E+02  0.11600727962E+02  0.00000000000E+00 0.  1.
          1   -1    0    0  501    0  0.00000000000E+00 -0.00000000000E+00 -0.22191016827E+04  0.22191016827E+04  0.00000000000E+00 0. -1.
         25    2    1    2    0    0  0.55410179202E+02 -0.46545381360E+02 -0.18330791508E+04  0.18387670492E+04  0.12509327573E+03 0.  0.
          5    1    3    3  502    0 -0.19388469088E+02 -0.13501356937E+02 -0.12209853782E+04  0.12212210961E+04  0.41800000000E+01 0.  1.
         -5    1    3    3    0  502  0.74798648290E+02 -0.33044024423E+02 -0.61209377256E+03  0.61754595306E+03  0.41800000000E+01 0.  1.
        -11    1    1    2    0    0 -0.17056190119E+01  0.50493513728E+02 -0.97350197651E+02  0.10967937385E+03  0.00000000000E+00 0.  1.
         11    1    1    2    0    0 -0.53704560190E+02 -0.39481323682E+01 -0.27707160628E+03  0.28225598760E+03  0.00000000000E+00 0. -1.
</event>
<event>
 7    1  0.2688177E-009  0.1301980E+03  0.7561462E-02  0.1227162E+00
          2   -1    0    0  501    0  0.00000000000E+00  0.00000000000E+00  0.48814233795E+03  0.48814233795E+03  0.00000000000E+00 0. -1.
         -2   -1    0    0    0  501 -0.00000000000E+00 -0.00000000000E+00 -0.57284697983E+02  0.57284697983E+02  0.00000000000E+00 0.  1.
         25    2    1    2    0    0  0.82847956123E+02  0.79264004008E+02  0.12295369977E+03  0.20955129643E+03  0.12509023696E+03 0.  0.
          5    1    3    3  502    0  0.10742007581E+02 -0.86713808768E+01 -0.21357020164E+02  0.25771656592E+02  0.41800000000E+01 0. -1.
         -5    1    3    3    0  502  0.72105948541E+02  0.87935384885E+02  0.14431071994E+03  0.18377963984E+03  0.41800000000E+01 0. -1.
        -11    1    1    2    0    0 -0.18561136236E+02 -0.63261215332E+02  0.18259052793E+03  0.19412830302E+03  0.00000000000E+00 0. -1.
         11    1    1    2    0    0 -0.64286819887E+02 -0.16002788676E+02  0.12531341226E+03  0.14174743648E+03  0.00000000000E+00 0.  1.
</event>
<event>
 7    1  0.2688177E-009  0.2343615E+03  0.7561462E-02  0.1123607E+00
          3   -1    0    0  501    0  0.00000000000E+00  0.00000000000E+00  0.64838148461E+02  0.64838148461E+02  0.00000000000E+00 0. -1.
         -3   -1    0    0    0  501 -0.00000000000E+00 -0.00000000000E+00 -0.10550835923E+04  0.10550835923E+04  0.00000000000E+00 0.  1.
         25    2    1    2    0    0  0.21569032818E+03  0.87442087701E+02 -0.40540313026E+03  0.48390841247E+03  0.12508883746E+03 0.  0.
          5    1    3    3  502    0  0.12970069769E+03  0.72201317033E+02 -0.35052045240E+03  0.38068012965E+03  0.41800000000E+01 0.  1.
         -5    1    3    3    0  502  0.85989630495E+02  0.15240770669E+02 -0.54882677862E+02  0.10322828281E+03  0.41800000000E+01 0.  1.
        -11    1    1    2    0    0 -0.53769550868E+02 -0.24069892211E+02 -0.26994650866E+03  0.27629991287E+03  0.00000000000E+00 0.  1.
         11    1    1    2    0    0 -0.16192077731E+03 -0.63372195490E+02 -0.31489580493E+03  0.35971341545E+03  0.00000000000E+00 0. -1.
</event>
<event>
 7    1  0.2739320E-009  0.1521430E+03  0.7561462E-02  0.1197864E+00
         -2   -1    0    0    0  501 -0.00000000000E+00  0.00000000000E+00  0.16433999190E+02  0.16433999190E+02  0.00000000000E+00 0.  1.
          2   -1    0    0  501    0  0.00000000000E+00 -0.00000000000E+00 -0.19602520458E+04  0.19602520458E+04  0.00000000000E+00 0. -1.
         25    2    1    2    0    0 -0.35281463724E+02 -0.11949366828E+03 -0.14071431907E+04  0.14181758266E+04  0.12508875847E+03 0.  0.
          5    1    3    3  502    0 -0.45857481250E+02 -0.13325144816E+03 -0.13669054763E+04  0.13741567999E+04  0.41800000000E+01 0. -1.
         -5    1    3    3    0  502  0.10576017526E+02  0.13757779876E+02 -0.40237714413E+02  0.44019026738E+02  0.41800000000E+01 0. -1.
        -11    1    1    2    0    0  0.38055563472E+02  0.14972236281E+02 -0.78016869804E+02  0.88085332176E+02  0.00000000000E+00 0.  1.
         11    1    1    2    0    0 -0.27740997480E+01  0.10452143200E+03 -0.45865798603E+03  0.47042488617E+03  0.00000000000E+00 0. -1.
</event>
<event>
 7    1  0.2688177E-009  0.1185995E+03  0.7561462E-02  0.1245425E+00
         -2   -1    0    0    0  501 -0.00000000000E+00  0.00000000000E+00  0.25487397004E+02  0.25487397004E+02  0.00000000000E+00 0.  1.
          2   -1    0    0  501    0  0.00000000000E+00 -0.00000000000E+00 -0.64026314107E+03  0.64026314107E+03  0.00000000000E+00 0. -1.
         25    2    1    2    0    0  0.64438352565E+02 -0.22579605053E+02 -0.32401736022E+03  0.35397211384E+03  0.12508744065E+03 0.  0.
          5    1    3    3  502    0  0.15932760919E+02  0.41323477878E+02 -0.43657144876E+02  0.62328977154E+02  0.41800000000E+01 0.  1.
         -5    1    3    3    0  502  0.48505591646E+02 -0.63903082931E+02 -0.28036021534E+03  0.29164313668E+03  0.41800000000E+01 0.  1.
        -11    1    1    2    0    0 -0.81858221512E+02  0.36934734312E+02 -0.22538192756E+03  0.24261483116E+03  0.00000000000E+00 0.  1.
         11    1    1    2    0    0  0.17419868947E+02 -0.14355129259E+02 -0.65376456281E+02  0.69163593068E+02  0.00000000000E+00 0. -1.
</event>
<event>
 7    1  0.2688177E-009  0.1459729E+03  0.7561462E-02  0.1205511E+00
          1   -1    0    0  501    0  0.00000000000E+00  0.00000000000E+00  0.38161531698E+03  0.38161531698E+03  0.00000000000E+00 0. -1.
         -1   -1    0    0    0  501 -0.00000000000E+00 -0.00000000000E+00 -0.58130108294E+02  0.58130108294E+02  0.00000000000E+00 0.  1.
         25    2    1    2    0    0  0.98007948636E+02  0.12386667048E+02  0.18802666109E+03  0.24649726248E+03  0.12509151696E+03 0.  0.
          5    1    3    3  502    0  0.10190782914E+02  0.58420431869E+02  0.59425970432E+02  0.84057821039E+02  0.41800000000E+01 0. -1.
         -5    1    3    3    0  502  0.87817165722E+02 -0.46033764820E+02  0.12860069066E+03  0.16243944144E+03  0.41800000000E+01 0. -1.
        -11    1    1    2    0    0 -0.21177346042E+02 -0.45043786974E+02  0.27790880882E+02  0.57006629356E+02  0.00000000000E+00 0.  1.
         11    1    1    2    0    0 -0.76830602594E+02  0.32657119926E+02  0.10766766671E+03  0.13624153343E+03  0.00000000000E+00 0. -1.
</event>
<event>
 7    1  0.2688177E-009  0.1421637E+03  0.7561462E-02  0.1210447E+00
         -1   -1    0    0    0  501 -0.00000000000E+00  0.00000000000E+00  0.20506943746E+02  0.20506943746E+02  0.00000000000E+00 0.  1.
          1   -1    0    0  501    0  0.00000000000E+00 -0.00000000000E+00 -0.10541255946E+04  0.10541255946E+04  0.00000000000E+00 0. -1.
         25    2    1    2    0    0  0.42110971377E+02 -0.22343061046E+02 -0.48437246625E+03  0.50253016920E+03  0.12508932255E+03 0.  0.
          5    1    3    3  502    0  0.33315997857E+02 -0.73834572868E+02 -0.31172421445E+03  0.32210395549E+03  0.41800000000E+01 0.  1.
         -5    1    3    3    0  502  0.87949735207E+01  0.51491511821E+02 -0.17264825179E+03  0.18042621372E+03  0.41800000000E+01 0.  1.
        -11    1    1    2    0    0 -0.51373480902E+02 -0.53636334777E+02 -0.36692144158E+03  0.37436270546E+03  0.00000000000E+00 0. -1.
         11    1    1    2    0    0  0.92625095242E+01  0.75979395824E+02 -0.18232474299E+03  0.19773966365E+03  0.00000000000E+00 0.  1.
</event>
<event>
 7    1  0.2688177E-009  0.1233142E+03  0.7561462E-02  0.1237728E+00
         -2   -1    0    0    0  501 -0.00000000000E+00  0.00000000000E+00  0.83017874003E+02  0.83017874003E+02  0.00000000000E+00 0.  1.
          2   -1    0    0  501    0  0.00000000000E+00 -0.00000000000E+00 -0.28711325555E+03  0.28711325555E+03  0.00000000000E+00 0. -1.
         25    2    1    2    0    0 -0.80244342598E+02  0.24550120975E+02 -0.19421542919E+03  0.24577001008E+03  0.12506559065E+03 0.  0.
          5    1    3    3  502    0 -0.34113227218E+02  0.59230162864E+02 -0.36127040455E+02  0.77424543370E+02  0.41800000000E+01 0. -1.
         -5    1    3    3    0  502 -0.46131115380E+02 -0.34680041889E+02 -0.15808838873E+03  0.16834546671E+03  0.41800000000E+01 0. -1.
        -11    1    1    2    0    0 -0.18315816065E+02 -0.93349352865E+01  0.96975530737E+01  0.22729994953E+02  0.00000000000E+00 0.  1.
         11    1    1    2    0    0  0.98560158663E+02 -0.15215185688E+02 -0.19577505435E+02  0.10163112452E+03  0.00000000000E+00 0. -1.
</event>
<event>
 7    1  0.2688177E-009  0.1644584E+03  0.7561462E-02  0.1183753E+00
         -1   -1    0    0    0  501 -0.00000000000E+00  0.00000000000E+00  0.18912427621E+02  0.18912427621E+02  0.00000000000E+00 0.  1.
          1   -1    0    0  501    0  0.00000000000E+00 -0.00000000000E+00 -0.16257549615E+04  0.16257549615E+04  0.00000000000E+00 0. -1.
         25    2    1    2    0    0 -0.93062900630E+02  0.98054925903E+02 -0.98602388011E+03  0.10030778449E+04  0.12508636569E+03 0.  0.
          5    1    3    3  502    0 -0.61639095841E+02  0.11675189025E+03 -0.89810294487E+03  0.90776470189E+03  0.41800000000E+01 0. -1.
         -5    1    3    3    0  502 -0.31423804789E+02 -0.18696964351E+02 -0.87920935238E+02  0.95313143042E+02  0.41800000000E+01 0. -1.
        -11    1    1    2    0    0  0.10388343109E+03 -0.58940470842E+02 -0.41691410521E+03  0.43368550527E+03  0.00000000000E+00 0.  1.
         11    1    1    2    0    0 -0.10820530462E+02 -0.39114455061E+02 -0.20390454852E+03  0.20790403887E+03  0.00000000000E+00 0. -1.
</event>
<event>
 7    1  0.2688177E-009  0.1316317E+03  0.7561462E-02  0.1225054E+00
         -1   -1    0    0    0  501 -0.00000000000E+00  0.00000000000E+00  0.46255824066E+03  0.46255824066E+03  0.00000000000E+00 0.  1.
          1   -1    0    0  501    0  0.00000000000E+00 -0.00000000000E+00 -0.43700476229E+02  0.43700476229E+02  0.00000000000E+00 0. -1.
         25    2    1    2    0    0  0.22335587805E+02  0.79141226182E+02  0.29321271019E+03  0.32921633454E+03  0.12508992504E+03 0.  0.
          5    1    3    3  502    0 -0.50816570678E+02  0.24192181312E+02  0.88693212171E+02  0.10512632295E+03  0.41800000000E+01 0. -1.
         -5    1    3    3    0  502  0.73152158483E+02  0.54949044870E+02  0.20451949802E+03  0.22409001159E+03  0.41800000000E+01 0. -1.
        -11    1    1    2    0    0 -0.46785429016E+02 -0.19323456142E+02  0.22654996247E+02  0.55457381658E+02  0.00000000000E+00 0.  1.
         11    1    1    2    0    0  0.24449841210E+02 -0.59817770040E+02  0.10299005800E+03  0.12158500069E+03  0.00000000000E+00 0. -1.
</event>
<event>
 7    1  0.2688177E-009  0.1040440E+03  0.7561462E-02  0.1272015E+00
          2   -1    0    0  501    0  0.00000000000E+00  0.00000000000E+00  0.43897454531E+02  0.43897454531E+02  0.00000000000E+00 0. -1.
         -2   -1    0    0    0  501 -0.00000000000E+00 -0.00000000000E+00 -0.37848001183E+03  0.37848001183E+03  0.00000000000E+00 0.  1.
         25    2    1    2    0    0 -0.70304521562E+01 -0.63815148900E+02 -0.22935714311E+03  0.26902862562E+03  0.12509956764E+03 0.  0.
          5    1    3    3  502    0 -0.51842358300E+02  0.82232866501E+01 -0.61953362479E+02  0.81307712303E+02  0.41800000000E+01 0.  1.
         -5    1    3    3    0  502  0.44811906144E+02 -0.72038435550E+02 -0.16740378063E+03  0.18772091332E+03  0.41800000000E+01 0.  1.
        -11    1    1    2    0    0  0.14906466103E+02  0.15380816838E+02  0.13199870802E+02  0.25159667078E+02  0.00000000000E+00 0. -1.
         11    1    1    2    0    0 -0.78760139469E+01  0.48434332062E+02 -0.11842528500E+03  0.12818917366E+03  0.00000000000E+00 0.  1.
</event>
<event>
 7    1  0.2688177E-009  0.8545808E+02  0.7561462E-02  0.1314239E+00
          1   -1    0    0  501    0  0.00000000000E+00  0.00000000000E+00  0.43795814538E+02  0.43795814538E+02  0.00000000000E+00 0. -1.
         -1   -1    0    0    0  501 -0.00000000000E+00 -0.00000000000E+00 -0.28407039875E+03  0.28407039875E+03  0.00000000000E+00 0.  1.
         25    2    1    2    0    0 -0.15718024769E+02 -0.17132108651E+02 -0.16121602753E+03  0.20537396358E+03  0.12508913597E+03 0.  0.
          5    1    3    3  502    0 -0.50349335002E+02 -0.17723550211E+02 -0.15788882852E+02  0.55820614373E+02  0.41800000000E+01 0.  1.
         -5    1    3    3    0  502  0.34631310234E+02  0.59144156029E+00 -0.14542714468E+03  0.14955334921E+03  0.41800000000E+01 0.  1.
        -11    1    1    2    0    0 -0.98135070265E+01 -0.28530813126E+02 -0.59365374767E+02  0.66592491612E+02  0.00000000000E+00 0.  1.
         11    1    1    2    0    0  0.25531531795E+02  0.45662921777E+02 -0.19693181921E+02  0.55899758096E+02  0.00000000000E+00 0. -1.
</event>
<event>
 7    1  0.2688177E-009  0.1248625E+03  0.7561462E-02  0.1235284E+00
          2   -1    0    0  501    0  0.00000000000E+00  0.00000000000E+00  0.10441875719E+04  0.10441875719E+04  0.00000000000E+00 0. -1.
         -2   -1    0    0    0  501 -0.00000000000E+00 -0.00000000000E+00 -0.15790307540E+02  0.15790307540E+02  0.00000000000E+00 0.  1.
         25    2    1    2    0    0  0.26362108555E+02  0.58309400499E+02  0.66642743960E+03  0.68107845998E+03  0.12508952572E+03 0.  0.
          5    1    3    3  502    0  0.31930922230E+02 -0.34308560451E+02  0.25404000345E+03  0.25836109782E+03  0.41800000000E+01 0.  1.
         -5    1    3    3    0  502 -0.55688136757E+01  0.92617960950E+02  0.41238743615E+03  0.42271736216E+03  0.41800000000E+01 0.  1.
        -11    1    1    2    0    0 -0.26732913109E+02 -0.81923111080E+02  0.24907950997E+03  0.26356526148E+03  0.00000000000E+00 0. -1.
         11    1    1    2    0    0  0.37080455404E+00  0.23613710581E+02  0.11289031481E+03  0.11533415800E+03  0.00000000000E+00 0.  1.
</event>
<event>
 7    1  0.2688177E-009  0.1316995E+03  0.7561462E-02  0.1224956E+00
         -1   -1    0    0    0  501 -0.00000000000E+00  0.00000000000E+00  0.24390318034E+02  0.24390318034E+02  0.00000000000E+00 0.  1.
          1   -1    0    0  501    0  0.00000000000E+00 -0.00000000000E+00 -0.85494707878E+03  0.85494707878E+03  0.00000000000E+00 0. -1.
         25    2    1    2    0    0  0.75915972599E+02  0.53842253965E+02 -0.39186907353E+03  0.42174859071E+03  0.12509308444E+03 0.  0.
          5    1    3    3  502    0  0.79653802945E+02 -0.10051567905E+02 -0.29353802817E+03  0.30434817023E+03  0.41800000000E+01 0.  1.
         -5    1    3    3    0  502 -0.37378303454E+01  0.63893821870E+02 -0.98331045357E+02  0.11740042048E+03  0.41800000000E+01 0.  1.
        -11    1    1    2    0    0 -0.78539490622E+00 -0.42940884355E+02 -0.25877231795E+03  0.26231212120E+03  0.00000000000E+00 0. -1.
         11    1    1    2    0    0 -0.75130577693E+02 -0.10901369610E+02 -0.17991536928E+03  0.19527668490E+03  0.00000000000E+00 0.  1.
</event>
<event>
 7    1  0.2688177E-009  0.1162137E+03  0.7561462E-02  0.1249477E+00
         -2   -1    0    0    0  501 -0.00000000000E+00  0.00000000000E+00  0.66180704144E+02  0.66180704144E+02  0.00000000000E+00 0. -1.
          2   -1    0    0  501    0  0.00000000000E+00 -0.00000000000E+00 -0.25790607315E+03  0.25790607315E+03  0.00000000000E+00 0.  1.
         25    2    1    2    0    0  0.50515735047E+02 -0.14597467840E+02 -0.76810153316E+02  0.15592532526E+03  0.12509189362E+03 0.  0.
          5    1    3    3  502    0  0.26158097456E+02  0.54057686919E+02 -0.49768322367E+02  0.78107860608E+02  0.41800000000E+01 0. -1.
         -5    1    3    3    0  502  0.24357637591E+02 -0.68655154759E+02 -0.27041830949E+02  0.77817464653E+02  0.41800000000E+01 0. -1.
        -11    1    1    2    0    0  0.11812892739E+02  0.32361137706E+02  0.19748296395E+01  0.34506341745E+02  0.00000000000E+00 0. -1.
         11    1    1    2    0    0 -0.62328627786E+02 -0.17763669866E+02 -0.11689004533E+03  0.13365511029E+03  0.00000000000E+00 0.  1.
</event>
<event>
 7    1  0.2688177E-009  0.1092906E+03  0.7561462E-02  0.1261889E+00
          2   -1    0    0  501    0  0.00000000000E+00  0.00000000000E+00  0.78112634986E+03  0.78112634986E+03  0.00000000000E+00 0. -1.
         -2   -1    0    0    0  501 -0.00000000000E+00 -0.00000000000E+00 -0.26154835865E+02  0.26154835865E+02  0.00000000000E+00 0.  1.
         25    2    1    2    0    0 -0.33011516352E+02 -0.44087968088E+02  0.66347570988E+03  0.67740787664E+03  0.12509158479E+03 0.  0.
          5    1    3    3  502    0  0.13275534098E+02 -0.77291192411E+02  0.34237562339E+03  0.35126728872E+03  0.41800000000E+01 0. -1.
         -5    1    3    3    0  502 -0.46287050450E+02  0.33203224323E+02  0.32110008649E+03  0.32614058792E+03  0.41800000000E+01 0. -1.
        -11    1    1    2    0    0  0.51589961071E+02  0.34034541823E+02  0.38482767898E+02  0.72806576251E+02  0.00000000000E+00 0.  1.
         11    1    1    2    0    0 -0.18578444719E+02  0.10053426265E+02  0.53013036217E+02  0.57066732838E+02  0.00000000000E+00 0. -1.
</event>
<event>
 7    1  0.2688177E-009  0.1324217E+03  0.7561462E-02  0.1223906E+00
          2   -1    0    0  501    0  0.00000000000E+00  0.00000000000E+00  0.18987559668E+03  0.18987559668E+03  0.00000000000E+00 0. -1.
         -2   -1    0    0    0  501 -0.00000000000E+00 -0.00000000000E+00 -0.12668657390E+03  0.12668657390E+03  0.00000000000E+00 0.  1.
         25    2    1    2    0    0  0.47726686799E+02  0.74701960500E+02  0.10078474218E+03  0.18347664491E+03  0.12509154822E+03 0.  0.
          5    1    3    3  502    0 -0.36333128771E+02  0.51229981831E+02  0.24701179391E+02  0.67618251589E+02  0.41800000000E+01 0.  1.
         -5    1    3    3    0  502  0.84059815570E+02  0.23471978669E+02  0.76083562789E+02  0.11585839332E+03  0.41800000000E+01 0.  1.
        -11    1    1    2    0    0 -0.18881050776E+02  0.12519994929E+02 -0.34365057231E+02  0.41160679172E+02  0.00000000000E+00 0.  1.
         11    1    1    2    0    0 -0.28845636023E+02 -0.87221955428E+02 -0.32306621677E+01  0.91924846502E+02  0.00000000000E+00 0. -1.
</event>
<event>
 7    1  0.2829306E-009  0.1381059E+03  0.7561462E-02  0.1215901E+00
         -3   -1    0    0    0  501 -0.00000000000E+00  0.00000000000E+00  0.33430451751E+02  0.33430451751E+02  0.00000000000E+00 0.  1.
          3   -1    0    0  501    0  0.00000000000E+00 -0.00000000000E+00 -0.69667629473E+03  0.69667629473E+03  0.00000000000E+00 0. -1.
         25    2    1    2    0    0 -0.10265880668E+03 -0.12584772359E+02 -0.29404707629E+03  0.33586936327E+03  0.12508932418E+03 0.  0.
          5    1    3    3  502    0 -0.34722506574E+02  0.39259220667E+02 -0.35263284137E+02  0.63308060137E+02  0.41800000000E+01 0.  1.
         -5    1    3    3    0  502 -0.67936300109E+02 -0.51843993026E+02 -0.25878379215E+03  0.27256130313E+03  0.41800000000E+01 0.  1.
        -11    1    1    2    0    0  0.29697195272E+02 -0.38780182635E+02 -0.12100765079E+03  0.13049397504E+03  0.00000000000E+00 0.  1.
         11    1    1    2    0    0  0.72961611411E+02  0.51364954993E+02 -0.24819111590E+03  0.26374340817E+03  0.00000000000E+00 0. -1.
</event>
<event>
 7    1  0.2688177E-009  0.9315683E+02  0.7561462E-02  0.1295382E+00
          2   -1    0    0  501    0  0.00000000000E+00  0.00000000000E+00  0.79723738475E+03  0.79723738475E+03  0.00000000000E+00 0.  1.
         -2   -1    0    0    0  501 -0.00000000000E+00 -0.00000000000E+00 -0.17693334487E+02  0.17693334487E+02  0.00000000000E+00 0. -1.
         25    2    1    2    0    0 -0.36184468708E+02 -0.27944644257E+02  0.38079851268E+03  0.40341367942E+03  0.12507945698E+03 0.  0.
          5    1    3    3  502    0 -0.47104600814E+02  0.83100127228E+01  0.35301300584E+03  0.35626332174E+03  0.41800000000E+01 0.  1.
         -5    1    3    3    0  502  0.10920132107E+02 -0.36254656980E+02  0.27785506848E+02  0.47150357674E+02  0.41800000000E+01 0.  1.
        -11    1    1    2    0    0  0.51913737091E+01 -0.32162381725E+02  0.98434429303E+02  0.10368561150E+03  0.00000000000E+00 0. -1.
         11    1    1    2    0    0  0.30993094999E+02  0.60107025982E+02  0.30031110828E+03  0.30783142833E+03  0.00000000000E+00 0.  1.
</event>
<event>
 7    1  0.2688177E-009  0.2695419E+03  0.7561462E-02  0.1101542E+00
         -2   -1    0    0    0  501 -0.00000000000E+00  0.00000000000E+00  0.74552459229E+02  0.74552459229E+02  0.00000000000E+00 0.  1.
          2   -1    0    0  501    0  0.00000000000E+00 -0.00000000000E+00 -0.11127444871E+04  0.11127444871E+04  0.00000000000E+00 0. -1.
         25    2    1    2    0    0 -0.25677104050E+03 -0.67679455715E+02 -0.56440149126E+03  0.63616692881E+03  0.12508973582E+03 0.  0.
          5    1    3    3  502    0 -0.13403605458E+03 -0.44747366660E+02 -0.43012680386E+03  0.45276321687E+03  0.41800000000E+01 0.  1.
         -5    1    3    3    0  502 -0.12273498592E+03 -0.22932089055E+02 -0.13427468740E+03  0.18340371194E+03  0.41800000000E+01 0.  1.
        -11    1    1    2    0    0  0.68681822712E+02  0.47735274232E+02 -0.21411602026E+03  0.22987283291E+03  0.00000000000E+00 0.  1.
         11    1    1    2    0    0  0.18808921778E+03  0.19944181482E+02 -0.25967451632E+03  0.32125718459E+03  0.00000000000E+00 0. -1.
</event>
<event>
 7    1  0.2688177E-009  0.1488559E+03  0.7561462E-02  0.1201886E+00
         -2   -1    0    0    0  501 -0.00000000000E+00  0.00000000000E+00  0.31044795870E+02  0.31044795870E+02  0.00000000000E+00 0.  1.
          2   -1    0    0  501    0  0.00000000000E+00 -0.00000000000E+00 -0.82358863185E+03  0.82358863185E+03  0.00000000000E+00 0. -1.
         25    2    1    2    0    0 -0.61917404925E+02 -0.96994883708E+02 -0.48106400388E+03  0.51020766995E+03  0.12509004017E+03 0.  0.
          5    1    3    3  502    0  0.32167800458E+02 -0.61098848745E+02 -0.19782427540E+03  0.20957040116E+03  0.41800000000E+01 0. -1.
         -5    1    3    3    0  502 -0.94085205383E+02 -0.35896034963E+02 -0.28323972848E+03  0.30063726879E+03  0.41800000000E+01 0. -1.
        -11    1    1    2    0    0  0.33123148476E+02  0.92945422762E+02 -0.14476347819E+03  0.17519263453E+03  0.00000000000E+00 0.  1.
         11    1    1    2    0    0  0.28794256449E+02  0.40494609460E+01 -0.16671635391E+03  0.16923312323E+03  0.00000000000E+00 0. -1.
</event>
<event>
 7    1  0.2688177E-009  0.1113884E+03  0.7561462E-02  0.1258020E+00
          2   -1    0    0  501    0  0.00000000000E+00  0.00000000000E+00  0.13288314335E+03  0.13288314335E+03  0.00000000000E+00 0. -1.
         -2   -1    0    0    0  501 -0.00000000000E+00 -0.00000000000E+00 -0.14725325629E+03  0.14725325629E+03  0.00000000000E+00 0.  1.
         25    2    1    2    0    0  0.63575657283E+01  0.88424452420E+02 -0.16389109723E+02  0.15419560941E+03  0.12509348750E+03 0.  0.
          5    1    3    3  502    0 -0.34574866108E+02  0.73595643934E+02  0.33329814969E+02  0.87977776388E+02  0.41800000000E+01 0.  1.
         -5    1    3    3    0  502  0.40932431836E+02  0.14828808487E+02 -0.49718924692E+02  0.66217833019E+02  0.41800000000E+01 0.  1.
        -11    1    1    2    0    0 -0.19507518880E+02 -0.79177596061E+02 -0.32561797984E+02  0.87806068690E+02  0.00000000000E+00 0.  1.
         11    1    1    2    0    0  0.13149953151E+02 -0.92468563592E+01  0.34580794772E+02  0.38134721547E+02  0.00000000000E+00 0. -1.
</event>
<event>
 7    1  0.2688177E-009  0.1180649E+03  0.7561462E-02  0.1246324E+00
         -2   -1    0    0    0  501 -0.00000000000E+00  0.00000000000E+00  0.23030983221E+02  0.23030983221E+02  0.00000000000E+00 0.  1.
          2   -1    0    0  501    0  0.00000000000E+00 -0.00000000000E+00 -0.17943749148E+04  0.17943749148E+04  0.00000000000E+00 0. -1.
         25    2    1    2    0    0 -0.47152350069E+01  0.67637086971E+02 -0.16272075457E+04  0.16334165397E+04  0.12509271137E+03 0.  0.
          5    1    3    3  502    0  0.25825444124E+02 -0.30053634442E+02 -0.45216243885E+03  0.45391465939E+03  0.41800000000E+01 0. -1.
         -5    1    3    3    0  502 -0.30540679131E+02  0.97690721413E+02 -0.11750451068E+04  0.11795018803E+04  0.41800000000E+01 0. -1.
        -11    1    1    2    0    0  0.13099791656E+02  0.95458380283E+01  0.40410316358E+01  0.16705014271E+02  0.00000000000E+00 0.  1.
         11    1    1    2    0    0 -0.83845566495E+01 -0.77182924999E+02 -0.14817741755E+03  0.16728434408E+03  0.00000000000E+00 0. -1.
</event>
<event>
 7    1  0.2688177E-009  0.1026446E+03  0.7561462E-02  0.1274831E+00
         -4   -1    0    0    0  501 -0.00000000000E+00  0.00000000000E+00  0.10541764903E+03  0.10541764903E+03  0.00000000000E+00 0.  1.
          4   -1    0    0  501    0  0.00000000000E+00 -0.00000000000E+00 -0.11795903080E+03  0.11795903080E+03  0.00000000000E+00 0. -1.
         25    2    1    2    0    0  0.13688499204E+02 -0.58108434488E+01 -0.24745906866E+02  0.12837665299E+03  0.12508822572E+03 0.  0.
          5    1    3    3  502    0  0.61414769142E+02 -0.25225994231E+02  0.82731736985E+01  0.67037619713E+02  0.41800000000E+01 0.  1.
         -5    1    3    3    0  502 -0.47726269938E+02  0.19415150782E+02 -0.33019080565E+02  0.61339033278E+02  0.41800000000E+01 0.  1.
        -11    1    1    2    0    0 -0.14043504331E+01 -0.39804880906E+02  0.23744328787E+02  0.46370183239E+02  0.00000000000E+00 0.  1.
         11    1    1    2    0    0 -0.12284148770E+02  0.45615724355E+02 -0.11539803691E+02  0.48629843601E+02  0.00000000000E+00 0. -1.
</event>
<event>
 7    1  0.2688177E-009  0.1421613E+03  0.7561462E-02  0.1210450E+00
          2   -1    0    0  501    0  0.00000000000E+00  0.00000000000E+00  0.36216806414E+03  0.36216806414E+03  0.00000000000E+00 0.  1.
         -2   -1    0    0    0  501 -0.00000000000E+00 -0.00000000000E+00 -0.79309919805E+02  0.79309919805E+02  0.00000000000E+00 0. -1.
         25    2    1    2    0    0  0.86297804854E+02 -0.72683381645E+02  0.66395194564E+02  0.18106871424E+03  0.12508945729E+03 0.  0.
          5    1    3    3  502    0  0.10150678115E+01 -0.53605155628E+02 -0.20694182728E+02  0.57621737837E+02  0.41800000000E+01 0.  1.
         -5    1    3    3    0  502  0.85282737043E+02 -0.19078226017E+02  0.87089377292E+02  0.12344697640E+03  0.41800000000E+01 0.  1.
        -11    1    1    2    0    0 -0.50505820195E+02  0.90069321431E+02  0.13719148642E+03  0.17171145706E+03  0.00000000000E+00 0. -1.
         11    1    1    2    0    0 -0.35791984660E+02 -0.17385939786E+02  0.79271463348E+02  0.88697812653E+02  0.00000000000E+00 0.  1.
</event>
<event>
 7    1  0.2688177E-009  0.1021518E+03  0.7561462E-02  0.1275835E+00
          2   -1    0    0  501    0  0.00000000000E+00  0.00000000000E+00  0.29989323636E+02  0.29989323636E+02  0.00000000000E+00 0.  1.
         -2   -1    0    0    0  501 -0.00000000000E+00 -0.00000000000E+00 -0.46050201557E+03  0.46050201557E+03  0.00000000000E+00 0. -1.
         25    2    1    2    0    0  0.42594900265E+02 -0.17890118406E+02 -0.26291658694E+03  0.29479979830E+03  0.12508959798E+03 0.  0.
          5    1    3    3  502    0 -0.29640894292E+02 -0.40500428189E+02 -0.60888667884E+02  0.79017527009E+02  0.41800000000E+01 0. -1.
         -5    1    3    3    0  502  0.72235794557E+02  0.22610309784E+02 -0.20202791906E+03  0.21578227129E+03  0.41800000000E+01 0. -1.
        -11    1    1    2    0    0 -0.58703162060E+02  0.80345384892E+01 -0.16655358007E+03  0.17677870369E+03  0.00000000000E+00 0. -1.
         11    1    1    2    0    0  0.16108261794E+02  0.98555799164E+01 -0.10425249256E+01  0.18912837221E+02  0.00000000000E+00 0.  1.
</event>
<event>
 7    1  0.2688177E-009  0.4019385E+03  0.7561462E-02  0.1043110E+00
         -1   -1    0    0    0  501 -0.00000000000E+00  0.00000000000E+00  0.10078534746E+04  0.10078534746E+04  0.00000000000E+00 0.  1.
          1   -1    0    0  501    0  0.00000000000E+00 -0.00000000000E+00 -0.22695247824E+03  0.22695247824E+03  0.00000000000E+00 0. -1.
         25    2    1    2    0    0 -0.10244113089E+03 -0.38468376712E+03  0.70457991586E+03  0.81887294592E+03  0.12507700727E+03 0.  0.
          5    1    3    3  502    0 -0.88990242359E+02 -0.18280420806E+03  0.44876284780E+03  0.49268875335E+03  0.41800000000E+01 0.  1.
         -5    1    3    3    0  502 -0.13450888526E+02 -0.20187955906E+03  0.25581706807E+03  0.32618419257E+03  0.41800000000E+01 0.  1.
        -11    1    1    2    0    0  0.26232550159E+02  0.11057651516E+03 -0.20351002856E+02  0.11545334863E+03  0.00000000000E+00 0. -1.
         11    1    1    2    0    0  0.76208580726E+02  0.27410725196E+03  0.96672083381E+02  0.30047965831E+03  0.00000000000E+00 0.  1.
</event>
<event>
 7    1  0.2688177E-009  0.1202682E+03  0.7561462E-02  0.1242655E+00
         -1   -1    0    0    0  501 -0.00000000000E+00  0.00000000000E+00  0.43390210036E+03  0.43390210036E+03  0.00000000000E+00 0.  1.
          1   -1    0    0  501    0  0.00000000000E+00 -0.00000000000E+00 -0.51425237963E+02  0.51425237963E+02  0.00000000000E+00 0. -1.
         25    2    1    2    0    0  0.62712362965E+02 -0.26718086460E+02  0.96643571716E+02  0.17214533858E+03  0.12508933219E+03 0.  0.
          5    1    3    3  502    0  0.90883228627E+02 -0.13771476752E+02  0.10514934260E+03  0.13972570081E+03  0.41800000000E+01 0. -1.
         -5    1    3    3    0  502 -0.28170865662E+02 -0.12946609707E+02 -0.85057708806E+01  0.32419637773E+02  0.41800000000E+01 0. -1.
        -11    1    1    2    0    0 -0.54848692177E+02 -0.28258722565E+02  0.86458440356E+02  0.10621674229E+03  0.00000000000E+00 0. -1.
         11    1    1    2    0    0 -0.78636707876E+01  0.54976809025E+02  0.19937485032E+03  0.20696525745E+03  0.00000000000E+00 0.  1.
</event>
<event>
 7    1  0.2688177E-009  0.2335711E+03  0.7561462E-02  0.1124151E+00
          1   -1    0    0  501    0  0.00000000000E+00  0.00000000000E+00  0.52504643241E+03  0.52504643241E+03  0.00000000000E+00 0. -1.
         -1   -1    0    0    0  501 -0.00000000000E+00 -0.00000000000E+00 -0.21355240834E+03  0.21355240834E+03  0.00000000000E+00 0.  1.
         25    2    1    2    0    0  0.77703149988E+02 -0.19981931851E+03 -0.98611621633E+02  0.26708954745E+03  0.12508810843E+03 0.  0.
          5    1    3    3  502    0 -0.34224126361E+02 -0.42631767592E+02 -0.15771029490E+02  0.57052223483E+02  0.41800000000E+01 0. -1.
         -5    1    3    3    0  502  0.11192727635E+03 -0.15718755092E+03 -0.82840592143E+02  0.21003732397E+03  0.41800000000E+01 0. -1.
        -11    1    1    2    0    0 -0.51434813049E+02  0.70073814973E+02  0.90059225333E+02  0.12516606411E+03  0.00000000000E+00 0. -1.
         11    1    1    2    0    0 -0.26268336939E+02  0.12974550353E+03  0.32004642037E+03  0.34634322919E+03  0.00000000000E+00 0.  1.
</event>
<event>
 7    1  0.2688177E-009  0.1042001E+03  0.7561462E-02  0.1271704E+00
          3   -1    0    0  501    0  0.00000000000E+00  0.00000000000E+00  0.71791854465E+02  0.71791854465E+02  0.00000000000E+00 0. -1.
         -3   -1    0    0    0  501 -0.00000000000E+00 -0.00000000000E+00 -0.24747703955E+03  0.24747703955E+03  0.00000000000E+00 0.  1.
         25    2    1    2    0    0 -0.35619615194E+02 -0.17311628459E+02 -0.17655528818E+03  0.21997614082E+03  0.12509709540E+03 0.  0.
          5    1    3    3  502    0  0.84530972728E+01 -0.60813052729E+02 -0.12485570736E+03  0.13919806858E+03  0.41800000000E+01 0. -1.
         -5    1    3    3    0  502 -0.44072712467E+02  0.43501424269E+02 -0.51699580822E+02  0.80778072240E+02  0.41800000000E+01 0. -1.
        -11    1    1    2    0    0  0.59269731977E+02  0.14128702889E+02 -0.23387637097E+02  0.65264867600E+02  0.00000000000E+00 0.  1.
         11    1    1    2    0    0 -0.23650116783E+02  0.31829255699E+01  0.24257740192E+02  0.34027885598E+02  0.00000000000E+00 0. -1.
</event>
<event>
 7    1  0.2688177E-009  0.1809632E+03  0.7561462E-02  0.1166874E+00
          1   -1    0    0  501    0  0.00000000000E+00  0.00000000000E+00  0.14995530514E+03  0.14995530514E+03  0.00000000000E+00 0. -1.
         -1   -1    0    0    0  501 -0.00000000000E+00 -0.00000000000E+00 -0.24851369084E+03  0.24851369084E+03  0.00000000000E+00 0.  1.
         25    2    1    2    0    0 -0.21942687043E+02 -0.15370427794E+03 -0.86115818170E+02  0.21717341100E+03  0.12506746074E+03 0.  0.
          5    1    3    3  502    0  0.36208856177E+02 -0.72114094151E+02  0.59761406780E+01  0.81022901073E+02  0.41800000000E+01 0.  1.
         -5    1    3    3    0  502 -0.58151543220E+02 -0.81590183784E+02 -0.92091958848E+02  0.13615050993E+03  0.41800000000E+01 0.  1.
        -11    1    1    2    0    0 -0.36489677961E+02  0.66921997307E+02 -0.66923109499E+01  0.76516908897E+02  0.00000000000E+00 0.  1.
         11    1    1    2    0    0  0.58432365004E+02  0.86782280628E+02 -0.57502565799E+01  0.10477867608E+03  0.00000000000E+00 0. -1.
</event>
<event>
 7    1  0.2688177E-009  0.1025472E+03  0.7561462E-02  0.1275029E+00
         -2   -1    0    0    0  501 -0.00000000000E+00  0.00000000000E+00  0.84277964966E+02  0.84277964966E+02  0.00000000000E+00 0.  1.
          2   -1    0    0  501    0  0.00000000000E+00 -0.00000000000E+00 -0.24620371871E+03  0.24620371871E+03  0.00000000000E+00 0. -1.
         25    2    1    2    0    0  0.37859215623E+02 -0.76314931210E+02 -0.13477418286E+03  0.20265563640E+03  0.12509171701E+03 0.  0.
          5    1    3    3  502    0  0.66968946522E+01 -0.17704291604E+02  0.23801385429E+02  0.30696395350E+02  0.41800000000E+01 0.  1.
         -5    1    3    3    0  502  0.31162320970E+02 -0.58610639606E+02 -0.15857556829E+03  0.17195924105E+03  0.41800000000E+01 0.  1.
        -11    1    1    2    0    0 -0.42832710980E+02  0.92677435288E+02 -0.36390571610E+02  0.10838829200E+03  0.00000000000E+00 0. -1.
         11    1    1    2    0    0  0.49734953569E+01 -0.16362504078E+02  0.92390007250E+01  0.19437755276E+02  0.00000000000E+00 0.  1.
</event>
<event>
 7    1  0.2688177E-009  0.1174938E+03  0.7561462E-02  0.1247290E+00
          2   -1    0    0  501    0  0.00000000000E+00  0.00000000000E+00  0.48794271071E+03  0.48794271071E+03  0.00000000000E+00 0.  1.
         -2   -1    0    0    0  501 -0.00000000000E+00 -0.00000000000E+00 -0.40388181476E+02  0.40388181476E+02  0.00000000000E+00 0. -1.
         25    2    1    2    0    0 -0.14313301874E+02 -0.79204027270E+02  0.28097623419E+03  0.31791788523E+03  0.12508392792E+03 0.  0.
          5    1    3    3  502    0 -0.69452848467E+02 -0.34904759841E+02  0.15099858539E+03  0.16988256417E+03  0.41800000000E+01 0. -1.
         -5    1    3    3    0  502  0.55139546592E+02 -0.44299267430E+02  0.12997764880E+03  0.14803532106E+03  0.41800000000E+01 0. -1.
        -11    1    1    2    0    0 -0.98751194700E+01  0.19088557055E+02 -0.89688823631E+01  0.23288019362E+02  0.00000000000E+00 0. -1.
         11    1    1    2    0    0  0.24188421344E+02  0.60115470216E+02  0.17554717741E+03  0.18712498760E+03  0.00000000000E+00 0.  1.
</event>
<event>
 7    1  0.2688177E-009  0.2110714E+03  0.7561462E-02  0.1140720E+00
          1   -1    0    0  501    0  0.00000000000E+00  0.00000000000E+00  0.23371974839E+03  0.23371974839E+03  0.00000000000E+00 0. -1.
         -1   -1    0    0    0  501 -0.00000000000E+00 -0.00000000000E+00 -0.21581367580E+03  0.21581367580E+03  0.00000000000E+00 0.  1.
         25    2    1    2    0    0  0.18613660694E+03 -0.64506992243E+00 -0.51612577644E+02  0.23012662867E+03  0.12508858659E+03 0.  0.
          5    1    3    3  502    0  0.15091153851E+03  0.52521770070E+02 -0.29840374079E+02  0.16260611647E+03  0.41800000000E+01 0.  1.
         -5    1    3    3    0  502  0.35225068425E+02 -0.53166839993E+02 -0.21772203565E+02  0.67520512206E+02  0.41800000000E+01 0. -1.
        -11    1    1    2    0    0 -0.98833741680E+02 -0.33913233829E+02  0.33570795488E+01  0.10454418160E+03  0.00000000000E+00 0.  1.
         11    1    1    2    0    0 -0.87302865256E+02  0.34558303751E+02  0.66161570686E+02  0.11486261392E+03  0.00000000000E+00 0. -1.
</event>
<event>
 7    1  0.3401671E-009  0.1640549E+03  0.7561462E-02  0.1184193E+00
          2   -1    0    0  501    0  0.00000000000E+00  0.00000000000E+00  0.90662368569E+03  0.90662368569E+03  0.00000000000E+00 0.  1.
         -2   -1    0    0    0  501 -0.00000000000E+00 -0.00000000000E+00 -0.36712883196E+02  0.36712883196E+02  0.00000000000E+00 0. -1.
         25    2    1    2    0    0 -0.41305128053E+02  0.13175075953E+03  0.58277173371E+03  0.61182892969E+03  0.12508944539E+03 0.  0.
          5    1    3    3  502    0 -0.39190743640E+00 -0.22194331057E+02  0.37751022294E+02  0.43992658556E+02  0.41800000000E+01 0. -1.
         -5    1    3    3    0  502 -0.40913220616E+02  0.15394509058E+03  0.54502071142E+03  0.56783627113E+03  0.41800000000E+01 0. -1.
        -11    1    1    2    0    0  0.50587299602E+02 -0.88458646017E+02  0.11448657717E+03  0.15326833752E+03  0.00000000000E+00 0. -1.
         11    1    1    2    0    0 -0.92821715490E+01 -0.43292113509E+02  0.17265249162E+03  0.17823930168E+03  0.00000000000E+00 0.  1.
</event>
<event>
 7    1  0.2688177E-009  0.7905589E+02  0.7561462E-02  0.1331752E+00
          1   -1    0    0  501    0  0.00000000000E+00  0.00000000000E+00  0.53796098276E+03  0.53796098276E+03  0.00000000000E+00 0. -1.
         -1   -1    0    0    0  501 -0.00000000000E+00 -0.00000000000E+00 -0.25076373052E+02  0.25076373052E+02  0.00000000000E+00 0.  1.
         25    2    1    2    0    0 -0.25449836701E+02  0.33559657702E+02  0.30616437478E+03  0.33339298345E+03  0.12506123386E+03 0.  0.
          5    1    3    3  502    0 -0.35393110751E+02  0.37946867642E+02  0.31468639430E+03  0.31896337754E+03  0.41800000000E+01 0. -1.
         -5    1    3    3    0  502  0.99432740494E+01 -0.43872099404E+01 -0.85220195236E+01  0.14429605907E+02  0.41800000000E+01 0. -1.
        -11    1    1    2    0    0 -0.30902634053E+02 -0.18737814830E+02  0.44805616897E+02  0.57564066930E+02  0.00000000000E+00 0.  1.
         11    1    1    2    0    0  0.56352470754E+02 -0.14821842872E+02  0.16191461804E+03  0.17208030544E+03  0.00000000000E+00 0. -1.
</event>
<event>
 7    1  0.2688177E-009  0.1274761E+03  0.7561462E-02  0.1231250E+00
          1   -1    0    0  501    0  0.00000000000E+00  0.00000000000E+00  0.72763543029E+02  0.72763543029E+02  0.00000000000E+00 0. -1.
         -1   -1    0    0    0  501 -0.00000000000E+00 -0.00000000000E+00 -0.24881125543E+03  0.24881125543E+03  0.00000000000E+00 0.  1.
         25    2    1    2    0    0  0.42546660702E+02  0.68789668425E+02 -0.63337874007E+02  0.16186951103E+03  0.12509122870E+03 0.  0.
          5    1    3    3  502    0  0.10142577605E+01  0.97729053008E+02 -0.36406532793E+02  0.10437865946E+03  0.41800000000E+01 0. -1.
         -5    1    3    3    0  502  0.41532402942E+02 -0.28939384583E+02 -0.26931341214E+02  0.57490851566E+02  0.41800000000E+01 0. -1.
        -11    1    1    2    0    0  0.16206280960E+02 -0.45021253719E+00 -0.10974026571E+01  0.16249631580E+02  0.00000000000E+00 0. -1.
         11    1    1    2    0    0 -0.58752941663E+02 -0.68339455888E+02 -0.11161243574E+03  0.14345565585E+03  0.00000000000E+00 0.  1.
</event>
<event>
 7    1  0.2688177E-009  0.1599534E+03  0.7561462E-02  0.1188749E+00
         -3   -1    0    0    0  501 -0.00000000000E+00  0.00000000000E+00  0.46178989947E+02  0.46178989947E+02  0.00000000000E+00 0.  1.
          3   -1    0    0  501    0  0.00000000000E+00 -0.00000000000E+00 -0.59210631975E+03  0.59210631975E+03  0.00000000000E+00 0. -1.
         25    2    1    2    0    0  0.88047494174E+02 -0.82504330674E+02 -0.34277967652E+03  0.38430861585E+03  0.12504351151E+03 0.  0.
          5    1    3    3  502    0  0.46484926272E+02 -0.11256209174E+03 -0.22799541310E+03  0.25851586733E+03  0.41800000000E+01 0. -1.
         -5    1    3    3    0  502  0.41562567902E+02  0.30057761064E+02 -0.11478426342E+03  0.12579274852E+03  0.41800000000E+01 0. -1.
        -11    1    1    2    0    0 -0.92062184381E+02  0.34339985284E+02 -0.16646502781E+03  0.19330102397E+03  0.00000000000E+00 0.  1.
         11    1    1    2    0    0  0.40146902068E+01  0.48164345390E+02 -0.36682625474E+02  0.60675669885E+02  0.00000000000E+00 0. -1.
</event>
<event>
 7    1  0.2688177E-009  0.1148239E+03  0.7561462E-02  0.1251889E+00
         -1   -1    0    0    0  501 -0.00000000000E+00  0.00000000000E+00  0.35980943904E+03  0.35980943904E+03  0.00000000000E+00 0.  1.
          1   -1    0    0  501    0  0.00000000000E+00 -0.00000000000E+00 -0.78192639396E+02  0.78192639396E+02  0.00000000000E+00 0. -1.
         25    2    1    2    0    0  0.53126307734E+02  0.40938103905E+02  0.86144433853E+01  0.14219711847E+03  0.12508988345E+03 0.  0.
          5    1    3    3  502    0  0.68890209740E+00  0.61504929413E+02  0.43824302392E+02  0.75639756797E+02  0.41800000000E+01 0. -1.
         -5    1    3    3    0  502  0.52437405637E+02 -0.20566825508E+02 -0.35209859006E+02  0.66557361671E+02  0.41800000000E+01 0. -1.
        -11    1    1    2    0    0 -0.60017097485E+02  0.93646189097E+01  0.11829345543E+03  0.13297777888E+03  0.00000000000E+00 0. -1.
         11    1    1    2    0    0  0.68907897506E+01 -0.50302722815E+02  0.15470890083E+03  0.16282718109E+03  0.00000000000E+00 0.  1.
</event>
<event>
 7    1  0.2688177E-009  0.8810419E+02  0.7561462E-02  0.1307509E+00
          2   -1    0    0  501    0  0.00000000000E+00  0.00000000000E+00  0.55392350048E+03  0.55392350048E+03  0.00000000000E+00 0. -1.
         -2   -1    0    0    0  501 -0.00000000000E+00 -0.00000000000E+00 -0.29742405466E+02  0.29742405466E+02  0.00000000000E+00 0.  1.
         25    2    1    2    0    0  0.60740673519E+02  0.15831735879E+02  0.34788256980E+03  0.37497929229E+03  0.12508842470E+03 0.  0.
          5    1    3    3  502    0  0.21301618273E+02  0.42191203563E+02  0.31138929013E+03  0.31498352180E+03  0.41800000000E+01 0. -1.
         -5    1    3    3    0  502  0.39439055246E+02 -0.26359467684E+02  0.36493279670E+02  0.59995770487E+02  0.41800000000E+01 0. -1.
        -11    1    1    2    0    0 -0.35065107909E+01 -0.23172662534E+02  0.13672071335E+03  0.13871489237E+03  0.00000000000E+00 0. -1.
         11    1    1    2    0    0 -0.57234162728E+02  0.73409266554E+01  0.39577811859E+02  0.69971721280E+02  0.00000000000E+00 0.  1.
</event>
<event>
 7    1  0.2688177E-009  0.1034975E+03  0.7561462E-02  0.1273108E+00
          2   -1    0    0  501    0  0.00000000000E+00  0.00000000000E+00  0.37385285772E+03  0.37385285772E+03  0.00000000000E+00 0.  1.
         -2   -1    0    0    0  501 -0.00000000000E+00 -0.00000000000E+00 -0.35898426256E+02  0.35898426256E+02  0.00000000000E+00 0. -1.
         25    2    1    2    0    0  0.64471353534E+01 -0.15862002289E+02  0.12527028690E+03  0.17785661987E+03  0.12508862371E+03 0.  0.
          5    1    3    3  502    0  0.25524184337E+02  0.46318048972E+02  0.88066744821E+02  0.10281084374E+03  0.41800000000E+01 0. -1.
         -5    1    3    3    0  502 -0.19077048984E+02 -0.62180051261E+02  0.37203542078E+02  0.75045776136E+02  0.41800000000E+01 0. -1.
        -11    1    1    2    0    0  0.40029652056E+02  0.13456690415E+02  0.13378925302E+03  0.14029618592E+03  0.00000000000E+00 0.  1.
         11    1    1    2    0    0 -0.46476787409E+02  0.24053118743E+01  0.78894891549E+02  0.91598478184E+02  0.00000000000E+00 0. -1.
</event>
<event>
 7    1  0.2688177E-009  0.1207899E+03  0.7561462E-02  0.1241800E+00
          2   -1    0    0  501    0  0.00000000000E+00  0.00000000000E+00  0.55415605704E+03  0.55415605704E+03  0.00000000000E+00 0. -1.
         -2   -1    0    0    0  501 -0.00000000000E+00 -0.00000000000E+00 -0.50507151431E+02  0.50507151431E+02  0.00000000000E+00 0.  1.
         25    2    1    2    0    0 -0.80481976969E+02 -0.85086884974E+02  0.35988405127E+03  0.39860505771E+03  0.12510929247E+03 0.  0.
          5    1    3    3  502    0 -0.27437176403E+02 -0.14347005545E+02  0.35530048519E+01  0.31444100568E+02  0.41800000000E+01 0. -1.
         -5    1    3    3    0  502 -0.53044800566E+02 -0.70739879429E+02  0.35633104641E+03  0.36716095714E+03  0.41800000000E+01 0. -1.
        -11    1    1    2    0    0  0.77419772799E+02  0.63820311554E+02  0.54371304808E+02  0.11411876346E+03  0.00000000000E+00 0.  1.
         11    1    1    2    0    0  0.30622041699E+01  0.21266573420E+02  0.89393549537E+02  0.91939387306E+02  0.00000000000E+00 0. -1.
</event>
<event>
 7    1  0.2688177E-009  0.9858032E+02  0.7561462E-02  0.1283310E+00
         -2   -1    0    0    0  501 -0.00000000000E+00  0.00000000000E+00  0.40170897312E+02  0.40170897312E+02  0.00000000000E+00 0.  1.
          2   -1    0    0  501    0  0.00000000000E+00 -0.00000000000E+00 -0.33788874470E+03  0.33788874470E+03  0.00000000000E+00 0. -1.
         25    2    1    2    0    0 -0.30077190221E+02  0.13313097660E+02 -0.21535525208E+03  0.25120998580E+03  0.12508675560E+03 0.  0.
          5    1    3    3  502    0 -0.84524789594E+01 -0.50065462157E+02 -0.14634210993E+03  0.15495638238E+03  0.41800000000E+01 0. -1.
         -5    1    3    3    0  502 -0.21624711262E+02  0.63378559816E+02 -0.69013142143E+02  0.96253603413E+02  0.41800000000E+01 0. -1.
        -11    1    1    2    0    0 -0.22016384842E+02 -0.15586604907E+02  0.26654406135E+01  0.27106604872E+02  0.00000000000E+00 0.  1.
         11    1    1    2    0    0  0.52093575063E+02  0.22735072472E+01 -0.85028035919E+02  0.99743051338E+02  0.00000000000E+00 0. -1.
</event>
<event>
 7    1  0.2688177E-009  0.2315626E+03  0.7561462E-02  0.1125545E+00
         -2   -1    0    0    0  501 -0.00000000000E+00  0.00000000000E+00  0.48317242696E+02  0.48317242696E+02  0.00000000000E+00 0.  1.
          2   -1    0    0  501    0  0.00000000000E+00 -0.00000000000E+00 -0.12340904859E+04  0.12340904859E+04  0.00000000000E+00 0. -1.
         25    2    1    2    0    0  0.10661174606E+03 -0.17747239572E+03 -0.42959328482E+03  0.49301188899E+03  0.12509123343E+03 0.  0.
          5    1    3    3  502    0  0.10354306995E+03 -0.51665315530E+02 -0.21538148393E+03  0.24453451328E+03  0.41800000000E+01 0.  1.
         -5    1    3    3    0  502  0.30686761098E+01 -0.12580708019E+03 -0.21421180088E+03  0.24847737571E+03  0.41800000000E+01 0.  1.
        -11    1    1    2    0    0 -0.21214558567E+02  0.11151681253E+03 -0.47097101720E+03  0.48445820874E+03  0.00000000000E+00 0. -1.
         11    1    1    2    0    0 -0.85397187497E+02  0.65955583191E+02 -0.28520894118E+03  0.30493763087E+03  0.00000000000E+00 0.  1.
</event>
<event>
 7    1  0.2688177E-009  0.1139352E+03  0.7561462E-02  0.1253451E+00
          1   -1    0    0  501    0  0.00000000000E+00  0.00000000000E+00  0.67311218727E+03  0.67311218727E+03  0.00000000000E+00 0. -1.
         -1   -1    0    0    0  501 -0.00000000000E+00 -0.00000000000E+00 -0.20973575691E+02  0.20973575691E+02  0.00000000000E+00 0.  1.
         25    2    1    2    0    0 -0.73833295075E+01  0.46985456115E+02  0.31635261098E+03  0.34349611107E+03  0.12509379362E+03 0.  0.
          5    1    3    3  502    0 -0.50436391387E+02  0.65662602265E+02  0.23848720679E+03  0.25248569685E+03  0.41800000000E+01 0.  1.
         -5    1    3    3    0  502  0.43053061879E+02 -0.18677146149E+02  0.77865404196E+02  0.91010414218E+02  0.41800000000E+01 0.  1.
        -11    1    1    2    0    0  0.44709253837E+02 -0.11084026854E+02  0.11661042712E+03  0.12537848597E+03  0.00000000000E+00 0.  1.
         11    1    1    2    0    0 -0.37325924330E+02 -0.35901429261E+02  0.21917557347E+03  0.22521116592E+03  0.00000000000E+00 0. -1.
</event>
<event>
 7    1  0.2688177E-009  0.1113833E+03  0.7561462E-02  0.1258029E+00
          3   -1    0    0  501    0  0.00000000000E+00  0.00000000000E+00  0.45650633851E+02  0.45650633851E+02  0.00000000000E+00 0. -1.
         -3   -1    0    0    0  501 -0.00000000000E+00 -0.00000000000E+00 -0.29544698838E+03  0.29544698838E+03  0.00000000000E+00 0.  1.
         25    2    1    2    0    0 -0.24670688210E+02  0.34005621500E+02 -0.14399466201E+03  0.19530810216E+03  0.12508304014E+03 0.  0.
          5    1    3    3  502    0 -0.48342527093E+02 -0.32835001247E+02 -0.47139212165E+02  0.75197838773E+02  0.41800000000E+01 0. -1.
         -5    1    3    3    0  502  0.23671838884E+02  0.66840622747E+02 -0.96855449849E+02  0.12011026339E+03  0.41800000000E+01 0. -1.
        -11    1    1    2    0    0  0.55212781846E+02 -0.28419757269E+02 -0.42396602489E+02  0.75190463391E+02  0.00000000000E+00 0.  1.
         11    1    1    2    0    0 -0.30542093636E+02 -0.55858642313E+01 -0.63405090029E+02  0.70599056683E+02  0.00000000000E+00 0. -1.
</event>
<event>
 7    1  0.2688177E-009  0.1267449E+03  0.7561462E-02  0.1232367E+00
         -3   -1    0    0    0  501 -0.00000000000E+00  0.00000000000E+00  0.18498566434E+02  0.18498566434E+02  0.00000000000E+00 0.  1.
          3   -1    0    0  501    0  0.00000000000E+00 -0.00000000000E+00 -0.98799468443E+03  0.98799468443E+03  0.00000000000E+00 0. -1.
         25    2    1    2    0    0 -0.20867119742E+02  0.79335017469E+02 -0.52652841448E+03  0.54736505895E+03  0.12508738873E+03 0.  0.
          5    1    3    3  502    0  0.25968188886E+02 -0.22447880802E+02 -0.83662426630E+02  0.90526947458E+02  0.41800000000E+01 0. -1.
         -5    1    3    3    0  502 -0.46835308628E+02  0.10178289827E+03 -0.44286598785E+03  0.45683811149E+03  0.41800000000E+01 0. -1.
        -11    1    1    2    0    0  0.22699907028E+02  0.43271955757E+01 -0.30545875276E+02  0.38302230967E+02  0.00000000000E+00 0. -1.
         11    1    1    2    0    0 -0.18327872869E+01 -0.83662213044E+02 -0.41242182824E+03  0.42082596095E+03  0.00000000000E+00 0.  1.
</event>
<event>
 7    1  0.2688177E-009  0.1219034E+03  0.7561462E-02  0.1239990E+00
         -1   -1    0    0    0  501 -0.00000000000E+00  0.00000000000E+00  0.10085151994E+04  0.10085151994E+04  0.00000000000E+00 0.  1.
          1   -1    0    0  501    0  0.00000000000E+00 -0.00000000000E+00 -0.28706364997E+02  0.28706364997E+02  0.00000000000E+00 0. -1.
         25    2    1    2    0    0  0.24836002638E+02  0.56230908035E+02  0.87552935536E+03  0.88655377792E+03  0.12508879648E+03 0.  0.
          5    1    3    3  502    0  0.57520215018E+02  0.79695162877E+02  0.65482396011E+03  0.66217202089E+03  0.41800000000E+01 0. -1.
         -5    1    3    3    0  502 -0.32684212380E+02 -0.23464254842E+02  0.22070539525E+03  0.22438175703E+03  0.41800000000E+01 0. -1.
        -11    1    1    2    0    0 -0.36087825005E+02  0.10282031240E+02  0.57184691176E+02  0.68396931107E+02  0.00000000000E+00 0.  1.
         11    1    1    2    0    0  0.11251822367E+02 -0.66512939276E+02  0.47094787854E+02  0.82270855354E+02  0.00000000000E+00 0. -1.
</event>
<event>
 7    1  0.2688177E-009  0.1198700E+03  0.7561462E-02  0.1243312E+00
         -1   -1    0    0    0  501 -0.00000000000E+00  0.00000000000E+00  0.37329091726E+03  0.37329091726E+03  0.00000000000E+00 0.  1.
          1   -1    0    0  501    0  0.00000000000E+00 -0.00000000000E+00 -0.49589737602E+02  0.49589737602E+02  0.00000000000E+00 0. -1.
         25    2    1    2    0    0 -0.70458806821E+02  0.62876535268E+01  0.23509813038E+03  0.27554096763E+03  0.12509083055E+03 0.  0.
          5    1    3    3  502    0 -0.78752067085E+02 -0.43958683152E+02  0.12535248878E+03  0.15448292053E+03  0.41800000000E+01 0.  1.
         -5    1    3    3    0  502  0.82932602643E+01  0.50246336679E+02  0.10974564160E+03  0.12105804709E+03  0.41800000000E+01 0.  1.
        -11    1    1    2    0    0  0.78379437399E+02  0.11183250766E+02  0.97994624472E+02  0.12598153726E+03  0.00000000000E+00 0.  1.
         11    1    1    2    0    0 -0.79206305781E+01 -0.17470904293E+02 -0.93915751954E+01  0.21358149972E+02  0.00000000000E+00 0. -1.
</event>
<event>
 7    1  0.2688177E-009  0.1041645E+03  0.7561462E-02  0.1271775E+00
         -2   -1    0    0    0  501 -0.00000000000E+00  0.00000000000E+00  0.44549504235E+02  0.44549504235E+02  0.00000000000E+00 0. -1.
          2   -1    0    0  501    0  0.00000000000E+00 -0.00000000000E+00 -0.37132599445E+03  0.37132599445E+03  0.00000000000E+00 0.  1.
         25    2    1    2    0    0  0.27830520916E+01 -0.33113592735E+02 -0.84009150981E+02  0.15430187302E+03  0.12508906893E+03 0.  0.
          5    1    3    3  502    0 -0.51665566116E+02 -0.26868796784E+01 -0.74902877060E+02  0.91128828789E+02  0.41800000000E+01 0. -1.
         -5    1    3    3    0  502  0.54448618208E+02 -0.30426713056E+02 -0.91062739210E+01  0.63173044227E+02  0.41800000000E+01 0. -1.
        -11    1    1    2    0    0 -0.38733814478E+02  0.41737090606E+02 -0.17928976503E+03  0.18811462718E+03  0.00000000000E+00 0.  1.
         11    1    1    2    0    0  0.35950762387E+02 -0.86234978713E+01 -0.63477574206E+02  0.73458998488E+02  0.00000000000E+00 0. -1.
</event>
<event>
 7    1  0.2688177E-009  0.1004384E+03  0.7561462E-02  0.1279377E+00
          1   -1    0    0  501    0  0.00000000000E+00  0.00000000000E+00  0.19843393719E+03  0.19843393719E+03  0.00000000000E+00 0. -1.
         -1   -1    0    0    0  501 -0.00000000000E+00 -0.00000000000E+00 -0.89737136246E+02  0.89737136246E+02  0.00000000000E+00 0.  1.
         25    2    1    2    0    0  0.15222855114E+02 -0.67845260016E+02  0.22604778739E+02  0.14489694697E+03  0.12509770020E+03 0.  0.
          5    1    3    3  502    0 -0.15837348300E+02 -0.48162380705E+02  0.68888743680E+02  0.85636253550E+02  0.41800000000E+01 0. -1.
         -5    1    3    3    0  502  0.31060203414E+02 -0.19682879311E+02 -0.46283964941E+02  0.59260693421E+02  0.41800000000E+01 0. -1.
        -11    1    1    2    0    0  0.30979916732E+01  0.86671890894E+02  0.55566244781E+02  0.10300107661E+03  0.00000000000E+00 0.  1.
         11    1    1    2    0    0 -0.18320846787E+02 -0.18826630878E+02  0.30525777422E+02  0.40273049853E+02  0.00000000000E+00 0. -1.
</event>
<event>
 7    1  0.2688177E-009  0.6884508E+02  0.7561462E-02  0.1364065E+00
         -4   -1    0    0    0  501 -0.00000000000E+00  0.00000000000E+00  0.13484626220E+03  0.13484626220E+03  0.00000000000E+00 0.  1.
          4   -1    0    0  501    0  0.00000000000E+00 -0.00000000000E+00 -0.92648387756E+02  0.92648387756E+02  0.00000000000E+00 0. -1.
         25    2    1    2    0    0 -0.15797207173E+02  0.32864669239E+01  0.44607846627E+02  0.13378381917E+03  0.12509155715E+03 0.  0.
          5    1    3    3  502    0 -0.57932459947E+01 -0.20337553840E+02 -0.39909995082E+02  0.45359209680E+02  0.41800000000E+01 0. -1.
         -5    1    3    3    0  502 -0.10003961178E+02  0.23624020764E+02  0.84517841708E+02  0.88424609489E+02  0.41800000000E+01 0. -1.
        -11    1    1    2    0    0  0.12173099833E+02 -0.45842473962E+02 -0.14003601234E+02  0.49455208280E+02  0.00000000000E+00 0. -1.
         11    1    1    2    0    0  0.36241073391E+01  0.42556007038E+02  0.11593629054E+02  0.44255622509E+02  0.00000000000E+00 0.  1.
</event>
<event>
 7    1  0.2688177E-009  0.1484078E+03  0.7561462E-02  0.1202443E+00
          3   -1    0    0  501    0  0.00000000000E+00  0.00000000000E+00  0.17748673856E+02  0.17748673856E+02  0.00000000000E+00 0. -1.
         -3   -1    0    0    0  501 -0.00000000000E+00 -0.00000000000E+00 -0.12660100456E+04  0.12660100456E+04  0.00000000000E+00 0.  1.
         25    2    1    2    0    0  0.54216306474E+01  0.10037413524E+03 -0.58550694704E+03  0.60709984262E+03  0.12508985879E+03 0.  0.
          5    1    3    3  502    0  0.64714464983E+02  0.42810271237E+02 -0.27838419719E+03  0.28902580326E+03  0.41800000000E+01 0. -1.
         -5    1    3    3    0  502 -0.59292834335E+02  0.57563864004E+02 -0.30712274985E+03  0.31807403936E+03  0.41800000000E+01 0. -1.
        -11    1    1    2    0    0  0.37948103438E+02 -0.79798572476E+02 -0.44191410937E+03  0.45066168107E+03  0.00000000000E+00 0.  1.
         11    1    1    2    0    0 -0.43369734085E+02 -0.20575562765E+02 -0.22084031532E+03  0.22599719575E+03  0.00000000000E+00 0. -1.
</event>
<event>
 7    1  0.2688177E-009  0.1163407E+03  0.7561462E-02  0.1249259E+00
         -4   -1    0    0    0  501 -0.00000000000E+00  0.00000000000E+00  0.38843422863E+03  0.38843422863E+03  0.00000000000E+00 0.  1.
          4   -1    0    0  501    0  0.00000000000E+00 -0.00000000000E+00 -0.59032636005E+02  0.59032636005E+02  0.00000000000E+00 0. -1.
         25    2    1    2    0    0  0.98332361958E+02  0.37881736557E+01  0.11965748670E+03  0.19911265062E+03  0.12507729548E+03 0.  0.
          5    1    3    3  502    0  0.50364982075E+01 -0.32966865494E+02 -0.10078074407E+02  0.35088752022E+02  0.41800000000E+01 0. -1.
         -5    1    3    3    0  502  0.93295863750E+02  0.36755039150E+02  0.12973556110E+03  0.16402389860E+03  0.41800000000E+01 0.  1.
        -11    1    1    2    0    0 -0.39865934640E+02 -0.53408388602E+01  0.17661282502E+03  0.18113505256E+03  0.00000000000E+00 0. -1.
         11    1    1    2    0    0 -0.58466427318E+02  0.15526652045E+01  0.33131280914E+02  0.67219161461E+02  0.00000000000E+00 0.  1.
</event>
<event>
 7    1  0.2688177E-009  0.1303075E+03  0.7561462E-02  0.1227000E+00
          2   -1    0    0  501    0  0.00000000000E+00  0.00000000000E+00  0.84747427468E+03  0.84747427468E+03  0.00000000000E+00 0. -1.
         -2   -1    0    0    0  501 -0.00000000000E+00 -0.00000000000E+00 -0.29924243396E+02  0.29924243396E+02  0.00000000000E+00 0.  1.
         25    2    1    2    0    0  0.66022674812E+02  0.82697949680E+02  0.30651944434E+03  0.34756166150E+03  0.12508794632E+03 0.  0.
          5    1    3    3  502    0  0.82816829784E+02  0.80867820977E+02  0.14725514833E+03  0.18734936049E+03  0.41800000000E+01 0. -1.
         -5    1    3    3    0  502 -0.16794154973E+02  0.18301287030E+01  0.15926429600E+03  0.16021230101E+03  0.41800000000E+01 0. -1.
        -11    1    1    2    0    0 -0.16257077093E+02 -0.75346257668E+02  0.40756681985E+03  0.41479159073E+03  0.00000000000E+00 0. -1.
         11    1    1    2    0    0 -0.49765597719E+02 -0.73516920119E+01  0.10346376710E+03  0.11504526585E+03  0.00000000000E+00 0.  1.
</event>
<event>
 7    1  0.2688177E-009  0.1116059E+03  0.7561462E-02  0.1257625E+00
         -2   -1    0    0    0  501 -0.00000000000E+00  0.00000000000E+00  0.17687141655E+02  0.17687141655E+02  0.00000000000E+00 0.  1.
          2   -1    0    0  501    0  0.00000000000E+00 -0.00000000000E+00 -0.15649607480E+04  0.15649607480E+04  0.00000000000E+00 0. -1.
         25    2    1    2    0    0  0.54355698468E+02 -0.92258071423E+01 -0.12525348223E+04  0.12599720012E+04  0.12508519170E+03 0.  0.
          5    1    3    3  502    0  0.46224215179E+02 -0.41688310113E+02 -0.28057315860E+03  0.28742540423E+03  0.41800000000E+01 0.  1.
         -5    1    3    3    0  502  0.81314832891E+01  0.32462502970E+02 -0.97196166372E+03  0.97254659696E+03  0.41800000000E+01 0.  1.
        -11    1    1    2    0    0  0.28885482611E+02 -0.23918431453E+02 -0.53494277795E+02  0.65330698953E+02  0.00000000000E+00 0.  1.
         11    1    1    2    0    0 -0.83241181080E+02  0.33144238595E+02 -0.24124450623E+03  0.25734518951E+03  0.00000000000E+00 0. -1.
</event>
<event>
 7    1  0.2688177E-009  0.1586587E+03  0.7561462E-02  0.1190219E+00
          1   -1    0    0  501    0  0.00000000000E+00  0.00000000000E+00  0.15953529954E+03  0.15953529954E+03  0.00000000000E+00 0. -1.
         -1   -1    0    0    0  501 -0.00000000000E+00 -0.00000000000E+00 -0.20200851648E+03  0.20200851648E+03  0.00000000000E+00 0.  1.
         25    2    1    2    0    0  0.32935495809E+02 -0.14151546762E+03 -0.10340476207E+01  0.19172773715E+03  0.12508829474E+03 0.  0.
          5    1    3    3  502    0 -0.31202058527E+02 -0.31559231681E+02 -0.38571928647E+02  0.58947600801E+02  0.41800000000E+01 0. -1.
         -5    1    3    3    0  502  0.64137554336E+02 -0.10995623593E+03  0.37537881027E+02  0.13278013635E+03  0.41800000000E+01 0. -1.
        -11    1    1    2    0    0 -0.70938963731E+01  0.40037490383E+02 -0.50353260704E+02  0.64720745248E+02  0.00000000000E+00 0.  1.
         11    1    1    2    0    0 -0.25841599436E+02  0.10147797723E+03  0.89140913877E+01  0.10509533363E+03  0.00000000000E+00 0. -1.
</event>
<event>
 7    1  0.2688177E-009  0.1268557E+03  0.7561462E-02  0.1232197E+00
          2   -1    0    0  501    0  0.00000000000E+00  0.00000000000E+00  0.17746302180E+03  0.17746302180E+03  0.00000000000E+00 0. -1.
         -2   -1    0    0    0  501 -0.00000000000E+00 -0.00000000000E+00 -0.11342486012E+03  0.11342486012E+03  0.00000000000E+00 0.  1.
         25    2    1    2    0    0  0.42077716476E+02 -0.60947821515E+02  0.87881793584E+02  0.16986697405E+03  0.12508560292E+03 0.  0.
          5    1    3    3  502    0  0.78902250222E+02 -0.61034656977E+02  0.87571597150E+02  0.13280456118E+03  0.41800000000E+01 0. -1.
         -5    1    3    3    0  502 -0.36824533746E+02  0.86835462088E-01  0.31019643395E+00  0.37062412871E+02  0.41800000000E+01 0. -1.
        -11    1    1    2    0    0  0.20523532933E+02  0.48936530839E+02 -0.21436950641E+02  0.57232353677E+02  0.00000000000E+00 0.  1.
         11    1    1    2    0    0 -0.62601249409E+02  0.12011290675E+02 -0.24066812701E+01  0.63788554193E+02  0.00000000000E+00 0. -1.
</event>
<event>
 7    1  0.2688177E-009  0.8401786E+02  0.7561462E-02  0.1318021E+00
         -2   -1    0    0    0  501 -0.00000000000E+00  0.00000000000E+00  0.85816126174E+02  0.85816126174E+02  0.00000000000E+00 0.  1.
          2   -1    0    0  501    0  0.00000000000E+00 -0.00000000000E+00 -0.13642050275E+03  0.13642050275E+03  0.00000000000E+00 0. -1.
         25    2    1    2    0    0  0.18241482954E+02  0.53807228418E+01 -0.14943297651E+02  0.12740433464E+03  0.12508740329E+03 0.  0.
          5    1    3    3  502    0 -0.91220704613E+01  0.39565469222E+02  0.39913932164E+02  0.57089691758E+02  0.41800000000E+01 0. -1.
         -5    1    3    3    0  502  0.27363553415E+02 -0.34184746380E+02 -0.54857229815E+02  0.70314642882E+02  0.41800000000E+01 0. -1.
        -11    1    1    2    0    0 -0.10116699516E+02  0.37883191595E+02 -0.32088953379E+02  0.50667393297E+02  0.00000000000E+00 0. -1.
         11    1    1    2    0    0 -0.81247834376E+01 -0.43263914437E+02 -0.35721255438E+01  0.44164900987E+02  0.00000000000E+00 0.  1.
</event>
<event>
 7    1  0.2688177E-009  0.1058090E+03  0.7561462E-02  0.1268534E+00
          2   -1    0    0  501    0  0.00000000000E+00  0.00000000000E+00  0.58280411533E+02  0.58280411533E+02  0.00000000000E+00 0. -1.
         -2   -1    0    0    0  501 -0.00000000000E+00 -0.00000000000E+00 -0.29749164801E+03  0.29749164801E+03  0.00000000000E+00 0.  1.
         25    2    1    2    0    0  0.38947152621E+01  0.73249039953E+02 -0.13514563387E+03  0.19822121269E+03  0.12508683442E+03 0.  0.
          5    1    3    3  502    0 -0.59969793553E+01 -0.31452183878E+02 -0.62455451737E+02  0.70309028465E+02  0.41800000000E+01 0. -1.
         -5    1    3    3    0  502  0.98916946174E+01  0.10470122383E+03 -0.72690182134E+02  0.12791218422E+03  0.41800000000E+01 0. -1.
        -11    1    1    2    0    0 -0.55449592002E+01 -0.18742641935E+02 -0.10106423816E+03  0.10293693911E+03  0.00000000000E+00 0.  1.
         11    1    1    2    0    0  0.16502439381E+01 -0.54506398019E+02 -0.30013644453E+01  0.54613907739E+02  0.00000000000E+00 0. -1.
</event>
<event>
 7    1  0.2688177E-009  0.1060823E+03  0.7561462E-02  0.1268002E+00
          1   -1    0    0  501    0  0.00000000000E+00  0.00000000000E+00  0.27397838113E+03  0.27397838113E+03  0.00000000000E+00 0. -1.
         -1   -1    0    0    0  501 -0.00000000000E+00 -0.00000000000E+00 -0.42614959392E+02  0.42614959392E+02  0.00000000000E+00 0.  1.
         25    2    1    2    0    0  0.16550216015E+02 -0.12248199149E+02  0.11000931169E+03  0.16784984478E+03  0.12509034217E+03 0.  0.
          5    1    3    3  502    0 -0.47639461123E+02  0.23378135113E+02  0.47245330437E+02  0.71173373571E+02  0.41800000000E+01 0.  1.
         -5    1    3    3    0  502  0.64189677137E+02 -0.35626334262E+02  0.62763981248E+02  0.96676471212E+02  0.41800000000E+01 0.  1.
        -11    1    1    2    0    0 -0.43512923433E+01  0.47705791416E+02  0.59194620139E+02  0.76149716566E+02  0.00000000000E+00 0.  1.
         11    1    1    2    0    0 -0.12198923671E+02 -0.35457592267E+02  0.62159489914E+02  0.72593779172E+02  0.00000000000E+00 0. -1.
</event>
<event>
 7    1  0.2688177E-009  0.1717677E+03  0.7561462E-02  0.1176017E+00
         -1   -1    0    0    0  501 -0.00000000000E+00  0.00000000000E+00  0.46736569718E+02  0.46736569718E+02  0.00000000000E+00 0.  1.
          1   -1    0    0  501    0  0.00000000000E+00 -0.00000000000E+00 -0.67406068408E+03  0.67406068408E+03  0.00000000000E+00 0. -1.
         25    2    1    2    0    0 -0.82091909163E+02 -0.11063222676E+03 -0.26082887668E+03  0.32041047048E+03  0.12511033345E+03 0.  0.
          5    1    3    3  502    0  0.16009331587E+02 -0.76659197211E+02 -0.81145934709E+02  0.11284975115E+03  0.41800000000E+01 0.  1.
         -5    1    3    3    0  502 -0.98101240750E+02 -0.33973029547E+02 -0.17968294197E+03  0.20756071933E+03  0.41800000000E+01 0.  1.
        -11    1    1    2    0    0  0.74795209902E+02  0.30547105238E+02 -0.18556739398E+03  0.20239245730E+03  0.00000000000E+00 0.  1.
         11    1    1    2    0    0  0.72966992607E+01  0.80085121520E+02 -0.18092784370E+03  0.19799432601E+03  0.00000000000E+00 0. -1.
</event>
<event>
 7    1  0.2688177E-009  0.1229471E+03  0.7561462E-02  0.1238313E+00
          1   -1    0    0  501    0  0.00000000000E+00  0.00000000000E+00  0.60179685633E+02  0.60179685633E+02  0.00000000000E+00 0. -1.
         -1   -1    0    0    0  501 -0.00000000000E+00 -0.00000000000E+00 -0.29902724923E+03  0.29902724923E+03  0.00000000000E+00 0.  1.
         25    2    1    2    0    0  0.29979268953E+02 -0.57265609123E+02 -0.71813733441E+02  0.15806201650E+03  0.12509309411E+03 0.  0.
          5    1    3    3  502    0  0.33754283609E+02  0.34402552472E+02 -0.18007316110E+02  0.51619987524E+02  0.41800000000E+01 0. -1.
         -5    1    3    3    0  502 -0.37750146555E+01 -0.91668161595E+02 -0.53806417331E+02  0.10644202897E+03  0.41800000000E+01 0. -1.
        -11    1    1    2    0    0 -0.49834694423E+02  0.53839265858E+01 -0.11314167817E+03  0.12374781927E+03  0.00000000000E+00 0.  1.
         11    1    1    2    0    0  0.19855425470E+02  0.51881682537E+02 -0.53892151984E+02  0.77397099099E+02  0.00000000000E+00 0. -1.
</event>
<event>
 7    1  0.2688177E-009  0.1370660E+03  0.7561462E-02  0.1217332E+00
          2   -1    0    0  501    0  0.00000000000E+00  0.00000000000E+00  0.15972789900E+03  0.15972789900E+03  0.00000000000E+00 0. -1.
         -2   -1    0    0    0  501 -0.00000000000E+00 -0.00000000000E+00 -0.12721070904E+03  0.12721070904E+03  0.00000000000E+00 0.  1.
         25    2    1    2    0    0  0.39660273997E+02 -0.83284144601E+02  0.24110624131E+01  0.15544336427E+03  0.12509052802E+03 0.  0.
          5    1    3    3  502    0  0.59721538205E+02  0.87510915089E+01  0.77780925059E+01  0.61001761050E+02  0.41800000000E+01 0. -1.
         -5    1    3    3    0  502 -0.20061264208E+02 -0.92035236110E+02 -0.53670300928E+01  0.94441603224E+02  0.41800000000E+01 0. -1.
        -11    1    1    2    0    0  0.22885990378E+02  0.20700753705E+02  0.29966802887E+02  0.43015102404E+02  0.00000000000E+00 0. -1.
         11    1    1    2    0    0 -0.62546264375E+02  0.62583390896E+02  0.13932465599E+00  0.88480141358E+02  0.00000000000E+00 0.  1.
</event>
<event>
 7    1  0.2688177E-009  0.1211525E+03  0.7561462E-02  0.1241208E+00
          1   -1    0    0  501    0  0.00000000000E+00  0.00000000000E+00  0.65812212240E+02  0.65812212240E+02  0.00000000000E+00 0. -1.
         -1   -1    0    0    0  501 -0.00000000000E+00 -0.00000000000E+00 -0.37058735786E+03  0.37058735786E+03  0.00000000000E+00 0.  1.
         25    2    1    2    0    0  0.58548323775E+02  0.88748809460E+02 -0.11491165492E+03  0.20038948980E+03  0.12508797620E+03 0.  0.
          5    1    3    3  502    0  0.28397606579E+02  0.90854900080E+02 -0.13398285230E+03  0.16440776757E+03  0.41800000000E+01 0.  1.
         -5    1    3    3    0  502  0.30150717196E+02 -0.21060906207E+01  0.19071197377E+02  0.35981722229E+02  0.41800000000E+01 0.  1.
        -11    1    1    2    0    0 -0.38093337767E+02 -0.88171864358E+02 -0.82204908437E+02  0.12642399700E+03  0.00000000000E+00 0. -1.
         11    1    1    2    0    0 -0.20454986007E+02 -0.57694510175E+00 -0.10765858226E+03  0.10958608330E+03  0.00000000000E+00 0.  1.
</event>
<event>
 7    1  0.2688177E-009  0.8845749E+02  0.7561462E-02  0.1306631E+00
         -2   -1    0    0    0  501 -0.00000000000E+00  0.00000000000E+00  0.26533251423E+02  0.26533251423E+02  0.00000000000E+00 0.  1.
          2   -1    0    0  501    0  0.00000000000E+00 -0.00000000000E+00 -0.50470038915E+03  0.50470038915E+03  0.00000000000E+00 0. -1.
         25    2    1    2    0    0 -0.39920906882E+02 -0.10820637544E+02 -0.28352228795E+03  0.31263639711E+03  0.12508342829E+03 0.  0.
          5    1    3    3  502    0  0.54014293061E+01 -0.49864878598E+02 -0.47820656199E+02  0.69425997404E+02  0.41800000000E+01 0.  1.
         -5    1    3    3    0  502 -0.45322336188E+02  0.39044241054E+02 -0.23570163175E+03  0.24321039971E+03  0.41800000000E+01 0.  1.
        -11    1    1    2    0    0  0.15251870593E+02  0.31128997884E+02 -0.17949713551E+02  0.39036217573E+02  0.00000000000E+00 0.  1.
         11    1    1    2    0    0  0.24669036289E+02 -0.20308360340E+02 -0.17669513622E+03  0.17956102588E+03  0.00000000000E+00 0. -1.
</event>
<event>
 7    1  0.2688177E-009  0.1103382E+03  0.7561462E-02  0.1259945E+00
         -2   -1    0    0    0  501 -0.00000000000E+00  0.00000000000E+00  0.31076400792E+02  0.31076400792E+02  0.00000000000E+00 0.  1.
          2   -1    0    0  501    0  0.00000000000E+00 -0.00000000000E+00 -0.55817875721E+03  0.55817875721E+03  0.00000000000E+00 0. -1.
         25    2    1    2    0    0 -0.58894948981E+01  0.72282877707E+02 -0.22407607779E+03  0.26667700398E+03  0.12508810997E+03 0.  0.
          5    1    3    3  502    0 -0.58921831238E+02  0.59373682981E+02 -0.96035697051E+02  0.12742583700E+03  0.41800000000E+01 0.  1.
         -5    1    3    3    0  502  0.53032336340E+02  0.12909194726E+02 -0.12804038074E+03  0.13925116698E+03  0.41800000000E+01 0.  1.
        -11    1    1    2    0    0 -0.16533567307E+02 -0.27175204842E+02 -0.26212394978E+02  0.41218202976E+02  0.00000000000E+00 0.  1.
         11    1    1    2    0    0  0.22423062205E+02 -0.45107672865E+02 -0.27681388365E+03  0.28135995105E+03  0.00000000000E+00 0. -1.
</event>
<event>
 7    1  0.2688177E-009  0.1899339E+03  0.7561462E-02  0.1158521E+00
         -2   -1    0    0    0  501 -0.00000000000E+00  0.00000000000E+00  0.37058922716E+02  0.37058922716E+02  0.00000000000E+00 0.  1.
          2   -1    0    0  501    0  0.00000000000E+00 -0.00000000000E+00 -0.14152635361E+04  0.14152635361E+04  0.00000000000E+00 0. -1.
         25    2    1    2    0    0 -0.11136856856E+03  0.11222845842E+03 -0.11129422452E+04  0.11310552898E+04  0.12508973793E+03 0.  0.
          5    1    3    3  502    0  0.84944031793E+01 -0.20151139115E+02 -0.96411285663E+02  0.98948631603E+02  0.41800000000E+01 0.  1.
         -5    1    3    3    0  502 -0.11986297174E+03  0.13237959753E+03 -0.10165309595E+04  0.10321066582E+04  0.41800000000E+01 0.  1.
        -11    1    1    2    0    0  0.38834808096E+02  0.69551026125E+01 -0.81443567357E+02  0.90496245425E+02  0.00000000000E+00 0.  1.
         11    1    1    2    0    0  0.72533760462E+02 -0.11918356103E+03 -0.18381880080E+03  0.23077092354E+03  0.00000000000E+00 0. -1.
</event>
<event>
 7    1  0.2720348E-009  0.1715763E+03  0.7561462E-02  0.1176214E+00
          2   -1    0    0  501    0  0.00000000000E+00  0.00000000000E+00  0.27029608682E+03  0.27029608682E+03  0.00000000000E+00 0. -1.
         -2   -1    0    0    0  501 -0.00000000000E+00 -0.00000000000E+00 -0.14962204815E+03  0.14962204815E+03  0.00000000000E+00 0.  1.
         25    2    1    2    0    0  0.11826670774E+03 -0.10431622308E+03  0.12693352046E+03  0.23796777476E+03  0.12509058577E+03 0.  0.
          5    1    3    3  502    0  0.10989413149E+03 -0.57366521923E+02  0.14126848397E+03  0.18799440134E+03  0.41800000000E+01 0.  1.
         -5    1    3    3    0  502  0.83725762518E+01 -0.46949701153E+02 -0.14334963506E+02  0.49973373412E+02  0.41800000000E+01 0.  1.
        -11    1    1    2    0    0 -0.70497902846E+02  0.18271196554E+02 -0.33017479302E+02  0.79962146473E+02  0.00000000000E+00 0.  1.
         11    1    1    2    0    0 -0.47768804895E+02  0.86045026523E+02  0.26757997511E+02  0.10198821374E+03  0.00000000000E+00 0. -1.
</event>
<event>
 7    1  0.2688177E-009  0.1187807E+03  0.7561462E-02  0.1245122E+00
          2   -1    0    0  501    0  0.00000000000E+00  0.00000000000E+00  0.46686482719E+03  0.46686482719E+03  0.00000000000E+00 0. -1.
         -2   -1    0    0    0  501 -0.00000000000E+00 -0.00000000000E+00 -0.38998449664E+02  0.38998449664E+02  0.00000000000E+00 0.  1.
         25    2    1    2    0    0  0.18198952627E+02 -0.64619235616E+02  0.31989123608E+03  0.34997935014E+03  0.12509314575E+03 0.  0.
          5    1    3    3  502    0  0.97719164511E+00 -0.95064173555E+02  0.28471318561E+03  0.30019530719E+03  0.41800000000E+01 0. -1.
         -5    1    3    3    0  502  0.17221760982E+02  0.30444937939E+02  0.35178050466E+02  0.49784042945E+02  0.41800000000E+01 0. -1.
        -11    1    1    2    0    0 -0.44703870138E+02  0.90559530609E+01  0.70009539770E+02  0.83557058050E+02  0.00000000000E+00 0. -1.
         11    1    1    2    0    0  0.26504917511E+02  0.55563282555E+02  0.37965601674E+02  0.72326868666E+02  0.00000000000E+00 0.  1.
</event>
<event>
 7    1  0.2792644E-009  0.1395032E+03  0.7561462E-02  0.1213999E+00
          1   -1    0    0  501    0  0.00000000000E+00  0.00000000000E+00  0.11335323367E+04  0.11335323367E+04  0.00000000000E+00 0. -1.
         -1   -1    0    0    0  501 -0.00000000000E+00 -0.00000000000E+00 -0.20676670566E+02  0.20676670566E+02  0.00000000000E+00 0.  1.
         25    2    1    2    0    0  0.90559197742E+01 -0.10475566814E+03  0.50762081149E+03  0.53327521536E+03  0.12509119620E+03 0.  0.
          5    1    3    3  502    0  0.50029987076E+02 -0.43039479806E+02  0.10657593921E+03  0.12542447787E+03  0.41800000000E+01 0.  1.
         -5    1    3    3    0  502 -0.40974067302E+02 -0.61716188335E+02  0.40104487228E+03  0.40785073749E+03  0.41800000000E+01 0.  1.
        -11    1    1    2    0    0  0.38131108302E+02  0.71240239068E+02  0.34350128872E+03  0.35287715771E+03  0.00000000000E+00 0. -1.
         11    1    1    2    0    0 -0.47187028076E+02  0.33515429073E+02  0.26173356588E+03  0.26805663415E+03  0.00000000000E+00 0.  1.
</event>
<event>
 7    1  0.2688177E-009  0.1217025E+03  0.7561462E-02  0.1240315E+00
          2   -1    0    0  501    0  0.00000000000E+00  0.00000000000E+00  0.55064483666E+03  0.55064483666E+03  0.00000000000E+00 0. -1.
         -2   -1    0    0    0  501 -0.00000000000E+00 -0.00000000000E+00 -0.38869312068E+02  0.38869312068E+02  0.00000000000E+00 0.  1.
         25    2    1    2    0    0 -0.62612654764E+02 -0.56734374392E+02  0.17616640318E+03  0.23198123857E+03  0.12506622112E+03 0.  0.
          5    1    3    3  502    0 -0.81923701309E+02  0.54931057053E+01  0.73304498732E+02  0.11014848606E+03  0.41800000000E+01 0.  1.
         -5    1    3    3    0  502  0.19311046545E+02 -0.62227480097E+02  0.10286190445E+03  0.12183275251E+03  0.41800000000E+01 0.  1.
        -11    1    1    2    0    0  0.49982146066E+02  0.64097849115E+02  0.33288026591E+03  0.34266021161E+03  0.00000000000E+00 0. -1.
         11    1    1    2    0    0  0.12630508698E+02 -0.73634747232E+01  0.27288555060E+01  0.14872698556E+02  0.00000000000E+00 0.  1.
</event>
<event>
 7    1  0.2688177E-009  0.1292595E+03  0.7561462E-02  0.1228559E+00
         -1   -1    0    0    0  501 -0.00000000000E+00  0.00000000000E+00  0.41674136307E+03  0.41674136307E+03  0.00000000000E+00 0.  1.
          1   -1    0    0  501    0  0.00000000000E+00 -0.00000000000E+00 -0.45783864538E+02  0.45783864538E+02  0.00000000000E+00 0. -1.
         25    2    1    2    0    0  0.34916588315E+02  0.75928065000E+02  0.17902216014E+03  0.23383943889E+03  0.12509080767E+03 0.  0.
          5    1    3    3  502    0 -0.34441611756E+02  0.51314656261E+02  0.13358147027E+03  0.14724435529E+03  0.41800000000E+01 0.  1.
         -5    1    3    3    0  502  0.69358200071E+02  0.24613408739E+02  0.45440689878E+02  0.86595083598E+02  0.41800000000E+01 0.  1.
        -11    1    1    2    0    0 -0.63479350369E+02 -0.33669845742E+02  0.94597505291E+02  0.11879383167E+03  0.00000000000E+00 0. -1.
         11    1    1    2    0    0  0.28562762054E+02 -0.42258219259E+02  0.97337833094E+02  0.10989195704E+03  0.00000000000E+00 0.  1.
</event>
<event>
 7    1  0.2688177E-009  0.1321034E+03  0.7561462E-02  0.1224368E+00
          1   -1    0    0  501    0  0.00000000000E+00  0.00000000000E+00  0.66729235477E+03  0.66729235477E+03  0.00000000000E+00 0.  1.
         -1   -1    0    0    0  501 -0.00000000000E+00 -0.00000000000E+00 -0.30417529903E+02  0.30417529903E+02  0.00000000000E+00 0. -1.
         25    2    1    2    0    0  0.71850555459E+02 -0.45100927748E+02  0.42519353044E+03  0.45125817152E+03  0.12509117885E+03 0.  0.
          5    1    3    3  502    0 -0.32463001168E+02 -0.29631721899E+02  0.98543941636E+02  0.10798271260E+03  0.41800000000E+01 0. -1.
         -5    1    3    3    0  502  0.10431355663E+03 -0.15469205849E+02  0.32664958881E+03  0.34327545892E+03  0.41800000000E+01 0. -1.
        -11    1    1    2    0    0 -0.12074355360E+01  0.43847260473E+02  0.13607747154E+03  0.14297243934E+03  0.00000000000E+00 0. -1.
         11    1    1    2    0    0 -0.70643119923E+02  0.12536672756E+01  0.75603822888E+02  0.10347927382E+03  0.00000000000E+00 0.  1.
</event>
<event>
 7    1  0.2688177E-009  0.1304520E+03  0.7561462E-02  0.1226787E+00
          2   -1    0    0  501    0  0.00000000000E+00  0.00000000000E+00  0.90468894476E+02  0.90468894476E+02  0.00000000000E+00 0. -1.
         -2   -1    0    0    0  501 -0.00000000000E+00 -0.00000000000E+00 -0.21124034347E+03  0.21124034347E+03  0.00000000000E+00 0.  1.
         25    2    1    2    0    0 -0.37658815857E+02 -0.69505514394E+02 -0.10009086890E+03  0.17865745424E+03  0.12510436034E+03 0.  0.
          5    1    3    3  502    0 -0.49329652828E+02  0.17950708858E+02 -0.64894982495E+02  0.83573164052E+02  0.41800000000E+01 0. -1.
         -5    1    3    3    0  502  0.11670836971E+02 -0.87456223252E+02 -0.35195886406E+02  0.95084290190E+02  0.41800000000E+01 0. -1.
        -11    1    1    2    0    0  0.99691867055E+01 -0.22083784506E+02  0.31818747493E+01  0.24437727975E+02  0.00000000000E+00 0. -1.
         11    1    1    2    0    0  0.27689629151E+02  0.91589298899E+02 -0.23862454837E+02  0.98614055724E+02  0.00000000000E+00 0.  1.
</event>
<event>
 7    1  0.2688177E-009  0.1138855E+03  0.7561462E-02  0.1253539E+00
          1   -1    0    0  501    0  0.00000000000E+00  0.00000000000E+00  0.77797008288E+03  0.77797008288E+03  0.00000000000E+00 0. -1.
         -1   -1    0    0    0  501 -0.00000000000E+00 -0.00000000000E+00 -0.30957623287E+02  0.30957623287E+02  0.00000000000E+00 0.  1.
         25    2    1    2    0    0  0.73780877807E+01 -0.71821115211E+02  0.62010911946E+03  0.63670734848E+03  0.12509284073E+03 0.  0.
          5    1    3    3  502    0 -0.41874257489E+02 -0.19557729072E+02  0.85511062370E+02  0.97291173261E+02  0.41800000000E+01 0. -1.
         -5    1    3    3    0  502  0.49252345270E+02 -0.52263386140E+02  0.53459805709E+03  0.53941617522E+03  0.41800000000E+01 0. -1.
        -11    1    1    2    0    0 -0.44473835658E+02  0.30650191246E+02  0.33331835155E+02  0.63469421900E+02  0.00000000000E+00 0. -1.
         11    1    1    2    0    0  0.37095747877E+02  0.41170923966E+02  0.93571504985E+02  0.10875093579E+03  0.00000000000E+00 0.  1.
</event>
<event>
 7    1  0.2688177E-009  0.1044732E+03  0.7561462E-02  0.1271161E+00
         -1   -1    0    0    0  501 -0.00000000000E+00  0.00000000000E+00  0.19983688778E+03  0.19983688778E+03  0.00000000000E+00 0.  1.
          1   -1    0    0  501    0  0.00000000000E+00 -0.00000000000E+00 -0.80839422097E+02  0.80839422097E+02  0.00000000000E+00 0. -1.
         25    2    1    2    0    0  0.98995201384E+01  0.64613249694E+02  0.83668797407E+02  0.16407636034E+03  0.12509081432E+03 0.  0.
          5    1    3    3  502    0  0.14734307750E+02  0.85234695932E+02  0.98415543294E+01  0.87157224641E+02  0.41800000000E+01 0.  1.
         -5    1    3    3    0  502 -0.48347876114E+01 -0.20621446237E+02  0.73827243078E+02  0.76919135699E+02  0.41800000000E+01 0.  1.
        -11    1    1    2    0    0  0.88037596225E+01  0.15859823489E+02 -0.11650921164E+02  0.21558853137E+02  0.00000000000E+00 0. -1.
         11    1    1    2    0    0 -0.18703279761E+02 -0.80473073184E+02  0.46979589442E+02  0.95041096403E+02  0.00000000000E+00 0.  1.
</event>
<event>
 7    1  0.2688177E-009  0.9046405E+02  0.7561462E-02  0.1301732E+00
          1   -1    0    0  501    0  0.00000000000E+00  0.00000000000E+00  0.24260652906E+03  0.24260652906E+03  0.00000000000E+00 0. -1.
         -1   -1    0    0    0  501 -0.00000000000E+00 -0.00000000000E+00 -0.85631586521E+02  0.85631586521E+02  0.00000000000E+00 0.  1.
         25    2    1    2    0    0  0.17081202154E+02 -0.50877662969E+02  0.17255887181E+03  0.21978256349E+03  0.12508999528E+03 0.  0.
          5    1    3    3  502    0  0.47765236565E+02 -0.74092218699E+02  0.78660106683E+02  0.11822038521E+03  0.41800000000E+01 0. -1.
         -5    1    3    3    0  502 -0.30684034411E+02  0.23214555729E+02  0.93898765125E+02  0.10156217828E+03  0.41800000000E+01 0. -1.
        -11    1    1    2    0    0 -0.10318297641E+02  0.38596875051E+02  0.36745317081E+02  0.54280791789E+02  0.00000000000E+00 0. -1.
         11    1    1    2    0    0 -0.67629045132E+01  0.12280787919E+02 -0.52329246353E+02  0.54174760297E+02  0.00000000000E+00 0.  1.
</event>
<event>
 7    1  0.2688177E-009  0.1275466E+03  0.7561462E-02  0.1231142E+00
          2   -1    0    0  501    0  0.00000000000E+00  0.00000000000E+00  0.21781770141E+02  0.21781770141E+02  0.00000000000E+00 0. -1.
         -2   -1    0    0    0  501 -0.00000000000E+00 -0.00000000000E+00 -0.10218112333E+04  0.10218112333E+04  0.00000000000E+00 0.  1.
         25    2    1    2    0    0 -0.70323704241E+02 -0.41859606382E+02 -0.75350374859E+03  0.76818774907E+03  0.12508744402E+03 0.  0.
          5    1    3    3  502    0  0.28028423163E+02  0.18443336787E+02 -0.15361759740E+03  0.15729458925E+03  0.41800000000E+01 0. -1.
         -5    1    3    3    0  502 -0.98352127404E+02 -0.60302943169E+02 -0.59988615119E+03  0.61089315982E+03  0.41800000000E+01 0. -1.
        -11    1    1    2    0    0  0.44652330990E+02  0.59718597268E+02 -0.22603731659E+03  0.23801892784E+03  0.00000000000E+00 0.  1.
         11    1    1    2    0    0  0.25671373251E+02 -0.17858990886E+02 -0.20488397998E+02  0.37386326546E+02  0.00000000000E+00 0. -1.
</event>
<event>
 7    1  0.2688177E-009  0.1196131E+03  0.7561462E-02  0.1243737E+00
         -1   -1    0    0    0  501 -0.00000000000E+00  0.00000000000E+00  0.40386015068E+02  0.40386015068E+02  0.00000000000E+00 0.  1.
          1   -1    0    0  501    0  0.00000000000E+00 -0.00000000000E+00 -0.43134927371E+03  0.43134927371E+03  0.00000000000E+00 0. -1.
         25    2    1    2    0    0 -0.66914173490E+02 -0.38616485425E+02 -0.19539038484E+03  0.24452697617E+03  0.12508916831E+03 0.  0.
          5    1    3    3  502    0 -0.29503453902E+02  0.38423132663E+02 -0.27134210780E+02  0.55682391386E+02  0.41800000000E+01 0. -1.
         -5    1    3    3    0  502 -0.37410719588E+02 -0.77039618088E+02 -0.16825617406E+03  0.18884458479E+03  0.41800000000E+01 0. -1.
        -11    1    1    2    0    0  0.54547204572E+02 -0.93324858123E+01 -0.15010792937E+03  0.15998400945E+03  0.00000000000E+00 0.  1.
         11    1    1    2    0    0  0.12366968918E+02  0.47948971238E+02 -0.45464944435E+02  0.67224303161E+02  0.00000000000E+00 0. -1.
</event>
<event>
 7    1  0.2688177E-009  0.1096903E+03  0.7561462E-02  0.1261144E+00
          1   -1    0    0  501    0  0.00000000000E+00  0.00000000000E+00  0.20241607405E+03  0.20241607405E+03  0.00000000000E+00 0. -1.
         -1   -1    0    0    0  501 -0.00000000000E+00 -0.00000000000E+00 -0.17746120156E+03  0.17746120156E+03  0.00000000000E+00 0.  1.
         25    2    1    2    0    0  0.45472569531E+02  0.52375251947E+01 -0.13335566495E+03  0.18848356661E+03  0.12508850969E+03 0.  0.
          5    1    3    3  502    0 -0.25072470619E+02 -0.35158029956E+02 -0.17252842762E+02  0.46688851310E+02  0.41800000000E+01 0.  1.
         -5    1    3    3    0  502  0.70545040150E+02  0.40395555150E+02 -0.11610282219E+03  0.14179471530E+03  0.41800000000E+01 0.  1.
        -11    1    1    2    0    0 -0.44394663881E+02 -0.40036485424E+02  0.13961612216E+03  0.15187648900E+03  0.00000000000E+00 0. -1.
         11    1    1    2    0    0 -0.10779056506E+01  0.34798960229E+02  0.18694415292E+02  0.39517220003E+02  0.00000000000E+00 0.  1.
</event>
<event>
 7    1  0.3041162E-009  0.1063048E+03  0.7561462E-02  0.1267570E+00
          2   -1    0    0  501    0  0.00000000000E+00  0.00000000000E+00  0.16869165679E+03  0.16869165679E+03  0.00000000000E+00 0. -1.
         -2   -1    0    0    0  501 -0.00000000000E+00 -0.00000000000E+00 -0.11454039204E+03  0.11454039204E+03  0.00000000000E+00 0.  1.
         25    2    1    2    0    0  0.66001301380E+02  0.34841926404E+02 -0.15553464579E+02  0.14649055908E+03  0.12508973587E+03 0.  0.
          5    1    3    3  502    0  0.85284095727E+02  0.14740396965E+02 -0.51518736363E+02  0.10080827785E+03  0.41800000000E+01 0. -1.
         -5    1    3    3    0  502 -0.19282794347E+02  0.20101529438E+02  0.35965271785E+02  0.45682281227E+02  0.41800000000E+01 0. -1.
        -11    1    1    2    0    0  0.35732106727E+01 -0.27614242357E+02 -0.11003216254E+02  0.29939689100E+02  0.00000000000E+00 0.  1.
         11    1    1    2    0    0 -0.69574512053E+02 -0.72276840464E+01  0.80707945583E+02  0.10680180066E+03  0.00000000000E+00 0. -1.
</event>
<event>
 7    1  0.2688177E-009  0.1236162E+03  0.7561462E-02  0.1237248E+00
          2   -1    0    0  501    0  0.00000000000E+00  0.00000000000E+00  0.11416009936E+04  0.11416009936E+04  0.00000000000E+00 0. -1.
         -2   -1    0    0    0  501 -0.00000000000E+00 -0.00000000000E+00 -0.17709581675E+02  0.17709581675E+02  0.00000000000E+00 0.  1.
         25    2    1    2    0    0 -0.38220589458E+02 -0.85394465027E+02  0.60432865099E+03  0.62418712672E+03  0.12507366888E+03 0.  0.
          5    1    3    3  502    0 -0.59005022057E+02 -0.77018366323E+02  0.23662814469E+03  0.25578071201E+03  0.41800000000E+01 0. -1.
         -5    1    3    3    0  502  0.20784432599E+02 -0.83760987039E+01  0.36770050630E+03  0.36840641471E+03  0.41800000000E+01 0. -1.
        -11    1    1    2    0    0 -0.26606441672E+02  0.40544572980E+02  0.16993599061E+03  0.17672013480E+03  0.00000000000E+00 0.  1.
         11    1    1    2    0    0  0.64827031130E+02  0.44849892047E+02  0.34962677028E+03  0.35840331371E+03  0.00000000000E+00 0. -1.
</event>
<event>
 7    1  0.2688177E-009  0.1295665E+03  0.7561462E-02  0.1228100E+00
          2   -1    0    0  501    0  0.00000000000E+00  0.00000000000E+00  0.12031947907E+03  0.12031947907E+03  0.00000000000E+00 0. -1.
         -2   -1    0    0    0  501 -0.00000000000E+00 -0.00000000000E+00 -0.19502505607E+03  0.19502505607E+03  0.00000000000E+00 0.  1.
         25    2    1    2    0    0  0.42860127403E+02 -0.97155803938E+02 -0.23649783888E+02  0.16577915881E+03  0.12508867438E+03 0.  0.
          5    1    3    3  502    0  0.20330317058E+02  0.21170767482E+02 -0.33640896672E+02  0.44840891119E+02  0.41800000000E+01 0. -1.
         -5    1    3    3    0  502  0.22529810345E+02 -0.11832657142E+03  0.99911127843E+01  0.12093826769E+03  0.41800000000E+01 0. -1.
        -11    1    1    2    0    0 -0.31905764418E+02  0.42093697958E+02 -0.72300524544E+02  0.89538947169E+02  0.00000000000E+00 0.  1.
         11    1    1    2    0    0 -0.10954362985E+02  0.55062105980E+02  0.21244731432E+02  0.60026429154E+02  0.00000000000E+00 0. -1.
</event>
<event>
 7    1  0.2688177E-009  0.1261581E+03  0.7561462E-02  0.1233270E+00
         -2   -1    0    0    0  501 -0.00000000000E+00  0.00000000000E+00  0.16651931883E+02  0.16651931883E+02  0.00000000000E+00 0. -1.
          2   -1    0    0  501    0  0.00000000000E+00 -0.00000000000E+00 -0.10816474287E+04  0.10816474287E+04  0.00000000000E+00 0.  1.
         25    2    1    2    0    0 -0.29594326688E+02  0.65935452150E+02 -0.70405553980E+03  0.71872472832E+03  0.12509086277E+03 0.  0.
          5    1    3    3  502    0  0.35398584537E+02  0.69207409608E+02 -0.43244149127E+03  0.43939258199E+03  0.41800000000E+01 0.  1.
         -5    1    3    3    0  502 -0.64992911225E+02 -0.32719574584E+01 -0.27161404853E+03  0.27933214633E+03  0.41800000000E+01 0.  1.
        -11    1    1    2    0    0  0.43366939899E+02 -0.15255457604E+01 -0.79938927172E+02  0.90957412252E+02  0.00000000000E+00 0. -1.
         11    1    1    2    0    0 -0.13772613211E+02 -0.64409906389E+02 -0.28100102986E+03  0.28861722003E+03  0.00000000000E+00 0.  1.
</event>
<event>
 7    1  0.2688177E-009  0.1719204E+03  0.7561462E-02  0.1175860E+00
         -1   -1    0    0    0  501 -0.00000000000E+00  0.00000000000E+00  0.26387965745E+03  0.26387965745E+03  0.00000000000E+00 0.  1.
          1   -1    0    0  501    0  0.00000000000E+00 -0.00000000000E+00 -0.14218018161E+03  0.14218018161E+03  0.00000000000E+00 0. -1.
         25    2    1    2    0    0  0.12767604687E+03 -0.95373379653E+02  0.51290037215E+02  0.20898623858E+03  0.12508927015E+03 0.  0.
          5    1    3    3  502    0  0.11298089231E+03 -0.90863333049E+02 -0.10259920489E+02  0.14540827242E+03  0.41800000000E+01 0.  1.
         -5    1    3    3    0  502  0.14695154570E+02 -0.45100466043E+01  0.61549957704E+02  0.63577966164E+02  0.41800000000E+01 0.  1.
        -11    1    1    2    0    0  0.10516273058E+01  0.44400061476E+02  0.26998963083E+02  0.51975142007E+02  0.00000000000E+00 0. -1.
         11    1    1    2    0    0 -0.12872767418E+03  0.50973318177E+02  0.43410475538E+02  0.14509845848E+03  0.00000000000E+00 0.  1.
</event>
<event>
 7    1  0.2688177E-009  0.1124145E+03  0.7561462E-02  0.1256163E+00
         -1   -1    0    0    0  501 -0.00000000000E+00  0.00000000000E+00  0.56370777829E+03  0.56370777829E+03  0.00000000000E+00 0.  1.
          1   -1    0    0  501    0  0.00000000000E+00 -0.00000000000E+00 -0.37320644394E+02  0.37320644394E+02  0.00000000000E+00 0. -1.
         25    2    1    2    0    0 -0.87426980259E+02 -0.38898699998E+02  0.30852066171E+03  0.34639490031E+03  0.12509133671E+03 0.  0.
          5    1    3    3  502    0 -0.69847376622E+02 -0.11756781952E+02  0.52394808050E+02  0.88201849490E+02  0.41800000000E+01 0.  1.
         -5    1    3    3    0  502 -0.17579603637E+02 -0.27141918046E+02  0.25612585366E+03  0.25819305082E+03  0.41800000000E+01 0.  1.
        -11    1    1    2    0    0  0.23524055397E+02  0.51060918918E+02  0.52452990577E+02  0.76888977386E+02  0.00000000000E+00 0.  1.
         11    1    1    2    0    0  0.63902924862E+02 -0.12162218920E+02  0.16541348161E+03  0.17774454499E+03  0.00000000000E+00 0. -1.
</event>
<event>
 7    1  0.2688177E-009  0.1679824E+03  0.7561462E-02  0.1179968E+00
          1   -1    0    0  501    0  0.00000000000E+00  0.00000000000E+00  0.85456003171E+03  0.85456003171E+03  0.00000000000E+00 0. -1.
         -1   -1    0    0    0  501 -0.00000000000E+00 -0.00000000000E+00 -0.54661881637E+02  0.54661881637E+02  0.00000000000E+00 0.  1.
         25    2    1    2    0    0  0.11899002922E+03 -0.78582364923E+02  0.66857304589E+03  0.69496122829E+03  0.12508947197E+03 0.  0.
          5    1    3    3  502    0  0.12464114756E+03 -0.89657337720E+02  0.66325445271E+03  0.68080672390E+03  0.41800000000E+01 0.  1.
         -5    1    3    3    0  502 -0.56511183392E+01  0.11074972797E+02  0.53185931832E+01  0.14154504385E+02  0.41800000000E+01 0.  1.
        -11    1    1    2    0    0 -0.85355965091E+00 -0.17165914917E+02  0.14837130877E+02  0.22705454227E+02  0.00000000000E+00 0.  1.
         11    1    1    2    0    0 -0.11813646957E+03  0.95748279840E+02  0.11648797330E+03  0.19155523083E+03  0.00000000000E+00 0. -1.
</event>
<event>
 7    1  0.2688177E-009  0.1119368E+03  0.7561462E-02  0.1257025E+00
         -3   -1    0    0    0  501 -0.00000000000E+00  0.00000000000E+00  0.24577800489E+03  0.24577800489E+03  0.00000000000E+00 0.  1.
          3   -1    0    0  501    0  0.00000000000E+00 -0.00000000000E+00 -0.89078655138E+02  0.89078655138E+02  0.00000000000E+00 0. -1.
         25    2    1    2    0    0 -0.62001211189E+01  0.47714562538E+02  0.18496556067E+03  0.22840236811E+03  0.12506103367E+03 0.  0.
          5    1    3    3  502    0 -0.46021010104E+02  0.72637453004E+02  0.10769957532E+03  0.13787967172E+03  0.41800000000E+01 0. -1.
         -5    1    3    3    0  502  0.39820888985E+02 -0.24922890466E+02  0.77265985349E+02  0.90522696384E+02  0.41800000000E+01 0. -1.
        -11    1    1    2    0    0 -0.35353459552E+02 -0.24604658741E+02 -0.38553269150E+02  0.57806668268E+02  0.00000000000E+00 0. -1.
         11    1    1    2    0    0  0.41553580671E+02 -0.23109903797E+02  0.10287058232E+02  0.48647623654E+02  0.00000000000E+00 0.  1.
</event>
<event>
 7    1  0.3208919E-009  0.1432009E+03  0.7561462E-02  0.1209086E+00
          1   -1    0    0  501    0  0.00000000000E+00  0.00000000000E+00  0.43962418949E+03  0.43962418949E+03  0.00000000000E+00 0. -1.
         -1   -1    0    0    0  501 -0.00000000000E+00 -0.00000000000E+00 -0.68121238492E+02  0.68121238492E+02  0.00000000000E+00 0.  1.
         25    2    1    2    0    0  0.69176743536E+02  0.96185673671E+02  0.10375278874E+03  0.20112421434E+03  0.12509677357E+03 0.  0.
          5    1    3    3  502    0  0.79770118903E+02  0.10510304689E+02  0.25429570645E+02  0.84485938697E+02  0.41800000000E+01 0.  1.
         -5    1    3    3    0  502 -0.10593375367E+02  0.85675368982E+02  0.78323218096E+02  0.11663827564E+03  0.41800000000E+01 0.  1.
        -11    1    1    2    0    0 -0.19622645280E+02 -0.16848837914E+02  0.32492833518E+01  0.26067017266E+02  0.00000000000E+00 0.  1.
         11    1    1    2    0    0 -0.49554098256E+02 -0.79336835757E+02  0.26450087891E+03  0.28055419637E+03  0.00000000000E+00 0. -1.
</event>
<event>
 7    1  0.2688177E-009  0.1102513E+03  0.7561462E-02  0.1260105E+00
          2   -1    0    0  501    0  0.00000000000E+00  0.00000000000E+00  0.65066084192E+03  0.65066084192E+03  0.00000000000E+00 0.  1.
         -2   -1    0    0    0  501 -0.00000000000E+00 -0.00000000000E+00 -0.27514432630E+02  0.27514432630E+02  0.00000000000E+00 0. -1.
         25    2    1    2    0    0 -0.42432368664E+02 -0.31288267326E+02  0.52951797179E+03  0.54664232791E+03  0.12509632540E+03 0.  0.
          5    1    3    3  502    0 -0.11460680420E+02 -0.78248644078E+02  0.29653732654E+03  0.30693005055E+03  0.41800000000E+01 0.  1.
         -5    1    3    3    0  502 -0.30971688244E+02  0.46960376752E+02  0.23298064525E+03  0.23971227736E+03  0.41800000000E+01 0.  1.
        -11    1    1    2    0    0  0.34243647214E+01  0.43800270541E+02  0.74113084742E+02  0.86156481493E+02  0.00000000000E+00 0.  1.
         11    1    1    2    0    0  0.39008003942E+02 -0.12512003216E+02  0.19515352755E+02  0.45376465146E+02  0.00000000000E+00 0. -1.
</event>
<event>
 7    1  0.2688177E-009  0.1139342E+03  0.7561462E-02  0.1253453E+00
          2   -1    0    0  501    0  0.00000000000E+00  0.00000000000E+00  0.85754222190E+03  0.85754222190E+03  0.00000000000E+00 0. -1.
         -2   -1    0    0    0  501 -0.00000000000E+00 -0.00000000000E+00 -0.24584589212E+02  0.24584589212E+02  0.00000000000E+00 0.  1.
         25    2    1    2    0    0  0.27914524986E+02 -0.74659624036E+02  0.61242621408E+03  0.63013223418E+03  0.12508990648E+03 0.  0.
          5    1    3    3  502    0 -0.18175208150E+02  0.15654511650E+02  0.31361714326E+03  0.31456094302E+03  0.41800000000E+01 0.  1.
         -5    1    3    3    0  502  0.46089733136E+02 -0.90314135686E+02  0.29880907082E+03  0.31557129116E+03  0.41800000000E+01 0.  1.
        -11    1    1    2    0    0 -0.35412466653E+01  0.77427499393E+02  0.21248268680E+03  0.22617791731E+03  0.00000000000E+00 0. -1.
         11    1    1    2    0    0 -0.24373278321E+02 -0.27678753572E+01  0.80487318170E+01  0.25816659621E+02  0.00000000000E+00 0.  1.
</event>
<event>
 6    1  0.2688177E-009  0.1427676E+03  0.7561462E-02  0.1209653E+00
         -2   -1    0    0    0  501 -0.00000000000E+00  0.00000000000E+00  0.98037221084E+02  0.98037221084E+02  0.00000000000E+00 0.  1.
          2   -1    0    0  501    0  0.00000000000E+00 -0.00000000000E+00 -0.21942584353E+03  0.21942584353E+03  0.00000000000E+00 0. -1.
          5    1    1    2  502    0 -0.62469211772E+02 -0.89223372799E+02 -0.59804898869E+02  0.12432743463E+03  0.41800000000E+01 0. -1.
         -5    1    1    2    0  502 -0.11481653155E+01  0.33841852341E+02  0.73581363671E+01  0.34902776741E+02  0.41800000000E+01 0. -1.
        -11    1    1    2    0    0  0.31858472319E+02 -0.34578156763E+02 -0.22080037397E+02  0.51943615922E+02  0.00000000000E+00 0.  1.
         11    1    1    2    0    0  0.31758904768E+02  0.89959677222E+02 -0.46861822550E+02  0.10628923732E+03  0.00000000000E+00 0. -1.
</event>
<event>
 7    1  0.2688177E-009  0.8697576E+02  0.7561462E-02  0.1310345E+00
          2   -1    0    0  501    0  0.00000000000E+00  0.00000000000E+00  0.15661681863E+04  0.15661681863E+04  0.00000000000E+00 0.  1.
         -2   -1    0    0    0  501 -0.00000000000E+00 -0.00000000000E+00 -0.14177255114E+02  0.14177255114E+02  0.00000000000E+00 0. -1.
         25    2    1    2    0    0 -0.49144342610E+02  0.40493068863E+01  0.13051489647E+04  0.13120569143E+04  0.12509181885E+03 0.  0.
          5    1    3    3  502    0  0.21309445153E+02  0.17344378044E+02  0.91064246852E+03  0.91106646177E+03  0.41800000000E+01 0.  1.
         -5    1    3    3    0  502 -0.70453787763E+02 -0.13295071158E+02  0.39450649614E+03  0.40099045253E+03  0.41800000000E+01 0.  1.
        -11    1    1    2    0    0 -0.67039805314E+01  0.14103812706E+02  0.11304190655E+01  0.15656906945E+02  0.00000000000E+00 0. -1.
         11    1    1    2    0    0  0.55848323141E+02 -0.18153119593E+02  0.24571154748E+03  0.25263162017E+03  0.00000000000E+00 0.  1.
</event>
<event>
 7    1  0.2688177E-009  0.7746229E+02  0.7561462E-02  0.1336411E+00
         -2   -1    0    0    0  501 -0.00000000000E+00  0.00000000000E+00  0.25737977570E+02  0.25737977570E+02  0.00000000000E+00 0.  1.
          2   -1    0    0  501    0  0.00000000000E+00 -0.00000000000E+00 -0.47471755880E+03  0.47471755880E+03  0.00000000000E+00 0. -1.
         25    2    1    2    0    0  0.15719814017E+02  0.11818375875E+02 -0.26327383220E+03  0.29214232646E+03  0.12508893487E+03 0.  0.
          5    1    3    3  502    0 -0.19700014233E+02 -0.24266989526E+02 -0.22842261596E+03  0.23058911775E+03  0.41800000000E+01 0.  1.
         -5    1    3    3    0  502  0.35419828250E+02  0.36085365401E+02 -0.34851216234E+02  0.61553208709E+02  0.41800000000E+01 0.  1.
        -11    1    1    2    0    0  0.14733792109E+02  0.22421800362E+02 -0.13345067424E+02  0.29965189570E+02  0.00000000000E+00 0.  1.
         11    1    1    2    0    0 -0.30453606126E+02 -0.34240176237E+02 -0.17236068161E+03  0.17834802034E+03  0.00000000000E+00 0. -1.
</event>
<event>
 7    1  0.2688177E-009  0.1517865E+03  0.7561462E-02  0.1198295E+00
          2   -1    0    0  501    0  0.00000000000E+00  0.00000000000E+00  0.32750807204E+03  0.32750807204E+03  0.00000000000E+00 0. -1.
         -2   -1    0    0    0  501 -0.00000000000E+00 -0.00000000000E+00 -0.89045928629E+02  0.89045928629E+02  0.00000000000E+00 0.  1.
         25    2    1    2    0    0 -0.24703697208E+02  0.13088081767E+03  0.12823038533E+03  0.22322958930E+03  0.12509339202E+03 0.  0.
          5    1    3    3  502    0  0.16708541978E+02  0.10529390370E+03  0.13694388690E+03  0.17360035164E+03  0.41800000000E+01 0.  1.
         -5    1    3    3    0  502 -0.41412239186E+02  0.25586913970E+02 -0.87135015691E+01  0.49629237658E+02  0.41800000000E+01 0.  1.
        -11    1    1    2    0    0  0.86406145079E+01  0.57956296268E+01 -0.70029200296E+01  0.12541548181E+02  0.00000000000E+00 0.  1.
         11    1    1    2    0    0  0.16063082700E+02 -0.13667644730E+03  0.11723467811E+03  0.18078286319E+03  0.00000000000E+00 0. -1.
</event>
<event>
 7    1  0.2688177E-009  0.2471160E+03  0.7561462E-02  0.1115141E+00
         -1   -1    0    0    0  501 -0.00000000000E+00  0.00000000000E+00  0.22720301245E+03  0.22720301245E+03  0.00000000000E+00 0.  1.
          1   -1    0    0  501    0  0.00000000000E+00 -0.00000000000E+00 -0.32651482322E+03  0.32651482322E+03  0.00000000000E+00 0. -1.
         25    2    1    2    0    0  0.87988815040E+02  0.22296384269E+03 -0.12292783367E+03  0.29700577823E+03  0.12508506422E+03 0.  0.
          5    1    3    3  502    0  0.42392496086E+02  0.18496793802E+03 -0.38429490758E+02  0.19366094077E+03  0.41800000000E+01 0.  1.
         -5    1    3    3    0  502  0.45596318953E+02  0.37995904666E+02 -0.84498342916E+02  0.10334483746E+03  0.41800000000E+01 0.  1.
        -11    1    1    2    0    0 -0.62455001275E+02 -0.90111978580E+02 -0.25890448659E+02  0.11265483212E+03  0.00000000000E+00 0. -1.
         11    1    1    2    0    0 -0.25533813765E+02 -0.13285186411E+03  0.49506471569E+02  0.14405722533E+03  0.00000000000E+00 0.  1.
</event>
<event>
 7    1  0.2688177E-009  0.1154286E+03  0.7561462E-02  0.1250835E+00
          2   -1    0    0  501    0  0.00000000000E+00  0.00000000000E+00  0.51428553339E+03  0.51428553339E+03  0.00000000000E+00 0.  1.
         -2   -1    0    0    0  501 -0.00000000000E+00 -0.00000000000E+00 -0.36278645080E+02  0.36278645080E+02  0.00000000000E+00 0. -1.
         25    2    1    2    0    0 -0.82016682889E+02  0.17973972677E+02  0.25585539025E+03  0.29691818303E+03  0.12509447122E+03 0.  0.
          5    1    3    3  502    0 -0.36872018933E+02  0.57126993817E+02  0.21200305909E+03  0.22267871175E+03  0.41800000000E+01 0.  1.
         -5    1    3    3    0  502 -0.45144663956E+02 -0.39153021141E+02  0.43852331152E+02  0.74239471278E+02  0.41800000000E+01 0.  1.
        -11    1    1    2    0    0  0.52902000283E+02 -0.40001854892E+02  0.67068781742E+02  0.94323865024E+02  0.00000000000E+00 0. -1.
         11    1    1    2    0    0  0.29114682606E+02  0.22027882215E+02  0.15508271632E+03  0.15932213042E+03  0.00000000000E+00 0.  1.
</event>
<event>
 7    1  0.2688177E-009  0.1051521E+03  0.7561462E-02  0.1269820E+00
         -2   -1    0    0    0  501 -0.00000000000E+00  0.00000000000E+00  0.10531876433E+03  0.10531876433E+03  0.00000000000E+00 0. -1.
          2   -1    0    0  501    0  0.00000000000E+00 -0.00000000000E+00 -0.16711575643E+03  0.16711575643E+03  0.00000000000E+00 0.  1.
         25    2    1    2    0    0 -0.57584695233E+02  0.28885351993E+02  0.81144837492E+01  0.14093814717E+03  0.12508939122E+03 0.  0.
          5    1    3    3  502    0 -0.68365484915E+02 -0.16644999139E+02  0.42873012969E+02  0.82501291899E+02  0.41800000000E+01 0. -1.
         -5    1    3    3    0  502  0.10780789682E+02  0.45530351133E+02 -0.34758529220E+02  0.58436855271E+02  0.41800000000E+01 0. -1.
        -11    1    1    2    0    0 -0.18648782893E+01 -0.33184675049E+02 -0.63339453864E+02  0.71530321158E+02  0.00000000000E+00 0.  1.
         11    1    1    2    0    0  0.59449573523E+02  0.42993230561E+01 -0.65720219880E+01  0.59966052428E+02  0.00000000000E+00 0. -1.
</event>
<event>
 7    1  0.2688177E-009  0.2157511E+03  0.7561462E-02  0.1137091E+00
          2   -1    0    0  501    0  0.00000000000E+00  0.00000000000E+00  0.29955337242E+02  0.29955337242E+02  0.00000000000E+00 0. -1.
         -2   -1    0    0    0  501 -0.00000000000E+00 -0.00000000000E+00 -0.16047860608E+04  0.16047860608E+04  0.00000000000E+00 0.  1.
         25    2    1    2    0    0  0.15666437630E+03  0.10113319879E+03 -0.67666033721E+03  0.71294347990E+03  0.12509013901E+03 0.  0.
          5    1    3    3  502    0  0.10185126348E+03 -0.79482561154E+01 -0.32113548859E+03  0.33701977550E+03  0.41800000000E+01 0. -1.
         -5    1    3    3    0  502  0.54813112824E+02  0.10908145490E+03 -0.35552484862E+03  0.37592370440E+03  0.41800000000E+01 0. -1.
        -11    1    1    2    0    0 -0.45159614415E+02 -0.82504643100E+02 -0.43107423264E+03  0.44121582128E+03  0.00000000000E+00 0.  1.
         11    1    1    2    0    0 -0.11150476188E+03 -0.18628555688E+02 -0.46709615367E+03  0.48058209681E+03  0.00000000000E+00 0. -1.
</event>
<event>
 7    1  0.2688177E-009  0.2350989E+03  0.7561462E-02  0.1123102E+00
          1   -1    0    0  501    0  0.00000000000E+00  0.00000000000E+00  0.37345514301E+03  0.37345514301E+03  0.00000000000E+00 0. -1.
         -1   -1    0    0    0  501 -0.00000000000E+00 -0.00000000000E+00 -0.37401397875E+03  0.37401397875E+03  0.00000000000E+00 0.  1.
         25    2    1    2    0    0  0.14362464110E+03  0.17248533366E+03 -0.27837291101E+03  0.37884769694E+03  0.12511943108E+03 0.  0.
          5    1    3    3  502    0  0.52123913384E+02  0.14859213131E+02 -0.11362825403E+02  0.55536337316E+02  0.41800000000E+01 0. -1.
         -5    1    3    3    0  502  0.91500727718E+02  0.15762612053E+03 -0.26701008561E+03  0.32331135963E+03  0.41800000000E+01 0. -1.
        -11    1    1    2    0    0 -0.33217617612E+02 -0.89341923563E+02  0.66882718822E+02  0.11644177731E+03  0.00000000000E+00 0.  1.
         11    1    1    2    0    0 -0.11040702349E+03 -0.83143410100E+02  0.21093135645E+03  0.25217964750E+03  0.00000000000E+00 0. -1.
</event>
<event>
 7    1  0.2688177E-009  0.1011194E+03  0.7561462E-02  0.1277960E+00
          2   -1    0    0  501    0  0.00000000000E+00  0.00000000000E+00  0.10423890862E+04  0.10423890862E+04  0.00000000000E+00 0. -1.
         -2   -1    0    0    0  501 -0.00000000000E+00 -0.00000000000E+00 -0.12703124060E+02  0.12703124060E+02  0.00000000000E+00 0.  1.
         25    2    1    2    0    0  0.11422866359E+02 -0.14817850400E+02  0.74964603185E+03  0.76024153445E+03  0.12509183453E+03 0.  0.
          5    1    3    3  502    0 -0.19347325815E+02  0.42139245130E+02  0.14904315658E+03  0.15614534869E+03  0.41800000000E+01 0. -1.
         -5    1    3    3    0  502  0.30770192174E+02 -0.56957095529E+02  0.60060287527E+03  0.60409618576E+03  0.41800000000E+01 0. -1.
        -11    1    1    2    0    0 -0.47090115360E+02  0.25534603341E+02  0.19014560029E+03  0.19754706842E+03  0.00000000000E+00 0.  1.
         11    1    1    2    0    0  0.35667249002E+02 -0.10716752942E+02  0.89894330009E+02  0.97303607398E+02  0.00000000000E+00 0. -1.
</event>
<event>
 7    1  0.2688177E-009  0.1108770E+03  0.7561462E-02  0.1258954E+00
         -1   -1    0    0    0  501 -0.00000000000E+00  0.00000000000E+00  0.36087201310E+02  0.36087201310E+02  0.00000000000E+00 0.  1.
          1   -1    0    0  501    0  0.00000000000E+00 -0.00000000000E+00 -0.39240110204E+03  0.39240110204E+03  0.00000000000E+00 0. -1.
         25    2    1    2    0    0  0.32603476468E+02 -0.40945102119E+02 -0.19733977733E+03  0.23943591826E+03  0.12508830150E+03 0.  0.
          5    1    3    3  502    0  0.72180409311E+02 -0.23924159078E+02 -0.17472318440E+03  0.19059916171E+03  0.41800000000E+01 0.  1.
         -5    1    3    3    0  502 -0.39576932843E+02 -0.17020943041E+02 -0.22616592927E+02  0.48836756556E+02  0.41800000000E+01 0.  1.
        -11    1    1    2    0    0 -0.63164581855E+02  0.28939661628E+02 -0.10776280497E+03  0.12821891651E+03  0.00000000000E+00 0.  1.
         11    1    1    2    0    0  0.30561105387E+02  0.12005440491E+02 -0.51211318430E+02  0.60833468578E+02  0.00000000000E+00 0. -1.
</event>
<event>
 7    1  0.2688177E-009  0.1664028E+03  0.7561462E-02  0.1181652E+00
          1   -1    0    0  501    0  0.00000000000E+00  0.00000000000E+00  0.10223460898E+04  0.10223460898E+04  0.00000000000E+00 0. -1.
         -1   -1    0    0    0  501 -0.00000000000E+00 -0.00000000000E+00 -0.32861661083E+02  0.32861661083E+02  0.00000000000E+00 0.  1.
         25    2    1    2    0    0  0.14520033534E+03  0.21023747397E+02  0.57295165394E+03  0.60452163396E+03  0.12509065843E+03 0.  0.
          5    1    3    3  502    0  0.11956095896E+03  0.47456201040E+02  0.26773338377E+03  0.29706152748E+03  0.41800000000E+01 0.  1.
         -5    1    3    3    0  502  0.25639376386E+02 -0.26432453643E+02  0.30521827017E+03  0.30746010647E+03  0.41800000000E+01 0.  1.
        -11    1    1    2    0    0 -0.14469218203E+03  0.13140700981E+01  0.31384322148E+03  0.34559386856E+03  0.00000000000E+00 0.  1.
         11    1    1    2    0    0 -0.50815330885E+00 -0.22337817495E+02  0.10268955334E+03  0.10509224841E+03  0.00000000000E+00 0. -1.
</event>
<event>
 7    1  0.2688177E-009  0.9650646E+02  0.7561462E-02  0.1287819E+00
         -2   -1    0    0    0  501 -0.00000000000E+00  0.00000000000E+00  0.22801354783E+02  0.22801354783E+02  0.00000000000E+00 0.  1.
          2   -1    0    0  501    0  0.00000000000E+00 -0.00000000000E+00 -0.43891429248E+03  0.43891429248E+03  0.00000000000E+00 0. -1.
         25    2    1    2    0    0  0.19994814695E+02  0.17152237502E+02 -0.22071850894E+03  0.25506680946E+03  0.12509366585E+03 0.  0.
          5    1    3    3  502    0  0.57246099913E+02  0.50332492651E+02 -0.15144577025E+03  0.16959884875E+03  0.41800000000E+01 0.  1.
         -5    1    3    3    0  502 -0.37251285218E+02 -0.33180255149E+02 -0.69272738689E+02  0.85467960709E+02  0.41800000000E+01 0.  1.
        -11    1    1    2    0    0 -0.22499945987E+02 -0.38782391878E+02 -0.14437804968E+03  0.15117983569E+03  0.00000000000E+00 0. -1.
         11    1    1    2    0    0  0.25051312920E+01  0.21630154376E+02 -0.51016379075E+02  0.55469002110E+02  0.00000000000E+00 0.  1.
</event>
<event>
 7    1  0.2688177E-009  0.9085670E+02  0.7561462E-02  0.1300790E+00
         -1   -1    0    0    0  501 -0.00000000000E+00  0.00000000000E+00  0.59874926593E+02  0.59874926593E+02  0.00000000000E+00 0.  1.
          1   -1    0    0  501    0  0.00000000000E+00 -0.00000000000E+00 -0.22219215791E+03  0.22219215791E+03  0.00000000000E+00 0. -1.
         25    2    1    2    0    0  0.15292180519E+02 -0.28620117029E+02 -0.13358817580E+03  0.18586436867E+03  0.12508717337E+03 0.  0.
          5    1    3    3  502    0 -0.42092257858E+02  0.83039073549E+00 -0.10862913418E+03  0.11657705140E+03  0.41800000000E+01 0. -1.
         -5    1    3    3    0  502  0.57384438378E+02 -0.29450507764E+02 -0.24959041623E+02  0.69287317268E+02  0.41800000000E+01 0. -1.
        -11    1    1    2    0    0  0.25731895949E+02  0.20617485262E+02  0.14545598399E+02  0.36038668128E+02  0.00000000000E+00 0.  1.
         11    1    1    2    0    0 -0.41024076468E+02  0.80026317665E+01 -0.43274653916E+02  0.60164047710E+02  0.00000000000E+00 0. -1.
</event>
<event>
 7    1  0.2688177E-009  0.9603126E+02  0.7561462E-02  0.1288870E+00
         -1   -1    0    0    0  501 -0.00000000000E+00  0.00000000000E+00  0.63330905639E+02  0.63330905639E+02  0.00000000000E+00 0.  1.
          1   -1    0    0  501    0  0.00000000000E+00 -0.00000000000E+00 -0.23904338948E+03  0.23904338948E+03  0.00000000000E+00 0. -1.
         25    2    1    2    0    0  0.24652070992E+02  0.51322995363E+02 -0.11415905616E+03  0.17866732602E+03  0.12509176162E+03 0.  0.
          5    1    3    3  502    0  0.45655843618E+02  0.38607068032E+02  0.18988780182E+01  0.59966990054E+02  0.41800000000E+01 0.  1.
         -5    1    3    3    0  502 -0.21003772626E+02  0.12715927331E+02 -0.11605793418E+03  0.11870033596E+03  0.41800000000E+01 0.  1.
        -11    1    1    2    0    0 -0.46959995898E+02  0.44304639108E+01 -0.24615785812E+02  0.53205329962E+02  0.00000000000E+00 0.  1.
         11    1    1    2    0    0  0.22307924906E+02 -0.55753459274E+02 -0.36937641875E+02  0.70501639143E+02  0.00000000000E+00 0. -1.
</event>
<event>
 7    1  0.2688177E-009  0.1273486E+03  0.7561462E-02  0.1231444E+00
         -2   -1    0    0    0  501 -0.00000000000E+00  0.00000000000E+00  0.93398622957E+02  0.93398622957E+02  0.00000000000E+00 0.  1.
          2   -1    0    0  501    0  0.00000000000E+00 -0.00000000000E+00 -0.26528037503E+03  0.26528037503E+03  0.00000000000E+00 0. -1.
         25    2    1    2    0    0 -0.95670041542E+02 -0.79043387407E+01 -0.16204125172E+03  0.22609713522E+03  0.12508921567E+03 0.  0.
          5    1    3    3  502    0  0.26893557885E+02  0.12817300531E+02 -0.51784590336E+02  0.59888753910E+02  0.41800000000E+01 0. -1.
         -5    1    3    3    0  502 -0.12256359943E+03 -0.20721639272E+02 -0.11025666138E+03  0.16620838131E+03  0.41800000000E+01 0. -1.
        -11    1    1    2    0    0  0.17718744115E+02  0.13221699100E+02  0.35814428215E+02  0.42088484036E+02  0.00000000000E+00 0.  1.
         11    1    1    2    0    0  0.77951297427E+02 -0.53173603591E+01 -0.45654928570E+02  0.90493378733E+02  0.00000000000E+00 0. -1.
</event>
<event>
 6    1  0.2688177E-009  0.5286966E+03  0.7561462E-02  0.1006549E+00
          2   -1    0    0  501    0  0.00000000000E+00  0.00000000000E+00  0.11426136296E+04  0.11426136296E+04  0.00000000000E+00 0. -1.
         -2   -1    0    0    0  501 -0.00000000000E+00 -0.00000000000E+00 -0.25903358574E+03  0.25903358574E+03  0.00000000000E+00 0.  1.
          5    1    1    2  502    0  0.50117628150E+02 -0.30042693488E+02  0.69367340276E+02  0.90794495320E+02  0.41800000000E+01 0. -1.
         -5    1    1    2    0  502  0.22374076133E+03 -0.41439667663E+03  0.23624003007E+03  0.52688837346E+03  0.41800000000E+01 0. -1.
        -11    1    1    2    0    0 -0.27551877935E+03  0.41358517431E+03  0.52699031740E+03  0.72434942453E+03  0.00000000000E+00 0.  1.
         11    1    1    2    0    0  0.16603898720E+01  0.30854195799E+02  0.50982356092E+02  0.59614922005E+02  0.00000000000E+00 0. -1.
</event>
<event>
 7    1  0.2688177E-009  0.1055948E+03  0.7561462E-02  0.1268952E+00
         -1   -1    0    0    0  501 -0.00000000000E+00  0.00000000000E+00  0.22267127430E+03  0.22267127430E+03  0.00000000000E+00 0.  1.
          1   -1    0    0  501    0  0.00000000000E+00 -0.00000000000E+00 -0.94608157413E+02  0.94608157413E+02  0.00000000000E+00 0. -1.
         25    2    1    2    0    0  0.49871039304E+02  0.36860104203E+02 -0.12045577285E+02  0.14013347863E+03  0.12508600264E+03 0.  0.
          5    1    3    3  502    0  0.82570890946E+02  0.47550511568E+02  0.14510182426E+02  0.96472902807E+02  0.41800000000E+01 0. -1.
         -5    1    3    3    0  502 -0.32699851642E+02 -0.10690407365E+02 -0.26555759711E+02  0.43660575819E+02  0.41800000000E+01 0. -1.
        -11    1    1    2    0    0 -0.48892135993E+02 -0.48488875534E+01  0.20351222134E+02  0.53180117664E+02  0.00000000000E+00 0. -1.
         11    1    1    2    0    0 -0.97890331134E+00 -0.32011216650E+02  0.11975747204E+03  0.12396583542E+03  0.00000000000E+00 0.  1.
</event>
<event>
 7    1  0.2688177E-009  0.1763872E+03  0.7561462E-02  0.1171346E+00
          2   -1    0    0  501    0  0.00000000000E+00  0.00000000000E+00  0.80980265060E+03  0.80980265060E+03  0.00000000000E+00 0. -1.
         -2   -1    0    0    0  501 -0.00000000000E+00 -0.00000000000E+00 -0.51398587052E+02  0.51398587052E+02  0.00000000000E+00 0.  1.
         25    2    1    2    0    0 -0.37625169382E+02 -0.16086746563E+03  0.28328637349E+03  0.35098897061E+03  0.12509233877E+03 0.  0.
          5    1    3    3  502    0 -0.20819641234E+02 -0.44310598996E+02  0.20186464349E+03  0.20775873829E+03  0.41800000000E+01 0.  1.
         -5    1    3    3    0  502 -0.16805528147E+02 -0.11655686663E+03  0.81421729997E+02  0.14323023232E+03  0.41800000000E+01 0.  1.
        -11    1    1    2    0    0  0.12837686486E+02  0.16049908184E+03  0.41851165463E+03  0.44841584107E+03  0.00000000000E+00 0. -1.
         11    1    1    2    0    0  0.24787482896E+02  0.36838378368E+00  0.56606035436E+02  0.61796425970E+02  0.00000000000E+00 0.  1.
</event>
<event>
 7    1  0.2688177E-009  0.1332446E+03  0.7561462E-02  0.1222719E+00
          1   -1    0    0  501    0  0.00000000000E+00  0.00000000000E+00  0.80821439111E+02  0.80821439111E+02  0.00000000000E+00 0. -1.
         -1   -1    0    0    0  501 -0.00000000000E+00 -0.00000000000E+00 -0.25914639066E+03  0.25914639066E+03  0.00000000000E+00 0.  1.
         25    2    1    2    0    0  0.37179888815E+02 -0.87101696323E+02 -0.85851741225E+02  0.17885035043E+03  0.12509147350E+03 0.  0.
          5    1    3    3  502    0 -0.33442908777E+02  0.11389724531E+02 -0.21481791998E+02  0.41558317576E+02  0.41800000000E+01 0.  1.
         -5    1    3    3    0  502  0.70622797591E+02 -0.98491420853E+02 -0.64369949227E+02  0.13729203285E+03  0.41800000000E+01 0.  1.
        -11    1    1    2    0    0 -0.40370206529E+02  0.25044479250E+02 -0.86505563540E+02  0.98692411256E+02  0.00000000000E+00 0.  1.
         11    1    1    2    0    0  0.31903177142E+01  0.62057217073E+02 -0.59676467879E+01  0.62425068091E+02  0.00000000000E+00 0. -1.
</event>
<event>
 7    1  0.2688177E-009  0.1055126E+03  0.7561462E-02  0.1269113E+00
         -2   -1    0    0    0  501 -0.00000000000E+00  0.00000000000E+00  0.16830073541E+03  0.16830073541E+03  0.00000000000E+00 0.  1.
          2   -1    0    0  501    0  0.00000000000E+00 -0.00000000000E+00 -0.79493393380E+02  0.79493393380E+02  0.00000000000E+00 0. -1.
         25    2    1    2    0    0 -0.41205131608E+02  0.16100102586E+00  0.55960234687E+02  0.14309646299E+03  0.12508861283E+03 0.  0.
          5    1    3    3  502    0 -0.54105080686E+02  0.46471834910E+02  0.30854440478E+01  0.71512121776E+02  0.41800000000E+01 0.  1.
         -5    1    3    3    0  502  0.12899949078E+02 -0.46310833884E+02  0.52874790640E+02  0.71584341210E+02  0.41800000000E+01 0.  1.
        -11    1    1    2    0    0  0.65427928213E+02 -0.78816251540E+01  0.41456393111E+02  0.77856061646E+02  0.00000000000E+00 0.  1.
         11    1    1    2    0    0 -0.24222796605E+02  0.77206241282E+01 -0.86092857688E+01  0.26841604157E+02  0.00000000000E+00 0. -1.
</event>
<event>
 7    1  0.2688177E-009  0.1090653E+03  0.7561462E-02  0.1262311E+00
         -1   -1    0    0    0  501 -0.00000000000E+00  0.00000000000E+00  0.28862659221E+02  0.28862659221E+02  0.00000000000E+00 0.  1.
          1   -1    0    0  501    0  0.00000000000E+00 -0.00000000000E+00 -0.58990687006E+03  0.58990687006E+03  0.00000000000E+00 0. -1.
         25    2    1    2    0    0  0.42403960859E+02  0.55740096744E+02 -0.27723202755E+03  0.31211749656E+03  0.12511866480E+03 0.  0.
          5    1    3    3  502    0  0.44308963461E+02 -0.83343107571E+01 -0.24771765938E+02  0.51612573724E+02  0.41800000000E+01 0.  1.
         -5    1    3    3    0  502 -0.19050026021E+01  0.64074407502E+02 -0.25246026161E+03  0.26050492284E+03  0.41800000000E+01 0.  1.
        -11    1    1    2    0    0 -0.36957666614E+02  0.13359732996E+02 -0.16002647035E+03  0.16478113606E+03  0.00000000000E+00 0.  1.
         11    1    1    2    0    0 -0.54462942447E+01 -0.69099829741E+02 -0.12378571294E+03  0.14187089666E+03  0.00000000000E+00 0. -1.
</event>
<event>
 7    1  0.2688177E-009  0.2581804E+03  0.7561462E-02  0.1108241E+00
         -2   -1    0    0    0  501 -0.00000000000E+00  0.00000000000E+00  0.10897489857E+03  0.10897489857E+03  0.00000000000E+00 0. -1.
          2   -1    0    0  501    0  0.00000000000E+00 -0.00000000000E+00 -0.71531944766E+03  0.71531944766E+03  0.00000000000E+00 0.  1.
         25    2    1    2    0    0  0.16791847302E+03 -0.19267726683E+03 -0.27273331919E+03  0.39414730055E+03  0.12508992127E+03 0.  0.
          5    1    3    3  502    0  0.57548576192E+02 -0.10474729295E+03 -0.48235726067E+02  0.12894957027E+03  0.41800000000E+01 0. -1.
         -5    1    3    3    0  502  0.11036989683E+03 -0.87929973880E+02 -0.22449759312E+03  0.26519773029E+03  0.41800000000E+01 0. -1.
        -11    1    1    2    0    0 -0.66237241160E+02  0.78182056428E+02 -0.20883282016E+03  0.23261761077E+03  0.00000000000E+00 0.  1.
         11    1    1    2    0    0 -0.10168123186E+03  0.11449521040E+03 -0.12477840975E+03  0.19752943491E+03  0.00000000000E+00 0. -1.
</event>
<event>
 7    1  0.2688177E-009  0.1255375E+03  0.7561462E-02  0.1234232E+00
         -2   -1    0    0    0  501 -0.00000000000E+00  0.00000000000E+00  0.24308031174E+02  0.24308031174E+02  0.00000000000E+00 0.  1.
          2   -1    0    0  501    0  0.00000000000E+00 -0.00000000000E+00 -0.73473530065E+03  0.73473530065E+03  0.00000000000E+00 0. -1.
         25    2    1    2    0    0  0.61965216567E+02 -0.19986118970E+02 -0.26566790010E+03  0.30077569837E+03  0.12508978603E+03 0.  0.
          5    1    3    3  502    0  0.10036609741E+03 -0.19543838991E+02 -0.19649550237E+03  0.22154744413E+03  0.41800000000E+01 0. -1.
         -5    1    3    3    0  502 -0.38400880840E+02 -0.44227997895E+00 -0.69172397736E+02  0.79228254237E+02  0.41800000000E+01 0. -1.
        -11    1    1    2    0    0 -0.85103428037E+02  0.16897220234E+02 -0.36434783726E+03  0.37453632138E+03  0.00000000000E+00 0. -1.
         11    1    1    2    0    0  0.23138211470E+02  0.30888987357E+01 -0.80411532115E+02  0.83731312080E+02  0.00000000000E+00 0.  1.
</event>
<event>
 7    1  0.2688177E-009  0.1374626E+03  0.7561462E-02  0.1216785E+00
         -2   -1    0    0    0  501 -0.00000000000E+00  0.00000000000E+00  0.36325842105E+03  0.36325842105E+03  0.00000000000E+00 0.  1.
          2   -1    0    0  501    0  0.00000000000E+00 -0.00000000000E+00 -0.75333948900E+02  0.75333948900E+02  0.00000000000E+00 0. -1.
         25    2    1    2    0    0  0.35891190958E+02  0.11339073845E+03  0.12104119404E+03  0.21081525053E+03  0.12508581872E+03 0.  0.
          5    1    3    3  502    0  0.38056360920E+02  0.33633482871E+02  0.12059243196E+03  0.13091793164E+03  0.41800000000E+01 0. -1.
         -5    1    3    3    0  502 -0.21651699623E+01  0.79757255579E+02  0.44876207043E+00  0.79897318890E+02  0.41800000000E+01 0. -1.
        -11    1    1    2    0    0 -0.46025398874E+02 -0.12223811119E+03  0.11451065056E+03  0.17370429546E+03  0.00000000000E+00 0. -1.
         11    1    1    2    0    0  0.10134207916E+02  0.88473727443E+01  0.52372627555E+02  0.54072823965E+02  0.00000000000E+00 0.  1.
</event>
<event>
 7    1  0.2688177E-009  0.9766519E+02  0.7561462E-02  0.1285284E+00
         -4   -1    0    0    0  501 -0.00000000000E+00  0.00000000000E+00  0.21275724965E+03  0.21275724965E+03  0.00000000000E+00 0.  1.
          4   -1    0    0  501    0  0.00000000000E+00 -0.00000000000E+00 -0.97385443931E+02  0.97385443931E+02  0.00000000000E+00 0. -1.
         25    2    1    2    0    0 -0.22959750239E+02  0.56314163131E+02  0.14157082549E+03  0.19846999409E+03  0.12509838059E+03 0.  0.
          5    1    3    3  502    0  0.32500605005E+02  0.13003400492E+02 -0.52124462041E+01  0.35637336397E+02  0.41800000000E+01 0.  1.
         -5    1    3    3    0  502 -0.55460355244E+02  0.43310762639E+02  0.14678327169E+03  0.16283265770E+03  0.41800000000E+01 0.  1.
        -11    1    1    2    0    0 -0.15079459497E+02  0.62824337322E+01  0.19422355378E+02  0.25378868390E+02  0.00000000000E+00 0.  1.
         11    1    1    2    0    0  0.38039209735E+02 -0.62596596863E+02 -0.45621375143E+02  0.86293831101E+02  0.00000000000E+00 0. -1.
</event>
<event>
 7    1  0.2688177E-009  0.9484186E+02  0.7561462E-02  0.1291533E+00
         -2   -1    0    0    0  501 -0.00000000000E+00  0.00000000000E+00  0.21736565436E+02  0.21736565436E+02  0.00000000000E+00 0.  1.
          2   -1    0    0  501    0  0.00000000000E+00 -0.00000000000E+00 -0.61788601772E+03  0.61788601772E+03  0.00000000000E+00 0. -1.
         25    2    1    2    0    0 -0.27021821246E+02  0.45208857102E+00 -0.47073933713E+03  0.48782520808E+03  0.12509007519E+03 0.  0.
          5    1    3    3  502    0 -0.65041235395E+02  0.11974804737E+02 -0.40870224939E+03  0.41403956249E+03  0.41800000000E+01 0. -1.
         -5    1    3    3    0  502  0.38019414149E+02 -0.11522716166E+02 -0.62037087741E+02  0.73785645592E+02  0.41800000000E+01 0. -1.
        -11    1    1    2    0    0  0.54078710640E+02 -0.95700381580E+01 -0.65838013446E+02  0.85736436766E+02  0.00000000000E+00 0. -1.
         11    1    1    2    0    0 -0.27056889393E+02  0.91179495870E+01 -0.59572101709E+02  0.66060938309E+02  0.00000000000E+00 0.  1.
</event>
<event>
 7    1  0.2688177E-009  0.8685798E+02  0.7561462E-02  0.1310644E+00
          1   -1    0    0  501    0  0.00000000000E+00  0.00000000000E+00  0.45991339392E+02  0.45991339392E+02  0.00000000000E+00 0. -1.
         -1   -1    0    0    0  501 -0.00000000000E+00 -0.00000000000E+00 -0.39363720306E+03  0.39363720306E+03  0.00000000000E+00 0.  1.
         25    2    1    2    0    0  0.80575333893E+02 -0.62115316432E+01 -0.14638293177E+03  0.20882164935E+03  0.12509017134E+03 0.  0.
          5    1    3    3  502    0  0.84983495082E+02 -0.10060445859E+02 -0.16661264194E+03  0.18735167964E+03  0.41800000000E+01 0. -1.
         -5    1    3    3    0  502 -0.44081611891E+01  0.38489142157E+01  0.20229710172E+02  0.21469969710E+02  0.41800000000E+01 0. -1.
        -11    1    1    2    0    0 -0.37909078994E+02  0.40445032540E+01 -0.17825041874E+03  0.18228183689E+03  0.00000000000E+00 0.  1.
         11    1    1    2    0    0 -0.42666254899E+02  0.21670283892E+01 -0.23012513150E+02  0.48525056215E+02  0.00000000000E+00 0. -1.
</event>
<event>
 7    1  0.2688177E-009  0.7560191E+02  0.7561462E-02  0.1342017E+00
          4   -1    0    0  501    0  0.00000000000E+00  0.00000000000E+00  0.31782990923E+03  0.31782990923E+03  0.00000000000E+00 0. -1.
         -4   -1    0    0    0  501 -0.00000000000E+00 -0.00000000000E+00 -0.55140506311E+02  0.55140506311E+02  0.00000000000E+00 0.  1.
         25    2    1    2    0    0 -0.47221622369E+02 -0.98729753093E+01  0.62201727262E+02  0.14779722410E+03  0.12509039658E+03 0.  0.
          5    1    3    3  502    0 -0.52393067094E+02 -0.13843839144E+01 -0.26197391231E+02  0.58742877914E+02  0.41800000000E+01 0.  1.
         -5    1    3    3    0  502  0.51714447250E+01 -0.84885913949E+01  0.88399118493E+02  0.89054346187E+02  0.41800000000E+01 0.  1.
        -11    1    1    2    0    0  0.46196804538E+02  0.37926439996E+02  0.18199154601E+03  0.19155542910E+03  0.00000000000E+00 0. -1.
         11    1    1    2    0    0  0.10248178301E+01 -0.28053464687E+02  0.18496129646E+02  0.33617762335E+02  0.00000000000E+00 0.  1.
</event>
<event>
 7    1  0.2967534E-009  0.1979047E+03  0.7561462E-02  0.1151519E+00
         -1   -1    0    0    0  501 -0.00000000000E+00  0.00000000000E+00  0.12488537899E+03  0.12488537899E+03  0.00000000000E+00 0.  1.
          1   -1    0    0  501    0  0.00000000000E+00 -0.00000000000E+00 -0.35080410668E+03  0.35080410668E+03  0.00000000000E+00 0. -1.
         25    2    1    2    0    0  0.16523544456E+03  0.22562721855E+02 -0.44824258887E+02  0.21323184304E+03  0.12508707426E+03 0.  0.
          5    1    3    3  502    0  0.75331042155E+02 -0.50310876100E+02 -0.51878874073E+01  0.90831364307E+02  0.41800000000E+01 0.  1.
         -5    1    3    3    0  502  0.89904402402E+02  0.72873597955E+02 -0.39636371480E+02  0.12240047873E+03  0.41800000000E+01 0.  1.
        -11    1    1    2    0    0 -0.19017746085E+02 -0.37797268555E+02 -0.49860780852E+02  0.65394232495E+02  0.00000000000E+00 0. -1.
         11    1    1    2    0    0 -0.14621769847E+03  0.15234546700E+02 -0.13123368795E+03  0.19706341013E+03  0.00000000000E+00 0.  1.
</event>
<event>
 7    1  0.2688177E-009  0.8962921E+02  0.7561462E-02  0.1303752E+00
         -1   -1    0    0    0  501 -0.00000000000E+00  0.00000000000E+00  0.73554836826E+02  0.73554836826E+02  0.00000000000E+00 0.  1.
          1   -1    0    0  501    0  0.00000000000E+00 -0.00000000000E+00 -0.16863531270E+03  0.16863531270E+03  0.00000000000E+00 0. -1.
         25    2    1    2    0    0  0.14128839404E+02  0.26783282094E+01 -0.78490843431E+02  0.14837493019E+03  0.12509000704E+03 0.  0.
          5    1    3    3  502    0  0.68356824911E+02  0.14725203587E+02 -0.40028889882E+02  0.80680056754E+02  0.41800000000E+01 0. -1.
         -5    1    3    3    0  502 -0.54227985508E+02 -0.12046875378E+02 -0.38461953549E+02  0.67694873435E+02  0.41800000000E+01 0. -1.
        -11    1    1    2    0    0 -0.53036171598E+01  0.24426847782E+02  0.30091337366E+02  0.39118893542E+02  0.00000000000E+00 0.  1.
         11    1    1    2    0    0 -0.88252222438E+01 -0.27105175991E+02 -0.46680969814E+02  0.54696325799E+02  0.00000000000E+00 0. -1.
</event>
<event>
 7    1  0.2688177E-009  0.1285618E+03  0.7561462E-02  0.1229606E+00
          2   -1    0    0  501    0  0.00000000000E+00  0.00000000000E+00  0.16596278332E+03  0.16596278332E+03  0.00000000000E+00 0.  1.
         -2   -1    0    0    0  501 -0.00000000000E+00 -0.00000000000E+00 -0.16649874397E+03  0.16649874397E+03  0.00000000000E+00 0. -1.
         25    2    1    2    0    0 -0.69883105226E+02  0.95410086624E+02 -0.41113271892E+02  0.17698712660E+03  0.12508960321E+03 0.  0.
          5    1    3    3  502    0 -0.38971047559E+02  0.45964971084E+02 -0.84721853906E+02  0.10405184306E+03  0.41800000000E+01 0. -1.
         -5    1    3    3    0  502 -0.30912057667E+02  0.49445115540E+02  0.43608582013E+02  0.72935283540E+02  0.41800000000E+01 0. -1.
        -11    1    1    2    0    0  0.50577981172E+00 -0.60657206961E+02 -0.11879680607E+02  0.61811644379E+02  0.00000000000E+00 0. -1.
         11    1    1    2    0    0  0.69377325414E+02 -0.34752879662E+02  0.52456991847E+02  0.93662756313E+02  0.00000000000E+00 0.  1.
</event>
<event>
 7    1  0.2688177E-009  0.8676797E+02  0.7561462E-02  0.1310873E+00
          1   -1    0    0  501    0  0.00000000000E+00  0.00000000000E+00  0.49692350132E+03  0.49692350132E+03  0.00000000000E+00 0. -1.
         -1   -1    0    0    0  501 -0.00000000000E+00 -0.00000000000E+00 -0.29305654443E+02  0.29305654443E+02  0.00000000000E+00 0.  1.
         25    2    1    2    0    0  0.34317573527E+01  0.39739941945E+02  0.34186461688E+03  0.36621023488E+03  0.12508988732E+03 0.  0.
          5    1    3    3  502    0 -0.18382527645E+02 -0.26983363544E+02  0.24200479037E+02  0.40855291168E+02  0.41800000000E+01 0.  1.
         -5    1    3    3    0  502  0.21814284998E+02  0.66723305489E+02  0.31766413784E+03  0.32535494371E+03  0.41800000000E+01 0.  1.
        -11    1    1    2    0    0  0.21804494032E+02 -0.39431124353E+02  0.16652406784E+02  0.48036987618E+02  0.00000000000E+00 0.  1.
         11    1    1    2    0    0 -0.25236251385E+02 -0.30881759250E+00  0.10910082322E+03  0.11198193327E+03  0.00000000000E+00 0. -1.
</event>
<event>
 7    1  0.2688177E-009  0.1096774E+03  0.7561462E-02  0.1261168E+00
         -2   -1    0    0    0  501 -0.00000000000E+00  0.00000000000E+00  0.58622547560E+02  0.58622547560E+02  0.00000000000E+00 0.  1.
          2   -1    0    0  501    0  0.00000000000E+00 -0.00000000000E+00 -0.23724141095E+03  0.23724141095E+03  0.00000000000E+00 0. -1.
         25    2    1    2    0    0  0.23971909059E+02  0.18502015403E+02 -0.60790684702E+02  0.14234172658E+03  0.12509469526E+03 0.  0.
          5    1    3    3  502    0  0.64294075248E+02  0.42089797947E+02 -0.56038798557E+02  0.95200307494E+02  0.41800000000E+01 0. -1.
         -5    1    3    3    0  502 -0.40322166189E+02 -0.23587782544E+02 -0.47518861445E+01  0.47141419086E+02  0.41800000000E+01 0. -1.
        -11    1    1    2    0    0 -0.32533746904E+02  0.31190259014E+02 -0.74339871185E+02  0.86934995213E+02  0.00000000000E+00 0. -1.
         11    1    1    2    0    0  0.85618378446E+01 -0.49692274418E+02 -0.43488307504E+02  0.66587236717E+02  0.00000000000E+00 0.  1.
</event>
<event>
 7    1  0.2688177E-009  0.7424447E+02  0.7561462E-02  0.1346227E+00
         -2   -1    0    0    0  501 -0.00000000000E+00  0.00000000000E+00  0.15556668006E+03  0.15556668006E+03  0.00000000000E+00 0. -1.
          2   -1    0    0  501    0  0.00000000000E+00 -0.00000000000E+00 -0.94419602516E+02  0.94419602516E+02  0.00000000000E+00 0.  1.
         25    2    1    2    0    0  0.11412594515E+02 -0.27168405398E+02 -0.83150317000E+01  0.12877532522E+03  0.12508227320E+03 0.  0.
          5    1    3    3  502    0 -0.14520672552E+02 -0.11769986109E+02  0.55151496642E+02  0.58382724210E+02  0.41800000000E+01 0. -1.
         -5    1    3    3    0  502  0.25933267068E+02 -0.15398419289E+02 -0.63466528342E+02  0.70392601011E+02  0.41800000000E+01 0. -1.
        -11    1    1    2    0    0  0.31331398685E+02 -0.18459725347E+02  0.31163796238E+02  0.47891546221E+02  0.00000000000E+00 0.  1.
         11    1    1    2    0    0 -0.42743993200E+02  0.45628130744E+02  0.38298313007E+02  0.73319411134E+02  0.00000000000E+00 0. -1.
</event>
<event>
 7    1  0.2688177E-009  0.1065297E+03  0.7561462E-02  0.1267135E+00
         -1   -1    0    0    0  501 -0.00000000000E+00  0.00000000000E+00  0.18712266541E+03  0.18712266541E+03  0.00000000000E+00 0.  1.
          1   -1    0    0  501    0  0.00000000000E+00 -0.00000000000E+00 -0.10139252706E+03  0.10139252706E+03  0.00000000000E+00 0. -1.
         25    2    1    2    0    0  0.10377769575E+02  0.53075840750E+02  0.13674540473E+03  0.19305966260E+03  0.12509190476E+03 0.  0.
          5    1    3    3  502    0  0.25754829839E+02  0.90805475800E+02  0.85186156000E+02  0.12721281095E+03  0.41800000000E+01 0. -1.
         -5    1    3    3    0  502 -0.15377060264E+02 -0.37729635049E+02  0.51559248728E+02  0.65846851654E+02  0.41800000000E+01 0. -1.
        -11    1    1    2    0    0 -0.17271220514E+02  0.58957191490E+01 -0.18029465361E+01  0.18338625317E+02  0.00000000000E+00 0.  1.
         11    1    1    2    0    0  0.68934509386E+01 -0.58971559899E+02 -0.49212319840E+02  0.77116904546E+02  0.00000000000E+00 0. -1.
</event>
<event>
 7    1  0.2688177E-009  0.1068956E+03  0.7561462E-02  0.1266429E+00
          1   -1    0    0  501    0  0.00000000000E+00  0.00000000000E+00  0.25840027533E+03  0.25840027533E+03  0.00000000000E+00 0. -1.
         -1   -1    0    0    0  501 -0.00000000000E+00 -0.00000000000E+00 -0.55294968286E+02  0.55294968286E+02  0.00000000000E+00 0.  1.
         25    2    1    2    0    0 -0.53711199790E+02  0.52642487201E+01  0.10687391660E+03  0.17314787609E+03  0.12508216359E+03 0.  0.
          5    1    3    3  502    0 -0.82918833217E+02  0.38702505513E+02  0.70111980085E+02  0.11535414594E+03  0.41800000000E+01 0.  1.
         -5    1    3    3    0  502  0.29207633427E+02 -0.33438256793E+02  0.36761936510E+02  0.57793730142E+02  0.41800000000E+01 0.  1.
        -11    1    1    2    0    0 -0.71733530285E+01  0.12289930125E+02  0.70888453225E+02  0.72302642944E+02  0.00000000000E+00 0. -1.
         11    1    1    2    0    0  0.60884552819E+02 -0.17554178845E+02  0.25342937228E+02  0.68244724589E+02  0.00000000000E+00 0.  1.
</event>
<event>
 7    1  0.2688177E-009  0.1186621E+03  0.7561462E-02  0.1245321E+00
         -1   -1    0    0    0  501 -0.00000000000E+00  0.00000000000E+00  0.16266151920E+02  0.16266151920E+02  0.00000000000E+00 0.  1.
          1   -1    0    0  501    0  0.00000000000E+00 -0.00000000000E+00 -0.89688728251E+03  0.89688728251E+03  0.00000000000E+00 0. -1.
         25    2    1    2    0    0  0.67181509391E+01  0.58107813729E+02 -0.51953044279E+03  0.53756870211E+03  0.12508627797E+03 0.  0.
          5    1    3    3  502    0  0.42094834899E+02  0.81694670898E+02 -0.29508791091E+03  0.30909600765E+03  0.41800000000E+01 0. -1.
         -5    1    3    3    0  502 -0.35376683960E+02 -0.23586857169E+02 -0.22444253188E+03  0.22847269446E+03  0.41800000000E+01 0. -1.
        -11    1    1    2    0    0  0.22558391153E+02  0.12766487898E+02 -0.73091042099E+02  0.77551045511E+02  0.00000000000E+00 0.  1.
         11    1    1    2    0    0 -0.29276542092E+02 -0.70874301627E+02 -0.28799964570E+03  0.29803368680E+03  0.00000000000E+00 0. -1.
</event>
<event>
 7    1  0.2688177E-009  0.6572380E+02  0.7561462E-02  0.1375269E+00
          2   -1    0    0  501    0  0.00000000000E+00  0.00000000000E+00  0.13427197946E+03  0.13427197946E+03  0.00000000000E+00 0. -1.
         -2   -1    0    0    0  501 -0.00000000000E+00 -0.00000000000E+00 -0.11814298741E+03  0.11814298741E+03  0.00000000000E+00 0.  1.
         25    2    1    2    0    0 -0.25734171378E+02 -0.43544870837E+02 -0.30789864858E+02  0.13839840969E+03  0.12509076974E+03 0.  0.
          5    1    3    3  502    0 -0.17491653698E+02 -0.28270814956E+02  0.47483498258E+02  0.58114988894E+02  0.41800000000E+01 0. -1.
         -5    1    3    3    0  502 -0.82425176802E+01 -0.15274055881E+02 -0.78273363116E+02  0.80283420793E+02  0.41800000000E+01 0. -1.
        -11    1    1    2    0    0  0.31729575629E+02 -0.41668486935E+01  0.56547616851E+02  0.64975084218E+02  0.00000000000E+00 0. -1.
         11    1    1    2    0    0 -0.59954042509E+01  0.47711719530E+02 -0.96287599416E+01  0.49041472966E+02  0.00000000000E+00 0.  1.
</event>
<event>
 7    1  0.2688177E-009  0.1718273E+03  0.7561462E-02  0.1175956E+00
          1   -1    0    0  501    0  0.00000000000E+00  0.00000000000E+00  0.10253024392E+03  0.10253024392E+03  0.00000000000E+00 0. -1.
         -1   -1    0    0    0  501 -0.00000000000E+00 -0.00000000000E+00 -0.33076374923E+03  0.33076374923E+03  0.00000000000E+00 0.  1.
         25    2    1    2    0    0  0.89615461785E+02 -0.11652743153E+03 -0.13936999252E+03  0.23807793275E+03  0.12509010336E+03 0.  0.
          5    1    3    3  502    0  0.82688642387E+02 -0.13289851302E+03 -0.15009565523E+03  0.21689998723E+03  0.41800000000E+01 0. -1.
         -5    1    3    3    0  502  0.69268193974E+01  0.16371081489E+02  0.10725662705E+02  0.21177945522E+02  0.41800000000E+01 0. -1.
        -11    1    1    2    0    0 -0.11553739069E+02  0.83096279763E+02 -0.20928591393E+02  0.86466678754E+02  0.00000000000E+00 0. -1.
         11    1    1    2    0    0 -0.78061722716E+02  0.33431151764E+02 -0.67934921398E+02  0.10874938164E+03  0.00000000000E+00 0.  1.
</event>
<event>
 7    1  0.2688177E-009  0.1472010E+03  0.7561462E-02  0.1203955E+00
         -1   -1    0    0    0  501 -0.00000000000E+00  0.00000000000E+00  0.15005462929E+02  0.15005462929E+02  0.00000000000E+00 0.  1.
          1   -1    0    0  501    0  0.00000000000E+00 -0.00000000000E+00 -0.14649948131E+04  0.14649948131E+04  0.00000000000E+00 0. -1.
         25    2    1    2    0    0  0.98692550940E+02 -0.18561098771E+02 -0.83115431376E+03  0.84649210048E+03  0.12508656560E+03 0.  0.
          5    1    3    3  502    0  0.12233338288E+03  0.85213216383E+01 -0.58866726886E+03  0.60131912934E+03  0.41800000000E+01 0.  1.
         -5    1    3    3    0  502 -0.23640831941E+02 -0.27082420410E+02 -0.24248704490E+03  0.24517297113E+03  0.41800000000E+01 0.  1.
        -11    1    1    2    0    0  0.13286821511E+02 -0.13589981400E+02 -0.92801329742E+02  0.94727577939E+02  0.00000000000E+00 0. -1.
         11    1    1    2    0    0 -0.11197937245E+03  0.32151080171E+02 -0.52603370671E+03  0.53878059765E+03  0.00000000000E+00 0.  1.
</event>
<event>
 7    1  0.2688177E-009  0.1454894E+03  0.7561462E-02  0.1206128E+00
         -2   -1    0    0    0  501 -0.00000000000E+00  0.00000000000E+00  0.51866245566E+02  0.51866245566E+02  0.00000000000E+00 0.  1.
          2   -1    0    0  501    0  0.00000000000E+00 -0.00000000000E+00 -0.51626190402E+03  0.51626190402E+03  0.00000000000E+00 0. -1.
         25    2    1    2    0    0  0.25928275555E+02  0.11527597737E+03 -0.30003195785E+03  0.34587197133E+03  0.12508964142E+03 0.  0.
          5    1    3    3  502    0  0.71581869569E+01  0.13680009453E+03 -0.20531305847E+03  0.24685305321E+03  0.41800000000E+01 0.  1.
         -5    1    3    3    0  502  0.18770088598E+02 -0.21524117159E+02 -0.94718899380E+02  0.99018918117E+02  0.41800000000E+01 0.  1.
        -11    1    1    2    0    0 -0.36994110510E+02 -0.95302847985E+02 -0.17033145581E+03  0.19865548541E+03  0.00000000000E+00 0. -1.
         11    1    1    2    0    0  0.11065834956E+02 -0.19973129385E+02  0.59677551998E+01  0.23600692846E+02  0.00000000000E+00 0.  1.
</event>
<event>
 7    1  0.2688177E-009  0.1629230E+03  0.7561462E-02  0.1185436E+00
          1   -1    0    0  501    0  0.00000000000E+00  0.00000000000E+00  0.41898242867E+03  0.41898242867E+03  0.00000000000E+00 0. -1.
         -1   -1    0    0    0  501 -0.00000000000E+00 -0.00000000000E+00 -0.77038935196E+02  0.77038935196E+02  0.00000000000E+00 0.  1.
         25    2    1    2    0    0  0.10609187562E+02  0.13196609957E+03  0.25405022333E+03  0.31259415925E+03  0.12508391634E+03 0.  0.
          5    1    3    3  502    0 -0.56777974197E+02  0.49486378890E+02  0.99874477965E+02  0.12515999280E+03  0.41800000000E+01 0.  1.
         -5    1    3    3    0  502  0.67387161759E+02  0.82479720677E+02  0.15417574537E+03  0.18743416645E+03  0.41800000000E+01 0.  1.
        -11    1    1    2    0    0  0.22953233150E+02 -0.64662820821E+02  0.11566138158E+01  0.68625571503E+02  0.00000000000E+00 0. -1.
         11    1    1    2    0    0 -0.33562420712E+02 -0.67303278747E+02  0.86736656324E+02  0.11480163311E+03  0.00000000000E+00 0.  1.
</event>
<event>
 7    1  0.2688177E-009  0.1063201E+03  0.7561462E-02  0.1267540E+00
         -1   -1    0    0    0  501 -0.00000000000E+00  0.00000000000E+00  0.74510051090E+02  0.74510051090E+02  0.00000000000E+00 0.  1.
          1   -1    0    0  501    0  0.00000000000E+00 -0.00000000000E+00 -0.17109027920E+03  0.17109027920E+03  0.00000000000E+00 0. -1.
         25    2    1    2    0    0  0.15777511254E+02 -0.24221829351E+02 -0.40931806184E+02  0.13475313210E+03  0.12508943590E+03 0.  0.
          5    1    3    3  502    0  0.16704359859E+02  0.47220109617E+02  0.37151860705E+01  0.50398902746E+02  0.41800000000E+01 0. -1.
         -5    1    3    3    0  502 -0.92684860443E+00 -0.71441938968E+02 -0.44646992254E+02  0.84354229350E+02  0.41800000000E+01 0. -1.
        -11    1    1    2    0    0  0.52727910536E+01  0.54046528802E+02 -0.50173367514E+02  0.73933729845E+02  0.00000000000E+00 0.  1.
         11    1    1    2    0    0 -0.21050302308E+02 -0.29824699451E+02 -0.54750544096E+01  0.36913468347E+02  0.00000000000E+00 0. -1.
</event>
<event>
 7    1  0.2688177E-009  0.1962576E+03  0.7561462E-02  0.1152935E+00
         -1   -1    0    0    0  501 -0.00000000000E+00  0.00000000000E+00  0.28459705832E+03  0.28459705832E+03  0.00000000000E+00 0.  1.
          1   -1    0    0  501    0  0.00000000000E+00 -0.00000000000E+00 -0.17256524954E+03  0.17256524954E+03  0.00000000000E+00 0. -1.
         25    2    1    2    0    0  0.16355411095E+03  0.99223375741E+02  0.84674302164E+02  0.24374809927E+03  0.12509265746E+03 0.  0.
          5    1    3    3  502    0  0.10880030152E+03  0.61003104750E+02  0.11553162420E+03  0.17007031778E+03  0.41800000000E+01 0. -1.
         -5    1    3    3    0  502  0.54753809430E+02  0.38220270991E+02 -0.30857322040E+02  0.73677781490E+02  0.41800000000E+01 0. -1.
        -11    1    1    2    0    0 -0.41585743475E+02  0.29584295929E+01 -0.21579004572E+02  0.46944433157E+02  0.00000000000E+00 0. -1.
         11    1    1    2    0    0 -0.12196836747E+03 -0.10218180533E+03  0.48936511184E+02  0.16646977543E+03  0.00000000000E+00 0.  1.
</event>
<event>
 7    1  0.2688177E-009  0.2562098E+03  0.7561462E-02  0.1109442E+00
          2   -1    0    0  501    0  0.00000000000E+00  0.00000000000E+00  0.75189462848E+02  0.75189462848E+02  0.00000000000E+00 0. -1.
         -2   -1    0    0    0  501 -0.00000000000E+00 -0.00000000000E+00 -0.10437643891E+04  0.10437643891E+04  0.00000000000E+00 0.  1.
         25    2    1    2    0    0  0.27118499821E+00  0.24622990194E+03 -0.31619905841E+03  0.41983256808E+03  0.12509317541E+03 0.  0.
          5    1    3    3  502    0  0.28683917773E+02  0.23184754523E+03 -0.23007641053E+03  0.32791565753E+03  0.41800000000E+01 0.  1.
         -5    1    3    3    0  502 -0.28412732775E+02  0.14382356703E+02 -0.86122647871E+02  0.91916910547E+02  0.41800000000E+01 0.  1.
        -11    1    1    2    0    0 -0.70744902152E+01 -0.93652971927E+02 -0.18587602820E+03  0.20825663356E+03  0.00000000000E+00 0. -1.
         11    1    1    2    0    0  0.68033052170E+01 -0.15257693001E+03 -0.46649983964E+03  0.49086465030E+03  0.00000000000E+00 0.  1.
</event>
<event>
 7    1  0.2881236E-009  0.8509197E+02  0.7561462E-02  0.1315192E+00
          2   -1    0    0  501    0  0.00000000000E+00  0.00000000000E+00  0.11399665977E+04  0.11399665977E+04  0.00000000000E+00 0.  1.
         -2   -1    0    0    0  501 -0.00000000000E+00 -0.00000000000E+00 -0.18120504729E+02  0.18120504729E+02  0.00000000000E+00 0. -1.
         25    2    1    2    0    0  0.71820048681E+02 -0.38224323536E+02  0.80491969080E+03  0.81863431957E+03  0.12508885735E+03 0.  0.
          5    1    3    3  502    0  0.28245636072E+02 -0.33872196459E+02  0.72979710743E+02  0.85373603826E+02  0.41800000000E+01 0.  1.
         -5    1    3    3    0  502  0.43574412609E+02 -0.43521270765E+01  0.73193998006E+03  0.73326071574E+03  0.41800000000E+01 0.  1.
        -11    1    1    2    0    0 -0.47316019555E+02  0.20073234600E+02  0.30040533900E+03  0.30477058282E+03  0.00000000000E+00 0.  1.
         11    1    1    2    0    0 -0.24504029126E+02  0.18151088936E+02  0.16521063220E+02  0.34682200088E+02  0.00000000000E+00 0. -1.
</event>
<event>
 7    1  0.2688177E-009  0.1220430E+03  0.7561462E-02  0.1239764E+00
         -1   -1    0    0    0  501 -0.00000000000E+00  0.00000000000E+00  0.80282641098E+02  0.80282641098E+02  0.00000000000E+00 0.  1.
          1   -1    0    0  501    0  0.00000000000E+00 -0.00000000000E+00 -0.30457316717E+03  0.30457316717E+03  0.00000000000E+00 0. -1.
         25    2    1    2    0    0  0.30978775397E+02 -0.80734671491E+02 -0.32938463819E+02  0.15559641556E+03  0.12509008926E+03 0.  0.
          5    1    3    3  502    0 -0.14899228624E+02 -0.88587523460E+02 -0.53391344398E+02  0.10458414977E+03  0.41800000000E+01 0. -1.
         -5    1    3    3    0  502  0.45878004021E+02  0.78528519689E+01  0.20452880580E+02  0.51012265790E+02  0.41800000000E+01 0. -1.
        -11    1    1    2    0    0 -0.46072095613E+02  0.31202700366E+02 -0.37948319486E+02  0.67352219385E+02  0.00000000000E+00 0.  1.
         11    1    1    2    0    0  0.15093320216E+02  0.49531971125E+02 -0.15340374276E+03  0.16190717332E+03  0.00000000000E+00 0. -1.
</event>
<event>
 7    1  0.2688177E-009  0.8841635E+02  0.7561462E-02  0.1306733E+00
         -1   -1    0    0    0  501 -0.00000000000E+00  0.00000000000E+00  0.35835296539E+02  0.35835296539E+02  0.00000000000E+00 0.  1.
          1   -1    0    0  501    0  0.00000000000E+00 -0.00000000000E+00 -0.38925721626E+03  0.38925721626E+03  0.00000000000E+00 0. -1.
         25    2    1    2    0    0  0.46062207972E+02  0.15556582916E+01 -0.18424599571E+03  0.22742081159E+03  0.12509792778E+03 0.  0.
          5    1    3    3  502    0  0.23570984352E+01 -0.26156623930E+02  0.84102139832E+01  0.27891378376E+02  0.41800000000E+01 0. -1.
         -5    1    3    3    0  502  0.43705109537E+02  0.27712282222E+02 -0.19265620970E+03  0.19952943322E+03  0.41800000000E+01 0. -1.
        -11    1    1    2    0    0 -0.65227611328E+02  0.21184224024E+02 -0.14057071795E+03  0.15640824586E+03  0.00000000000E+00 0. -1.
         11    1    1    2    0    0  0.19165403357E+02 -0.22739882315E+02 -0.28605206053E+02  0.41263455343E+02  0.00000000000E+00 0.  1.
</event>
<event>
 7    1  0.2688177E-009  0.1185365E+03  0.7561462E-02  0.1245531E+00
         -2   -1    0    0    0  501 -0.00000000000E+00  0.00000000000E+00  0.91153940704E+02  0.91153940704E+02  0.00000000000E+00 0. -1.
          2   -1    0    0  501    0  0.00000000000E+00 -0.00000000000E+00 -0.19972155171E+03  0.19972155171E+03  0.00000000000E+00 0.  1.
         25    2    1    2    0    0 -0.76452199248E+02  0.16822689164E+02 -0.46008110460E+02  0.15457114915E+03  0.12509017660E+03 0.  0.
          5    1    3    3  502    0 -0.74575935930E+02  0.62546525300E+02 -0.47937813917E+02  0.10857782670E+03  0.41800000000E+01 0.  1.
         -5    1    3    3    0  502 -0.18762633185E+01 -0.45723836136E+02  0.19297034570E+01  0.45993322455E+02  0.41800000000E+01 0.  1.
        -11    1    1    2    0    0  0.40862421702E+02  0.17317669269E+02 -0.73433195669E+02  0.85802525618E+02  0.00000000000E+00 0.  1.
         11    1    1    2    0    0  0.35589777546E+02 -0.34140358433E+02  0.10873695123E+02  0.50501817644E+02  0.00000000000E+00 0. -1.
</event>
<event>
 7    1  0.2688177E-009  0.8777141E+02  0.7561462E-02  0.1308340E+00
         -2   -1    0    0    0  501 -0.00000000000E+00  0.00000000000E+00  0.23950995241E+02  0.23950995241E+02  0.00000000000E+00 0.  1.
          2   -1    0    0  501    0  0.00000000000E+00 -0.00000000000E+00 -0.66782647437E+03  0.66782647437E+03  0.00000000000E+00 0. -1.
         25    2    1    2    0    0 -0.58884706620E+02  0.60668036279E+01 -0.43524092534E+03  0.45671770198E+03  0.12510867849E+03 0.  0.
          5    1    3    3  502    0 -0.29296447788E+01  0.18224674070E+02 -0.12733631705E+01  0.18968801155E+02  0.41800000000E+01 0. -1.
         -5    1    3    3    0  502 -0.55955061841E+02 -0.12157870443E+02 -0.43396756217E+03  0.43774890083E+03  0.41800000000E+01 0. -1.
        -11    1    1    2    0    0  0.72519731100E+02  0.15052453127E+02 -0.18952342597E+03  0.20348173563E+03  0.00000000000E+00 0.  1.
         11    1    1    2    0    0 -0.13635024480E+02 -0.21119256755E+02 -0.19111127822E+02  0.31578032002E+02  0.00000000000E+00 0. -1.
</event>
<event>
 7    1  0.2688177E-009  0.1009741E+03  0.7561462E-02  0.1278261E+00
          2   -1    0    0  501    0  0.00000000000E+00  0.00000000000E+00  0.11247314361E+03  0.11247314361E+03  0.00000000000E+00 0. -1.
         -2   -1    0    0    0  501 -0.00000000000E+00 -0.00000000000E+00 -0.11642318609E+03  0.11642318609E+03  0.00000000000E+00 0.  1.
         25    2    1    2    0    0  0.42205605697E+01 -0.25015676087E+02 -0.30333612551E+02  0.13119187803E+03  0.12509030190E+03 0.  0.
          5    1    3    3  502    0 -0.70228129144E+01  0.49215608090E+02  0.57525304134E+00  0.49892878219E+02  0.41800000000E+01 0.  1.
         -5    1    3    3    0  502  0.11243373484E+02 -0.74231284177E+02 -0.30908865592E+02  0.81298999810E+02  0.41800000000E+01 0.  1.
        -11    1    1    2    0    0 -0.16832494977E+02  0.47879882089E+02  0.43197718630E+02  0.66647272194E+02  0.00000000000E+00 0. -1.
         11    1    1    2    0    0  0.12611934407E+02 -0.22864206002E+02 -0.16814148553E+02  0.31057179478E+02  0.00000000000E+00 0.  1.
</event>
<event>
 6    1  0.2688177E-009  0.1317670E+03  0.7561462E-02  0.1224857E+00
          3   -1    0    0  501    0  0.00000000000E+00  0.00000000000E+00  0.17817951650E+03  0.17817951650E+03  0.00000000000E+00 0. -1.
         -3   -1    0    0    0  501 -0.00000000000E+00 -0.00000000000E+00 -0.12384806373E+03  0.12384806373E+03  0.00000000000E+00 0.  1.
          5    1    1    2  502    0  0.55770656184E+01 -0.10918601312E+03  0.87165875946E+02  0.13988585150E+03  0.41800000000E+01 0. -1.
         -5    1    1    2    0  502 -0.15349637184E+02  0.19345950242E+02 -0.16271386742E+02  0.29868169997E+02  0.41800000000E+01 0. -1.
        -11    1    1    2    0    0  0.47098536387E+02  0.22751915343E+02 -0.18486485974E+02  0.55476769420E+02  0.00000000000E+00 0.  1.
         11    1    1    2    0    0 -0.37325964822E+02  0.67088147534E+02  0.19234495407E+01  0.76796789305E+02  0.00000000000E+00 0. -1.
</event>
<event>
 7    1  0.2688177E-009  0.8461135E+02  0.7561462E-02  0.1316452E+00
          1   -1    0    0  501    0  0.00000000000E+00  0.00000000000E+00  0.41604899225E+03  0.41604899225E+03  0.00000000000E+00 0. -1.
         -1   -1    0    0    0  501 -0.00000000000E+00 -0.00000000000E+00 -0.30868409186E+02  0.30868409186E+02  0.00000000000E+00 0.  1.
         25    2    1    2    0    0 -0.84977763682E+01 -0.20347627620E+01  0.27641912201E+03  0.30353195911E+03  0.12509103376E+03 0.  0.
          5    1    3    3  502    0  0.66703823419E+00 -0.44242425555E+02  0.30714225129E+02  0.54024746036E+02  0.41800000000E+01 0.  1.
         -5    1    3    3    0  502 -0.91648146024E+01  0.42207662793E+02  0.24570489688E+03  0.24950721308E+03  0.41800000000E+01 0.  1.
        -11    1    1    2    0    0 -0.25815355682E+02 -0.26324077899E+02  0.15404702341E+02  0.39958660143E+02  0.00000000000E+00 0.  1.
         11    1    1    2    0    0  0.34313132050E+02  0.28358840661E+02  0.93356758705E+02  0.10342678217E+03  0.00000000000E+00 0. -1.
</event>
<event>
 7    1  0.2688177E-009  0.1121109E+03  0.7561462E-02  0.1256710E+00
          2   -1    0    0  501    0  0.00000000000E+00  0.00000000000E+00  0.42027399235E+03  0.42027399235E+03  0.00000000000E+00 0. -1.
         -2   -1    0    0    0  501 -0.00000000000E+00 -0.00000000000E+00 -0.33053270878E+02  0.33053270878E+02  0.00000000000E+00 0.  1.
         25    2    1    2    0    0  0.84251693637E+01  0.33622035276E+02  0.27749405823E+03  0.30635054692E+03  0.12508509307E+03 0.  0.
          5    1    3    3  502    0  0.31143884715E+02  0.74810688324E+02  0.19650825251E+03  0.21260184935E+03  0.41800000000E+01 0.  1.
         -5    1    3    3    0  502 -0.22718715351E+02 -0.41188653047E+02  0.80985805726E+02  0.93748697570E+02  0.41800000000E+01 0.  1.
        -11    1    1    2    0    0  0.36752766301E+01  0.30439753812E+02  0.49467115166E+02  0.58198640476E+02  0.00000000000E+00 0. -1.
         11    1    1    2    0    0 -0.12100445994E+02 -0.64061789089E+02  0.60259548068E+02  0.88778075828E+02  0.00000000000E+00 0.  1.
</event>
<event>
 7    1  0.2688177E-009  0.9579170E+02  0.7561462E-02  0.1289403E+00
          2   -1    0    0  501    0  0.00000000000E+00  0.00000000000E+00  0.57788985546E+03  0.57788985546E+03  0.00000000000E+00 0. -1.
         -2   -1    0    0    0  501 -0.00000000000E+00 -0.00000000000E+00 -0.23052475425E+02  0.23052475425E+02  0.00000000000E+00 0.  1.
         25    2    1    2    0    0  0.20470978692E+02 -0.31493319493E+02  0.27985636844E+03  0.30883287890E+03  0.12508904824E+03 0.  0.
          5    1    3    3  502    0  0.31742758714E+02  0.22178115143E+02  0.21101339258E+02  0.44296844589E+02  0.41800000000E+01 0.  1.
         -5    1    3    3    0  502 -0.11271780023E+02 -0.53671434636E+02  0.25875502919E+03  0.26453603431E+03  0.41800000000E+01 0.  1.
        -11    1    1    2    0    0 -0.41820776033E+02 -0.16615595014E+02  0.10706651747E+03  0.11613911688E+03  0.00000000000E+00 0.  1.
         11    1    1    2    0    0  0.21349797342E+02  0.48108914507E+02  0.16791449411E+03  0.17597033510E+03  0.00000000000E+00 0. -1.
</event>
<event>
 7    1  0.2688177E-009  0.1117899E+03  0.7561462E-02  0.1257291E+00
          1   -1    0    0  501    0  0.00000000000E+00  0.00000000000E+00  0.79026250618E+03  0.79026250618E+03  0.00000000000E+00 0. -1.
         -1   -1    0    0    0  501 -0.00000000000E+00 -0.00000000000E+00 -0.17696521337E+02  0.17696521337E+02  0.00000000000E+00 0.  1.
         25    2    1    2    0    0 -0.11419471508E+02 -0.13102826213E+02  0.30627925022E+03  0.33130568087E+03  0.12511749147E+03 0.  0.
          5    1    3    3  502    0  0.38048425309E+02 -0.50244417409E+02  0.13218945589E+03  0.14650497875E+03  0.41800000000E+01 0.  1.
         -5    1    3    3    0  502 -0.49467896817E+02  0.37141591196E+02  0.17408979433E+03  0.18480070212E+03  0.41800000000E+01 0.  1.
        -11    1    1    2    0    0  0.98283262612E+01 -0.42078684791E+02  0.18236247661E+03  0.18741207162E+03  0.00000000000E+00 0.  1.
         11    1    1    2    0    0  0.15911452469E+01  0.55181511005E+02  0.28392425801E+03  0.28924127504E+03  0.00000000000E+00 0. -1.
</event>
<event>
 7    1  0.2688177E-009  0.9543673E+02  0.7561462E-02  0.1290195E+00
          1   -1    0    0  501    0  0.00000000000E+00  0.00000000000E+00  0.27273593705E+03  0.27273593705E+03  0.00000000000E+00 0. -1.
         -1   -1    0    0    0  501 -0.00000000000E+00 -0.00000000000E+00 -0.54642049435E+02  0.54642049435E+02  0.00000000000E+00 0.  1.
         25    2    1    2    0    0 -0.17532114724E+02  0.17025617131E+02  0.18832166577E+03  0.22739933127E+03  0.12509260321E+03 0.  0.
          5    1    3    3  502    0 -0.56384962461E+02 -0.14270552633E+02  0.39628125222E+02  0.70503711766E+02  0.41800000000E+01 0. -1.
         -5    1    3    3    0  502  0.38852847736E+02  0.31296169763E+02  0.14869354055E+03  0.15689561950E+03  0.41800000000E+01 0. -1.
        -11    1    1    2    0    0  0.28895307397E+02 -0.44333208707E+02  0.42408630163E+02  0.67814925320E+02  0.00000000000E+00 0. -1.
         11    1    1    2    0    0 -0.11363192673E+02  0.27307591576E+02 -0.12636408320E+02  0.32163729893E+02  0.00000000000E+00 0.  1.
</event>
<event>
 7    1  0.2688177E-009  0.1346454E+03  0.7561462E-02  0.1220721E+00
          2   -1    0    0  501    0  0.00000000000E+00  0.00000000000E+00  0.39416559824E+03  0.39416559824E+03  0.00000000000E+00 0. -1.
         -2   -1    0    0    0  501 -0.00000000000E+00 -0.00000000000E+00 -0.80100648644E+02  0.80100648644E+02  0.00000000000E+00 0.  1.
         25    2    1    2    0    0  0.33219705564E+02 -0.10119988147E+03  0.46376731694E+02  0.17071465244E+03  0.12509087284E+03 0.  0.
          5    1    3    3  502    0  0.74136529814E+02 -0.29092315825E+02  0.34357488584E+02  0.86836036959E+02  0.41800000000E+01 0.  1.
         -5    1    3    3    0  502 -0.40916824250E+02 -0.72107565648E+02  0.12019243110E+02  0.83878615483E+02  0.41800000000E+01 0.  1.
        -11    1    1    2    0    0 -0.11446808540E+02  0.32198673937E+02  0.20496575973E+03  0.20779496310E+03  0.00000000000E+00 0. -1.
         11    1    1    2    0    0 -0.21772897023E+02  0.69001207536E+02  0.62722458172E+02  0.95756631338E+02  0.00000000000E+00 0.  1.
</event>
<event>
 7    1  0.2688177E-009  0.1466883E+03  0.7561462E-02  0.1204602E+00
         -3   -1    0    0    0  501 -0.00000000000E+00  0.00000000000E+00  0.91247278080E+03  0.91247278080E+03  0.00000000000E+00 0.  1.
          3   -1    0    0  501    0  0.00000000000E+00 -0.00000000000E+00 -0.32969476892E+02  0.32969476892E+02  0.00000000000E+00 0. -1.
         25    2    1    2    0    0  0.11723602956E+03 -0.46459325252E+02  0.57805850320E+03  0.60473335580E+03  0.12509213789E+03 0.  0.
          5    1    3    3  502    0  0.98335018929E+01 -0.28477353600E+02  0.20630227320E+02  0.36752361922E+02  0.41800000000E+01 0.  1.
         -5    1    3    3    0  502  0.10740252766E+03 -0.17981971653E+02  0.55742827588E+03  0.56798099388E+03  0.41800000000E+01 0.  1.
        -11    1    1    2    0    0 -0.11548435494E+03  0.82986283415E+01  0.25842267508E+03  0.28317447354E+03  0.00000000000E+00 0.  1.
         11    1    1    2    0    0 -0.17516746147E+01  0.38160696911E+02  0.43022125625E+02  0.57534428354E+02  0.00000000000E+00 0. -1.
</event>
<event>
 7    1  0.2688177E-009  0.2563169E+03  0.7561462E-02  0.1109377E+00
         -1   -1    0    0    0  501 -0.00000000000E+00  0.00000000000E+00  0.85417052973E+02  0.85417052973E+02  0.00000000000E+00 0.  1.
          1   -1    0    0  501    0  0.00000000000E+00 -0.00000000000E+00 -0.84734239763E+03  0.84734239763E+03  0.00000000000E+00 0. -1.
         25    2    1    2    0    0  0.15362770346E+03  0.18517332262E+03 -0.30112217726E+03  0.40523163295E+03  0.12508988777E+03 0.  0.
          5    1    3    3  502    0  0.10479835735E+03  0.34937134118E+02 -0.15203180443E+03  0.18797457542E+03  0.41800000000E+01 0.  1.
         -5    1    3    3    0  502  0.48829346105E+02  0.15023618850E+03 -0.14909037283E+03  0.21725705753E+03  0.41800000000E+01 0.  1.
        -11    1    1    2    0    0 -0.13974775882E+03 -0.14423389184E+03 -0.30000671278E+03  0.36102199291E+03  0.00000000000E+00 0.  1.
         11    1    1    2    0    0 -0.13879944637E+02 -0.40939430777E+02 -0.16079645462E+03  0.16650582474E+03  0.00000000000E+00 0. -1.
</event>
<event>
 7    1  0.2688177E-009  0.1082654E+03  0.7561462E-02  0.1263816E+00
          2   -1    0    0  501    0  0.00000000000E+00  0.00000000000E+00  0.17272461591E+03  0.17272461591E+03  0.00000000000E+00 0. -1.
         -2   -1    0    0    0  501 -0.00000000000E+00 -0.00000000000E+00 -0.72813374037E+02  0.72813374037E+02  0.00000000000E+00 0.  1.
         25    2    1    2    0    0 -0.95714037933E+01 -0.99155806983E+01  0.26682370137E+02  0.12864388190E+03  0.12508944385E+03 0.  0.
          5    1    3    3  502    0 -0.16770776056E+02 -0.66414185484E+02  0.17255058861E+02  0.70762365840E+02  0.41800000000E+01 0. -1.
         -5    1    3    3    0  502  0.71993722628E+01  0.56498604785E+02  0.94273112765E+01  0.57881516061E+02  0.41800000000E+01 0. -1.
        -11    1    1    2    0    0  0.48550901635E+02 -0.55360527711E+01  0.34525658122E+02  0.59831922906E+02  0.00000000000E+00 0.  1.
         11    1    1    2    0    0 -0.38979497842E+02  0.15451633469E+02  0.38703213612E+02  0.57062185139E+02  0.00000000000E+00 0. -1.
</event>
<event>
 7    1  0.2688177E-009  0.1055120E+03  0.7561462E-02  0.1269114E+00
          3   -1    0    0  501    0  0.00000000000E+00  0.00000000000E+00  0.69384521215E+02  0.69384521215E+02  0.00000000000E+00 0. -1.
         -3   -1    0    0    0  501 -0.00000000000E+00 -0.00000000000E+00 -0.30922179406E+03  0.30922179406E+03  0.00000000000E+00 0.  1.
         25    2    1    2    0    0 -0.15461511819E+02 -0.95486415994E+02 -0.10350126587E+03  0.18898703527E+03  0.12508746330E+03 0.  0.
          5    1    3    3  502    0 -0.11146029089E+02 -0.43539609658E+02 -0.12465641650E+03  0.13257686883E+03  0.41800000000E+01 0.  1.
         -5    1    3    3    0  502 -0.43154827297E+01 -0.51946806336E+02  0.21155150630E+02  0.56410166440E+02  0.41800000000E+01 0.  1.
        -11    1    1    2    0    0  0.15105939602E+01  0.99156189763E+02 -0.14276360790E+03  0.17382657910E+03  0.00000000000E+00 0.  1.
         11    1    1    2    0    0  0.13950917858E+02 -0.36697737692E+01  0.64276009134E+01  0.15792700912E+02  0.00000000000E+00 0. -1.
</event>
<event>
 7    1  0.3276429E-009  0.1028722E+03  0.7561462E-02  0.1274370E+00
         -2   -1    0    0    0  501 -0.00000000000E+00  0.00000000000E+00  0.12234168517E+03  0.12234168517E+03  0.00000000000E+00 0.  1.
          2   -1    0    0  501    0  0.00000000000E+00 -0.00000000000E+00 -0.18160359806E+03  0.18160359806E+03  0.00000000000E+00 0. -1.
         25    2    1    2    0    0 -0.98312196418E+02 -0.27821164650E+02 -0.37638169236E+02  0.16583946021E+03  0.12508712808E+03 0.  0.
          5    1    3    3  502    0 -0.12140535801E+02 -0.72768982622E+01 -0.69920596318E+02  0.71461234578E+02  0.41800000000E+01 0.  1.
         -5    1    3    3    0  502 -0.86171660617E+02 -0.20544266388E+02  0.32282427082E+02  0.94378225631E+02  0.41800000000E+01 0.  1.
        -11    1    1    2    0    0  0.56121198727E+02  0.18501023023E+02  0.33608240214E+02  0.67980810599E+02  0.00000000000E+00 0.  1.
         11    1    1    2    0    0  0.42190997691E+02  0.93201416270E+01 -0.55231983869E+02  0.70125012429E+02  0.00000000000E+00 0. -1.
</event>
<event>
 7    1  0.2688177E-009  0.8746817E+02  0.7561462E-02  0.1309101E+00
          1   -1    0    0  501    0  0.00000000000E+00  0.00000000000E+00  0.79769366620E+03  0.79769366620E+03  0.00000000000E+00 0. -1.
         -1   -1    0    0    0  501 -0.00000000000E+00 -0.00000000000E+00 -0.17696186059E+02  0.17696186059E+02  0.00000000000E+00 0.  1.
         25    2    1    2    0    0  0.25854269596E+02 -0.43591150228E+02  0.49719783380E+03  0.51519122588E+03  0.12509069369E+03 0.  0.
          5    1    3    3  502    0 -0.24959370611E+02 -0.33001397121E+02  0.42010995579E+03  0.42216336855E+03  0.41800000000E+01 0. -1.
         -5    1    3    3    0  502  0.50813640207E+02 -0.10589753106E+02  0.77087878015E+02  0.93027857327E+02  0.41800000000E+01 0. -1.
        -11    1    1    2    0    0  0.20845224040E+02  0.20272801844E+02  0.28927552220E+02  0.41016010743E+02  0.00000000000E+00 0.  1.
         11    1    1    2    0    0 -0.46699493636E+02  0.23318348384E+02  0.25387209412E+03  0.25918261564E+03  0.00000000000E+00 0. -1.
</event>
<event>
 7    1  0.2688177E-009  0.7186271E+02  0.7561462E-02  0.1353871E+00
         -1   -1    0    0    0  501 -0.00000000000E+00  0.00000000000E+00  0.37977989312E+03  0.37977989312E+03  0.00000000000E+00 0.  1.
          1   -1    0    0  501    0  0.00000000000E+00 -0.00000000000E+00 -0.48042698255E+02  0.48042698255E+02  0.00000000000E+00 0. -1.
         25    2    1    2    0    0  0.45639148675E+02 -0.49228351982E+02  0.11138199348E+03  0.18044335129E+03  0.12508993573E+03 0.  0.
          5    1    3    3  502    0  0.36495339227E+02 -0.33374823463E+02  0.13869118696E+03  0.14730412882E+03  0.41800000000E+01 0.  1.
         -5    1    3    3    0  502  0.91438094476E+01 -0.15853528518E+02 -0.27309193476E+02  0.33139222472E+02  0.41800000000E+01 0.  1.
        -11    1    1    2    0    0 -0.41282353969E+02  0.20184592194E+02  0.21188888459E+03  0.21681455192E+03  0.00000000000E+00 0.  1.
         11    1    1    2    0    0 -0.43567947063E+01  0.29043759788E+02  0.84663167925E+01  0.30564688168E+02  0.00000000000E+00 0. -1.
</event>
<event>
 7    1  0.2688177E-009  0.1624131E+03  0.7561462E-02  0.1185999E+00
          1   -1    0    0  501    0  0.00000000000E+00  0.00000000000E+00  0.58925258234E+03  0.58925258234E+03  0.00000000000E+00 0. -1.
         -1   -1    0    0    0  501 -0.00000000000E+00 -0.00000000000E+00 -0.46872059265E+02  0.46872059265E+02  0.00000000000E+00 0.  1.
         25    2    1    2    0    0 -0.83797907223E+02  0.85658349719E+02  0.22301916425E+03  0.28239241236E+03  0.12509390396E+03 0.  0.
          5    1    3    3  502    0 -0.93280599294E+02  0.68889617710E+01  0.11473920960E+03  0.14809215583E+03  0.41800000000E+01 0. -1.
         -5    1    3    3    0  502  0.94826920708E+01  0.78769387948E+02  0.10827995465E+03  0.13430025654E+03  0.41800000000E+01 0. -1.
        -11    1    1    2    0    0  0.81856781349E+02 -0.17680477707E+02  0.16421636646E+03  0.18433704717E+03  0.00000000000E+00 0. -1.
         11    1    1    2    0    0  0.19411258742E+01 -0.67977872013E+02  0.15514499238E+03  0.16939518208E+03  0.00000000000E+00 0.  1.
</event>
<event>
 7    1  0.2688177E-009  0.1045308E+03  0.7561462E-02  0.1271047E+00
          2   -1    0    0  501    0  0.00000000000E+00  0.00000000000E+00  0.83467564594E+03  0.83467564594E+03  0.00000000000E+00 0. -1.
         -2   -1    0    0    0  501 -0.00000000000E+00 -0.00000000000E+00 -0.14938760521E+02  0.14938760521E+02  0.00000000000E+00 0.  1.
         25    2    1    2    0    0  0.32637656724E+01 -0.12970942915E+02  0.54614258272E+03  0.56044435148E+03  0.12508897998E+03 0.  0.
          5    1    3    3  502    0 -0.39839925462E+02  0.40217147913E+02  0.27107007021E+03  0.27694962359E+03  0.41800000000E+01 0.  1.
         -5    1    3    3    0  502  0.43103691134E+02 -0.53188090828E+02  0.27507251251E+03  0.28349472788E+03  0.41800000000E+01 0.  1.
        -11    1    1    2    0    0  0.32945625044E+02 -0.16662839665E+02  0.18829663273E+03  0.19188195937E+03  0.00000000000E+00 0. -1.
         11    1    1    2    0    0 -0.36209390716E+02  0.29633782579E+02  0.85297669970E+02  0.97288095615E+02  0.00000000000E+00 0.  1.
</event>
<event>
 7    1  0.2688177E-009  0.8992705E+02  0.7561462E-02  0.1303028E+00
         -2   -1    0    0    0  501 -0.00000000000E+00  0.00000000000E+00  0.50292095172E+03  0.50292095172E+03  0.00000000000E+00 0.  1.
          2   -1    0    0  501    0  0.00000000000E+00 -0.00000000000E+00 -0.30993708123E+02  0.30993708123E+02  0.00000000000E+00 0. -1.
         25    2    1    2    0    0  0.33757894053E+02  0.26843978741E+02  0.35492901805E+03  0.37879049149E+03  0.12508970377E+03 0.  0.
          5    1    3    3  502    0  0.70631300134E+02  0.46156826293E+02  0.28545615526E+03  0.29769434349E+03  0.41800000000E+01 0. -1.
         -5    1    3    3    0  502 -0.36873406081E+02 -0.19312847552E+02  0.69472862786E+02  0.81096147998E+02  0.41800000000E+01 0. -1.
        -11    1    1    2    0    0 -0.31880363028E+02 -0.57882980402E+01  0.12747691209E+03  0.13153031992E+03  0.00000000000E+00 0.  1.
         11    1    1    2    0    0 -0.18775310252E+01 -0.21055680701E+02 -0.10478686538E+02  0.23593848438E+02  0.00000000000E+00 0. -1.
</event>
<event>
 7    1  0.2688177E-009  0.1172267E+03  0.7561462E-02  0.1247744E+00
          2   -1    0    0  501    0  0.00000000000E+00  0.00000000000E+00  0.80379990743E+02  0.80379990743E+02  0.00000000000E+00 0. -1.
         -2   -1    0    0    0  501 -0.00000000000E+00 -0.00000000000E+00 -0.19826556902E+03  0.19826556902E+03  0.00000000000E+00 0.  1.
         25    2    1    2    0    0 -0.19972238574E+02  0.43626040508E+02 -0.18329330735E+02  0.13522735745E+03  0.12509337358E+03 0.  0.
          5    1    3    3  502    0  0.71406729311E+01 -0.41309061365E+02  0.63914829315E+01  0.42611632389E+02  0.41800000000E+01 0.  1.
         -5    1    3    3    0  502 -0.27112911505E+02  0.84935101873E+02 -0.24720813666E+02  0.92615725062E+02  0.41800000000E+01 0.  1.
        -11    1    1    2    0    0  0.70451310868E+01 -0.71760773855E+02 -0.73314690618E+02  0.10283134929E+03  0.00000000000E+00 0.  1.
         11    1    1    2    0    0  0.12927107488E+02  0.28134733347E+02 -0.26241556929E+02  0.40586853026E+02  0.00000000000E+00 0. -1.
</event>
<event>
 7    1  0.2688177E-009  0.1511146E+03  0.7561462E-02  0.1199110E+00
         -3   -1    0    0    0  501 -0.00000000000E+00  0.00000000000E+00  0.11378508344E+03  0.11378508344E+03  0.00000000000E+00 0.  1.
          3   -1    0    0  501    0  0.00000000000E+00 -0.00000000000E+00 -0.25133696055E+03  0.25133696055E+03  0.00000000000E+00 0. -1.
         25    2    1    2    0    0  0.67651054060E+02 -0.91394190754E+02 -0.13880955942E+03  0.21873521304E+03  0.12508971347E+03 0.  0.
          5    1    3    3  502    0 -0.33832685530E+01 -0.86139298661E+02 -0.35821600254E+02  0.93445624428E+02  0.41800000000E+01 0. -1.
         -5    1    3    3    0  502  0.71034322613E+02 -0.52548920928E+01 -0.10298795917E+03  0.12528958861E+03  0.41800000000E+01 0. -1.
        -11    1    1    2    0    0 -0.29408335512E+02  0.10095530581E+03  0.11160927501E+02  0.10574209318E+03  0.00000000000E+00 0.  1.
         11    1    1    2    0    0 -0.38242718548E+02 -0.95611150546E+01 -0.99032451888E+01  0.40644737769E+02  0.00000000000E+00 0. -1.
</event>
<event>
 7    1  0.2688177E-009  0.1095112E+03  0.7561462E-02  0.1261478E+00
         -2   -1    0    0    0  501 -0.00000000000E+00  0.00000000000E+00  0.31598462972E+02  0.31598462972E+02  0.00000000000E+00 0.  1.
          2   -1    0    0  501    0  0.00000000000E+00 -0.00000000000E+00 -0.50426115762E+03  0.50426115762E+03  0.00000000000E+00 0. -1.
         25    2    1    2    0    0  0.84124327017E+01  0.48148387101E+02 -0.17498335516E+03  0.22058037306E+03  0.12508992842E+03 0.  0.
          5    1    3    3  502    0  0.47932995286E+02  0.72701522133E+02 -0.10561496554E+03  0.13694917562E+03  0.41800000000E+01 0.  1.
         -5    1    3    3    0  502 -0.39520562584E+02 -0.24553135033E+02 -0.69368389618E+02  0.83631197439E+02  0.41800000000E+01 0.  1.
        -11    1    1    2    0    0 -0.37589117899E+02 -0.39877067680E+02 -0.26536028978E+03  0.27095978614E+03  0.00000000000E+00 0. -1.
         11    1    1    2    0    0  0.29176685197E+02 -0.82713194211E+01 -0.32319049707E+02  0.44319461391E+02  0.00000000000E+00 0.  1.
</event>
<event>
 7    1  0.2688177E-009  0.1885104E+03  0.7561462E-02  0.1159812E+00
         -2   -1    0    0    0  501 -0.00000000000E+00  0.00000000000E+00  0.42881714870E+02  0.42881714870E+02  0.00000000000E+00 0.  1.
          2   -1    0    0  501    0  0.00000000000E+00 -0.00000000000E+00 -0.10729720472E+04  0.10729720472E+04  0.00000000000E+00 0. -1.
         25    2    1    2    0    0  0.63964806161E+02 -0.17358325375E+03 -0.43261488131E+03  0.48685295369E+03  0.12509004988E+03 0.  0.
          5    1    3    3  502    0  0.49708698267E+02 -0.98592378746E+02 -0.11230997282E+03  0.15755130664E+03  0.41800000000E+01 0. -1.
         -5    1    3    3    0  502  0.14256107894E+02 -0.74990875003E+02 -0.32030490849E+03  0.32930164705E+03  0.41800000000E+01 0. -1.
        -11    1    1    2    0    0 -0.42593056744E+02  0.54892314164E+02 -0.30142408949E+03  0.30932800773E+03  0.00000000000E+00 0. -1.
         11    1    1    2    0    0 -0.21371749418E+02  0.11869093958E+03 -0.29605136149E+03  0.31967280062E+03  0.00000000000E+00 0.  1.
</event>
<event>
 7    1  0.2688177E-009  0.1901138E+03  0.7561462E-02  0.1158359E+00
         -2   -1    0    0    0  501 -0.00000000000E+00  0.00000000000E+00  0.23474337926E+02  0.23474337926E+02  0.00000000000E+00 0.  1.
          2   -1    0    0  501    0  0.00000000000E+00 -0.00000000000E+00 -0.18152781227E+04  0.18152781227E+04  0.00000000000E+00 0. -1.
         25    2    1    2    0    0  0.99181488752E+02  0.14382332157E+03 -0.84470636214E+03  0.87161237751E+03  0.12512866521E+03 0.  0.
          5    1    3    3  502    0  0.62309457819E+01  0.61747823712E+02 -0.10884563394E+03  0.12536531756E+03  0.41800000000E+01 0.  1.
         -5    1    3    3    0  502  0.92950542970E+02  0.82075497854E+02 -0.73586072820E+03  0.74624705996E+03  0.41800000000E+01 0.  1.
        -11    1    1    2    0    0 -0.32219470060E+02  0.32219265489E+01 -0.11351133570E+03  0.11803939340E+03  0.00000000000E+00 0. -1.
         11    1    1    2    0    0 -0.66962018691E+02 -0.14704524811E+03 -0.83358608691E+03  0.84910068969E+03  0.00000000000E+00 0.  1.
</event>
<event>
 7    1  0.2688177E-009  0.1214027E+03  0.7561462E-02  0.1240801E+00
          1   -1    0    0  501    0  0.00000000000E+00  0.00000000000E+00  0.51716863811E+03  0.51716863811E+03  0.00000000000E+00 0. -1.
         -1   -1    0    0    0  501 -0.00000000000E+00 -0.00000000000E+00 -0.11617443705E+03  0.11617443705E+03  0.00000000000E+00 0.  1.
         25    2    1    2    0    0 -0.95349719497E+01 -0.10695316762E+03 -0.40924222483E+02  0.16987433732E+03  0.12511036224E+03 0.  0.
          5    1    3    3  502    0 -0.10734302311E+02 -0.10097364834E+03  0.24086990310E+02  0.10444404439E+03  0.41800000000E+01 0. -1.
         -5    1    3    3    0  502  0.11993303613E+01 -0.59795192785E+01 -0.65011212793E+02  0.65430292930E+02  0.41800000000E+01 0. -1.
        -11    1    1    2    0    0 -0.31918944752E+02  0.74785487028E+02  0.32985787034E+03  0.33973210435E+03  0.00000000000E+00 0.  1.
         11    1    1    2    0    0  0.41453916701E+02  0.32167680593E+02  0.11206055320E+03  0.12373663349E+03  0.00000000000E+00 0. -1.
</event>
<event>
 7    1  0.2688177E-009  0.1705116E+03  0.7561462E-02  0.1177315E+00
          2   -1    0    0  501    0  0.00000000000E+00  0.00000000000E+00  0.21931503595E+03  0.21931503595E+03  0.00000000000E+00 0. -1.
         -2   -1    0    0    0  501 -0.00000000000E+00 -0.00000000000E+00 -0.13688741318E+03  0.13688741318E+03  0.00000000000E+00 0.  1.
         25    2    1    2    0    0 -0.10655722777E+03  0.80305747627E+02  0.66471244084E+02  0.19460042803E+03  0.12508974541E+03 0.  0.
          5    1    3    3  502    0 -0.13416045536E+03  0.59625239090E+02  0.44391993234E+02  0.15343506243E+03  0.41800000000E+01 0. -1.
         -5    1    3    3    0  502  0.27603227591E+02  0.20680508538E+02  0.22079250851E+02  0.41165365600E+02  0.41800000000E+01 0. -1.
        -11    1    1    2    0    0  0.11648396841E+03 -0.48656886407E+02  0.38627886730E+01  0.12629698582E+03  0.00000000000E+00 0. -1.
         11    1    1    2    0    0 -0.99267406357E+01 -0.31648861221E+02  0.12093590016E+02  0.35305035274E+02  0.00000000000E+00 0.  1.
</event>
<event>
 7    1  0.2688177E-009  0.1143588E+03  0.7561462E-02  0.1252705E+00
         -2   -1    0    0    0  501 -0.00000000000E+00  0.00000000000E+00  0.17912909629E+03  0.17912909629E+03  0.00000000000E+00 0. -1.
          2   -1    0    0  501    0  0.00000000000E+00 -0.00000000000E+00 -0.74660012534E+02  0.74660012534E+02  0.00000000000E+00 0.  1.
         25    2    1    2    0    0 -0.17213345593E+02  0.32285894480E+02  0.76673135104E+02  0.15121447373E+03  0.12509344175E+03 0.  0.
          5    1    3    3  502    0 -0.42501091487E+02 -0.36753939197E+02  0.27803392409E+02  0.62830691971E+02  0.41800000000E+01 0.  1.
         -5    1    3    3    0  502  0.25287745894E+02  0.69039833677E+02  0.48869742695E+02  0.88383781757E+02  0.41800000000E+01 0.  1.
        -11    1    1    2    0    0 -0.52161982853E+01  0.31078025205E+02  0.94580191927E+01  0.32901466566E+02  0.00000000000E+00 0.  1.
         11    1    1    2    0    0  0.22429543878E+02 -0.63363919684E+02  0.18337929462E+02  0.69673168532E+02  0.00000000000E+00 0. -1.
</event>
<event>
 7    1  0.2688177E-009  0.2587228E+03  0.7561462E-02  0.1107913E+00
          1   -1    0    0  501    0  0.00000000000E+00  0.00000000000E+00  0.13178661703E+04  0.13178661703E+04  0.00000000000E+00 0. -1.
         -1   -1    0    0    0  501 -0.00000000000E+00 -0.00000000000E+00 -0.58198327137E+02  0.58198327137E+02  0.00000000000E+00 0.  1.
         25    2    1    2    0    0 -0.18634283065E+03 -0.17261418557E+03  0.60391020190E+03  0.66698874706E+03  0.12508856524E+03 0.  0.
          5    1    3    3  502    0 -0.53489584657E+02 -0.15062962910E+02  0.46143364016E+02  0.72351302415E+02  0.41800000000E+01 0. -1.
         -5    1    3    3    0  502 -0.13285324599E+03 -0.15755122266E+03  0.55776683788E+03  0.59463744464E+03  0.41800000000E+01 0. -1.
        -11    1    1    2    0    0  0.10649713208E+03  0.11742416937E+03  0.28823764830E+03  0.32895442936E+03  0.00000000000E+00 0.  1.
         11    1    1    2    0    0  0.79845698570E+02  0.55190016195E+02  0.36751999292E+03  0.38012132098E+03  0.00000000000E+00 0. -1.
</event>
<event>
 7    1  0.2688177E-009  0.1312851E+03  0.7561462E-02  0.1225561E+00
         -2   -1    0    0    0  501 -0.00000000000E+00  0.00000000000E+00  0.11205697012E+03  0.11205697012E+03  0.00000000000E+00 0. -1.
          2   -1    0    0  501    0  0.00000000000E+00 -0.00000000000E+00 -0.36782458845E+03  0.36782458845E+03  0.00000000000E+00 0.  1.
         25    2    1    2    0    0 -0.20337634061E+02 -0.10916363409E+03  0.21017948093E+02  0.16857984969E+03  0.12508834164E+03 0.  0.
          5    1    3    3  502    0 -0.13666215052E+02  0.43284111326E+00 -0.40291909297E+02  0.42753516114E+02  0.41800000000E+01 0.  1.
         -5    1    3    3    0  502 -0.66714190090E+01 -0.10959647520E+03  0.61309857390E+02  0.12582633358E+03  0.41800000000E+01 0.  1.
        -11    1    1    2    0    0  0.70394474909E+01 -0.13386249367E+02 -0.60426833520E+02  0.62290831607E+02  0.00000000000E+00 0.  1.
         11    1    1    2    0    0  0.13298186570E+02  0.12254988345E+03 -0.21635873290E+03  0.24901087728E+03  0.00000000000E+00 0. -1.
</event>
<event>
 7    1  0.2688177E-009  0.3739105E+03  0.7561462E-02  0.1053208E+00
          2   -1    0    0  501    0  0.00000000000E+00  0.00000000000E+00  0.30271347011E+03  0.30271347011E+03  0.00000000000E+00 0. -1.
         -2   -1    0    0    0  501 -0.00000000000E+00 -0.00000000000E+00 -0.48609883590E+03  0.48609883590E+03  0.00000000000E+00 0.  1.
         25    2    1    2    0    0  0.15957990071E+03  0.32993107498E+03 -0.64884588469E+02  0.39265397544E+03  0.12508747204E+03 0.  0.
          5    1    3    3  502    0  0.88050558181E+01  0.75287180179E+02  0.30333316924E+02  0.81751275360E+02  0.41800000000E+01 0. -1.
         -5    1    3    3    0  502  0.15077484489E+03  0.25464389480E+03 -0.95217905392E+02  0.31090270008E+03  0.41800000000E+01 0. -1.
        -11    1    1    2    0    0 -0.15448777831E+03 -0.23720743393E+03 -0.10682110093E+03  0.30256336190E+03  0.00000000000E+00 0.  1.
         11    1    1    2    0    0 -0.50921223998E+01 -0.92723641049E+02 -0.11679676392E+02  0.93594968671E+02  0.00000000000E+00 0. -1.
</event>
<event>
 7    1  0.2688177E-009  0.1027598E+03  0.7561462E-02  0.1274597E+00
         -2   -1    0    0    0  501 -0.00000000000E+00  0.00000000000E+00  0.47767133710E+02  0.47767133710E+02  0.00000000000E+00 0.  1.
          2   -1    0    0  501    0  0.00000000000E+00 -0.00000000000E+00 -0.42581182631E+03  0.42581182631E+03  0.00000000000E+00 0. -1.
         25    2    1    2    0    0 -0.47713601600E+02  0.23653959769E+02 -0.31630932209E+03  0.34428832815E+03  0.12508704197E+03 0.  0.
          5    1    3    3  502    0  0.25129072243E+02  0.27002951107E+02 -0.27004091625E+02  0.45905587947E+02  0.41800000000E+01 0.  1.
         -5    1    3    3    0  502 -0.72842673843E+02 -0.33489913374E+01 -0.28930523046E+03  0.29838274020E+03  0.41800000000E+01 0.  1.
        -11    1    1    2    0    0 -0.98586130132E+01 -0.35272787040E+02  0.86369104028E+01  0.37629217071E+02  0.00000000000E+00 0.  1.
         11    1    1    2    0    0  0.57572214613E+02  0.11618827270E+02 -0.70372280917E+02  0.91661414805E+02  0.00000000000E+00 0. -1.
</event>
<event>
 7    1  0.2688177E-009  0.2107466E+03  0.7561462E-02  0.1140976E+00
         -1   -1    0    0    0  501 -0.00000000000E+00  0.00000000000E+00  0.25767343830E+03  0.25767343830E+03  0.00000000000E+00 0.  1.
          1   -1    0    0  501    0  0.00000000000E+00 -0.00000000000E+00 -0.22353117775E+03  0.22353117775E+03  0.00000000000E+00 0. -1.
         25    2    1    2    0    0  0.41168801344E+02 -0.20219392295E+03 -0.33904036382E+02  0.24366876490E+03  0.12509088945E+03 0.  0.
          5    1    3    3  502    0  0.24276040815E+02 -0.49537378068E+02 -0.66601977850E+02  0.86582757157E+02  0.41800000000E+01 0. -1.
         -5    1    3    3    0  502  0.16892760530E+02 -0.15265654488E+03  0.32697941467E+02  0.15708600774E+03  0.41800000000E+01 0. -1.
        -11    1    1    2    0    0 -0.41697734712E+02  0.79002107683E+02  0.71305060873E+02  0.11429980667E+03  0.00000000000E+00 0.  1.
         11    1    1    2    0    0  0.52893336727E+00  0.12319181526E+03 -0.32587639422E+01  0.12323604449E+03  0.00000000000E+00 0. -1.
</event>
<event>
 7    1  0.2688177E-009  0.1099002E+03  0.7561462E-02  0.1260755E+00
         -2   -1    0    0    0  501 -0.00000000000E+00  0.00000000000E+00  0.22395629168E+03  0.22395629168E+03  0.00000000000E+00 0.  1.
          2   -1    0    0  501    0  0.00000000000E+00 -0.00000000000E+00 -0.86226224811E+02  0.86226224811E+02  0.00000000000E+00 0. -1.
         25    2    1    2    0    0  0.47823039918E+02  0.64926158881E+02  0.11044196983E+03  0.18533142576E+03  0.12509140427E+03 0.  0.
          5    1    3    3  502    0  0.46222444591E+02 -0.76146718347E+01  0.10180177696E+03  0.11214085698E+03  0.41800000000E+01 0. -1.
         -5    1    3    3    0  502  0.16005953264E+01  0.72540830715E+02  0.86401928684E+01  0.73190568785E+02  0.41800000000E+01 0. -1.
        -11    1    1    2    0    0 -0.28152283558E+02  0.39789948515E+01 -0.23609561947E+02  0.36956662253E+02  0.00000000000E+00 0. -1.
         11    1    1    2    0    0 -0.19670756359E+02 -0.68905153732E+02  0.50897658984E+02  0.87894428473E+02  0.00000000000E+00 0.  1.
</event>
<event>
 6    1  0.2688177E-009  0.1076203E+03  0.7561462E-02  0.1265041E+00
         -1   -1    0    0    0  501 -0.00000000000E+00  0.00000000000E+00  0.14365212303E+03  0.14365212303E+03  0.00000000000E+00 0.  1.
          1   -1    0    0  501    0  0.00000000000E+00 -0.00000000000E+00 -0.94565787497E+02  0.94565787497E+02  0.00000000000E+00 0. -1.
          5    1    1    2  502    0 -0.61937391952E+02  0.21117273111E+02  0.37327046632E+01  0.65677889960E+02  0.41800000000E+01 0. -1.
         -5    1    1    2    0  502  0.58741675754E+02 -0.97483004698E+01 -0.15925551225E+02  0.61779522613E+02  0.41800000000E+01 0. -1.
        -11    1    1    2    0    0 -0.17911015360E+02  0.34840974723E+02  0.39031143352E+02  0.55300344865E+02  0.00000000000E+00 0.  1.
         11    1    1    2    0    0  0.21106731558E+02 -0.46209947364E+02  0.22248038739E+02  0.55460153085E+02  0.00000000000E+00 0. -1.
</event>
<event>
 7    1  0.2688177E-009  0.1677764E+03  0.7561462E-02  0.1180187E+00
         -1   -1    0    0    0  501 -0.00000000000E+00  0.00000000000E+00  0.10091500358E+04  0.10091500358E+04  0.00000000000E+00 0.  1.
          1   -1    0    0  501    0  0.00000000000E+00 -0.00000000000E+00 -0.31584321668E+02  0.31584321668E+02  0.00000000000E+00 0. -1.
         25    2    1    2    0    0 -0.19157299744E+02 -0.13293512813E+03  0.38361839204E+03  0.42526413561E+03  0.12509102245E+03 0.  0.
          5    1    3    3  502    0  0.45017165572E+02 -0.10175053412E+03  0.25172548794E+03  0.27525063137E+03  0.41800000000E+01 0.  1.
         -5    1    3    3    0  502 -0.64174465316E+02 -0.31184594010E+02  0.13189290410E+03  0.15001350424E+03  0.41800000000E+01 0.  1.
        -11    1    1    2    0    0 -0.27058823933E+02  0.33315415496E+02  0.90187700811E+02  0.99879518620E+02  0.00000000000E+00 0. -1.
         11    1    1    2    0    0  0.46216123677E+02  0.99619712638E+02  0.50375962130E+03  0.51559070325E+03  0.00000000000E+00 0.  1.
</event>
<event>
 7    1  0.2688177E-009  0.1237334E+03  0.7561462E-02  0.1237062E+00
         -1   -1    0    0    0  501 -0.00000000000E+00  0.00000000000E+00  0.52745334220E+02  0.52745334220E+02  0.00000000000E+00 0.  1.
          1   -1    0    0  501    0  0.00000000000E+00 -0.00000000000E+00 -0.45628149308E+03  0.45628149308E+03  0.00000000000E+00 0. -1.
         25    2    1    2    0    0  0.39964203946E+02 -0.54929298646E+02 -0.73389302394E+02  0.16015653395E+03  0.12509900165E+03 0.  0.
          5    1    3    3  502    0  0.65568774381E+02  0.10581787389E+02 -0.57447962376E+02  0.87914613002E+02  0.41800000000E+01 0. -1.
         -5    1    3    3    0  502 -0.25604570434E+02 -0.65511086035E+02 -0.15941340017E+02  0.72241920947E+02  0.41800000000E+01 0. -1.
        -11    1    1    2    0    0  0.26754260900E+02  0.27360256559E+02 -0.83013956111E+02  0.91409469009E+02  0.00000000000E+00 0.  1.
         11    1    1    2    0    0 -0.66718464846E+02  0.27569042087E+02 -0.24713290036E+03  0.25746082434E+03  0.00000000000E+00 0. -1.
</event>
<event>
 7    1  0.2688177E-009  0.1515812E+03  0.7561462E-02  0.1198543E+00
         -2   -1    0    0    0  501 -0.00000000000E+00  0.00000000000E+00  0.13979590400E+03  0.13979590400E+03  0.00000000000E+00 0.  1.
          2   -1    0    0  501    0  0.00000000000E+00 -0.00000000000E+00 -0.21238577082E+03  0.21238577082E+03  0.00000000000E+00 0. -1.
         25    2    1    2    0    0  0.84694781975E+02  0.10033816023E+03 -0.59757378073E+02  0.19094503591E+03  0.12509240589E+03 0.  0.
          5    1    3    3  502    0 -0.17759435673E+02  0.19881778882E+02  0.23919762388E+02  0.36059813084E+02  0.41800000000E+01 0. -1.
         -5    1    3    3    0  502  0.10245421765E+03  0.80456381348E+02 -0.83677140461E+02  0.15488522282E+03  0.41800000000E+01 0. -1.
        -11    1    1    2    0    0 -0.66030959778E+01  0.91953799135E+01  0.19805743667E+02  0.22812789625E+02  0.00000000000E+00 0.  1.
         11    1    1    2    0    0 -0.78091685997E+02 -0.10953354014E+03 -0.32638232416E+02  0.13842384929E+03  0.00000000000E+00 0. -1.
</event>
<event>
 7    1  0.2688177E-009  0.1001932E+03  0.7561462E-02  0.1279890E+00
         -2   -1    0    0    0  501 -0.00000000000E+00  0.00000000000E+00  0.89520815160E+02  0.89520815160E+02  0.00000000000E+00 0. -1.
          2   -1    0    0  501    0  0.00000000000E+00 -0.00000000000E+00 -0.25303997716E+03  0.25303997716E+03  0.00000000000E+00 0.  1.
         25    2    1    2    0    0 -0.46678605985E+02 -0.29809595331E+02 -0.18890325213E+03  0.23323673173E+03  0.12508968836E+03 0.  0.
          5    1    3    3  502    0  0.20204619822E+01  0.31358355110E+02 -0.33948586895E+01  0.31881439230E+02  0.41800000000E+01 0. -1.
         -5    1    3    3    0  502 -0.48699067967E+02 -0.61167950442E+02 -0.18550839344E+03  0.20135529250E+03  0.41800000000E+01 0. -1.
        -11    1    1    2    0    0  0.65492280976E+02  0.17113533795E+02 -0.88314653793E+01  0.68264974088E+02  0.00000000000E+00 0.  1.
         11    1    1    2    0    0 -0.18813674992E+02  0.12696061537E+02  0.34215555510E+02  0.41059086499E+02  0.00000000000E+00 0. -1.
</event>
<event>
 7    1  0.2688177E-009  0.1698097E+03  0.7561462E-02  0.1178046E+00
         -1   -1    0    0    0  501 -0.00000000000E+00  0.00000000000E+00  0.20237547341E+02  0.20237547341E+02  0.00000000000E+00 0.  1.
          1   -1    0    0  501    0  0.00000000000E+00 -0.00000000000E+00 -0.18847190322E+04  0.18847190322E+04  0.00000000000E+00 0. -1.
         25    2    1    2    0    0 -0.12267585805E+03  0.95826989133E+02 -0.11811711357E+04  0.11979333293E+04  0.12508729617E+03 0.  0.
          5    1    3    3  502    0 -0.75635625705E+02  0.10364016089E+03 -0.54294546756E+03  0.55791512255E+03  0.41800000000E+01 0. -1.
         -5    1    3    3    0  502 -0.47040232350E+02 -0.78131717558E+01 -0.63822566813E+03  0.64001820675E+03  0.41800000000E+01 0. -1.
        -11    1    1    2    0    0  0.22984940300E+02  0.27885862968E+01 -0.25543327520E+02  0.34475284987E+02  0.00000000000E+00 0.  1.
         11    1    1    2    0    0  0.99690917754E+02 -0.98615575429E+02 -0.65776702167E+03  0.67254796528E+03  0.00000000000E+00 0. -1.
</event>
<event>
 7    1  0.2688177E-009  0.7850967E+02  0.7561462E-02  0.1333335E+00
         -2   -1    0    0    0  501 -0.00000000000E+00  0.00000000000E+00  0.16804925778E+02  0.16804925778E+02  0.00000000000E+00 0.  1.
          2   -1    0    0  501    0  0.00000000000E+00 -0.00000000000E+00 -0.78303925911E+03  0.78303925911E+03  0.00000000000E+00 0. -1.
         25    2    1    2    0    0  0.10675634178E+02 -0.17596202492E+02 -0.48149498992E+03  0.49790478389E+03  0.12509257768E+03 0.  0.
          5    1    3    3  502    0  0.33808347326E+02 -0.26030975478E+02 -0.46713029248E+03  0.46909359256E+03  0.41800000000E+01 0.  1.
         -5    1    3    3    0  502 -0.23132713149E+02  0.84347729854E+01 -0.14364697445E+02  0.28811191326E+02  0.41800000000E+01 0.  1.
        -11    1    1    2    0    0 -0.48859616134E+02  0.13960481359E+02 -0.89067368648E+02  0.10254342147E+03  0.00000000000E+00 0.  1.
         11    1    1    2    0    0  0.38183981956E+02  0.36357211331E+01 -0.19567197476E+03  0.19939597953E+03  0.00000000000E+00 0. -1.
</event>
<event>
 7    1  0.2688177E-009  0.1117971E+03  0.7561462E-02  0.1257278E+00
         -2   -1    0    0    0  501 -0.00000000000E+00  0.00000000000E+00  0.30558245659E+03  0.30558245659E+03  0.00000000000E+00 0.  1.
          2   -1    0    0  501    0  0.00000000000E+00 -0.00000000000E+00 -0.50488075736E+02  0.50488075736E+02  0.00000000000E+00 0. -1.
         25    2    1    2    0    0  0.18252791775E+02 -0.15604446418E+02  0.21420820193E+03  0.24921790453E+03  0.12509095494E+03 0.  0.
          5    1    3    3  502    0 -0.45888064057E+02 -0.35898603367E+02  0.11902293935E+03  0.13258339503E+03  0.41800000000E+01 0. -1.
         -5    1    3    3    0  502  0.64140855831E+02  0.20294156949E+02  0.95185262573E+02  0.11663450949E+03  0.41800000000E+01 0. -1.
        -11    1    1    2    0    0  0.81824411888E+01 -0.37540373091E+02  0.89516004111E+01  0.39450768123E+02  0.00000000000E+00 0. -1.
         11    1    1    2    0    0 -0.26435232963E+02  0.53144819509E+02  0.31934578511E+02  0.67401859672E+02  0.00000000000E+00 0.  1.
</event>
<event>
 7    1  0.2688177E-009  0.1162161E+03  0.7561462E-02  0.1249473E+00
          2   -1    0    0  501    0  0.00000000000E+00  0.00000000000E+00  0.47010918578E+03  0.47010918578E+03  0.00000000000E+00 0. -1.
         -2   -1    0    0    0  501 -0.00000000000E+00 -0.00000000000E+00 -0.39113022146E+02  0.39113022146E+02  0.00000000000E+00 0.  1.
         25    2    1    2    0    0 -0.25708604963E+02  0.76134510574E+02  0.17155781013E+03  0.22701589075E+03  0.12508691524E+03 0.  0.
          5    1    3    3  502    0 -0.74004983831E+02  0.64073756772E+02  0.12406712480E+03  0.15808955625E+03  0.41800000000E+01 0. -1.
         -5    1    3    3    0  502  0.48296378867E+02  0.12060753802E+02  0.47490685327E+02  0.68926334494E+02  0.41800000000E+01 0. -1.
        -11    1    1    2    0    0  0.16919630142E+02 -0.14622223142E+02  0.88850089298E+01  0.24062973163E+02  0.00000000000E+00 0.  1.
         11    1    1    2    0    0  0.87889748210E+01 -0.61512287432E+02  0.25055334457E+03  0.25814334402E+03  0.00000000000E+00 0. -1.
</event>
<event>
 7    1  0.2688177E-009  0.9731054E+02  0.7561462E-02  0.1286055E+00
         -1   -1    0    0    0  501 -0.00000000000E+00  0.00000000000E+00  0.30390527770E+03  0.30390527770E+03  0.00000000000E+00 0.  1.
          1   -1    0    0  501    0  0.00000000000E+00 -0.00000000000E+00 -0.52325844971E+02  0.52325844971E+02  0.00000000000E+00 0. -1.
         25    2    1    2    0    0 -0.14391232564E+02  0.60182437486E+02  0.12791013785E+03  0.18930300841E+03  0.12508234197E+03 0.  0.
          5    1    3    3  502    0 -0.95923903505E+01 -0.23803235453E+02 -0.98749802654E+01  0.27813586714E+02  0.41800000000E+01 0. -1.
         -5    1    3    3    0  502 -0.47988422140E+01  0.83985672938E+02  0.13778511811E+03  0.16148942170E+03  0.41800000000E+01 0. -1.
        -11    1    1    2    0    0  0.36244501727E+02 -0.29547047828E+02  0.12039201388E+03  0.12915467063E+03  0.00000000000E+00 0.  1.
         11    1    1    2    0    0 -0.21853269163E+02 -0.30635389658E+02  0.32772809985E+01  0.37773443626E+02  0.00000000000E+00 0. -1.
</event>
<event>
 7    1  0.2688177E-009  0.1016751E+03  0.7561462E-02  0.1276812E+00
          2   -1    0    0  501    0  0.00000000000E+00  0.00000000000E+00  0.40261599673E+03  0.40261599673E+03  0.00000000000E+00 0. -1.
         -2   -1    0    0    0  501 -0.00000000000E+00 -0.00000000000E+00 -0.30538061393E+02  0.30538061393E+02  0.00000000000E+00 0.  1.
         25    2    1    2    0    0  0.12407467065E+02  0.23550824032E+02  0.21434157934E+03  0.24959676322E+03  0.12509054729E+03 0.  0.
          5    1    3    3  502    0 -0.55010057304E+02 -0.19618124112E+01  0.10372315434E+03  0.11749859684E+03  0.41800000000E+01 0.  1.
         -5    1    3    3    0  502  0.67417524369E+02  0.25512636443E+02  0.11061842501E+03  0.13209816638E+03  0.41800000000E+01 0.  1.
        -11    1    1    2    0    0  0.21320554433E+02  0.13970412942E+02  0.11391225995E+03  0.11672935126E+03  0.00000000000E+00 0. -1.
         11    1    1    2    0    0 -0.33728021498E+02 -0.37521236974E+02  0.43824096050E+02  0.66827943653E+02  0.00000000000E+00 0.  1.
</event>
<event>
 7    1  0.2688177E-009  0.7401030E+02  0.7561462E-02  0.1346963E+00
         -2   -1    0    0    0  501 -0.00000000000E+00  0.00000000000E+00  0.23581178744E+03  0.23581178744E+03  0.00000000000E+00 0.  1.
          2   -1    0    0  501    0  0.00000000000E+00 -0.00000000000E+00 -0.96807909612E+02  0.96807909612E+02  0.00000000000E+00 0. -1.
         25    2    1    2    0    0 -0.73947141313E+01  0.65407525705E+01  0.19028969700E+03  0.22793795197E+03  0.12509227763E+03 0.  0.
          5    1    3    3  502    0 -0.79784127642E+01 -0.25410786243E+02  0.19366507311E+03  0.19553259593E+03  0.41800000000E+01 0.  1.
         -5    1    3    3    0  502  0.58369863293E+00  0.31951538814E+02 -0.33753761051E+01  0.32405356047E+02  0.41800000000E+01 0.  1.
        -11    1    1    2    0    0  0.43286158563E+02 -0.23368380687E+02 -0.16331687006E+02  0.51831426177E+02  0.00000000000E+00 0.  1.
         11    1    1    2    0    0 -0.35891444432E+02  0.16827628116E+02 -0.34954132175E+02  0.52850318897E+02  0.00000000000E+00 0. -1.
</event>
<event>
 7    1  0.2688177E-009  0.1234619E+03  0.7561462E-02  0.1237493E+00
          4   -1    0    0  501    0  0.00000000000E+00  0.00000000000E+00  0.36368546428E+03  0.36368546428E+03  0.00000000000E+00 0. -1.
         -4   -1    0    0    0  501 -0.00000000000E+00 -0.00000000000E+00 -0.74006757139E+02  0.74006757139E+02  0.00000000000E+00 0.  1.
         25    2    1    2    0    0 -0.83198291236E+02  0.36652702162E+02  0.26903248719E+03  0.31032239850E+03  0.12512448045E+03 0.  0.
          5    1    3    3  502    0 -0.86015183599E+02 -0.24428214426E+02  0.12456939120E+03  0.15339607261E+03  0.41800000000E+01 0.  1.
         -5    1    3    3    0  502  0.28168923631E+01  0.61080916588E+02  0.14446309599E+03  0.15692632589E+03  0.41800000000E+01 0.  1.
        -11    1    1    2    0    0  0.59070428740E+02 -0.95551411954E+01  0.52107751529E+02  0.79346291937E+02  0.00000000000E+00 0. -1.
         11    1    1    2    0    0  0.24127862496E+02 -0.27097560966E+02 -0.31461531575E+02  0.48023530982E+02  0.00000000000E+00 0.  1.
</event>
<event>
 7    1  0.2688177E-009  0.1082553E+03  0.7561462E-02  0.1263835E+00
          3   -1    0    0  501    0  0.00000000000E+00  0.00000000000E+00  0.77111164860E+03  0.77111164860E+03  0.00000000000E+00 0. -1.
         -3   -1    0    0    0  501 -0.00000000000E+00 -0.00000000000E+00 -0.18685850049E+02  0.18685850049E+02  0.00000000000E+00 0.  1.
         25    2    1    2    0    0  0.22284466720E+02  0.11771675335E+02  0.57147052155E+03  0.58554088549E+03  0.12507758306E+03 0.  0.
          5    1    3    3  502    0 -0.49345115579E+02  0.13867430701E+01  0.15253604392E+03  0.16037948928E+03  0.41800000000E+01 0. -1.
         -5    1    3    3    0  502  0.71629582298E+02  0.10384932265E+02  0.41893447763E+03  0.42516139621E+03  0.41800000000E+01 0. -1.
        -11    1    1    2    0    0  0.29606645336E+02 -0.27334594627E+02  0.84900877540E+02  0.93978149154E+02  0.00000000000E+00 0. -1.
         11    1    1    2    0    0 -0.51891112056E+02  0.15562919292E+02  0.96054399455E+02  0.11027846400E+03  0.00000000000E+00 0.  1.
</event>
<event>
 7    1  0.2688177E-009  0.1225231E+03  0.7561462E-02  0.1238992E+00
         -4   -1    0    0    0  501 -0.00000000000E+00  0.00000000000E+00  0.11526416335E+04  0.11526416335E+04  0.00000000000E+00 0.  1.
          4   -1    0    0  501    0  0.00000000000E+00 -0.00000000000E+00 -0.16418538296E+02  0.16418538296E+02  0.00000000000E+00 0. -1.
         25    2    1    2    0    0  0.63465370024E+02 -0.54651812716E+02  0.64939173194E+03  0.66661165740E+03  0.12508719535E+03 0.  0.
          5    1    3    3  502    0 -0.11124103735E+02 -0.48532595266E+02  0.46336615928E+03  0.46605238810E+03  0.41800000000E+01 0. -1.
         -5    1    3    3    0  502  0.74589473760E+02 -0.61192174497E+01  0.18602557266E+03  0.20055926930E+03  0.41800000000E+01 0. -1.
        -11    1    1    2    0    0  0.12757766436E+02  0.40675611666E+02  0.11546840931E+03  0.12308622806E+03  0.00000000000E+00 0.  1.
         11    1    1    2    0    0 -0.76223136460E+02  0.13976201049E+02  0.37136295391E+03  0.37936228629E+03  0.00000000000E+00 0. -1.
</event>
<event>
 7    1  0.2688177E-009  0.1277262E+03  0.7561462E-02  0.1230869E+00
          1   -1    0    0  501    0  0.00000000000E+00  0.00000000000E+00  0.37662676372E+03  0.37662676372E+03  0.00000000000E+00 0. -1.
         -1   -1    0    0    0  501 -0.00000000000E+00 -0.00000000000E+00 -0.58629534531E+02  0.58629534531E+02  0.00000000000E+00 0.  1.
         25    2    1    2    0    0 -0.61591183116E+02  0.81554375999E+02  0.21069738988E+03  0.26549103381E+03  0.12509000299E+03 0.  0.
          5    1    3    3  502    0 -0.73603732122E+01 -0.24549156384E+02  0.31834348973E+01  0.26161858320E+02  0.41800000000E+01 0. -1.
         -5    1    3    3    0  502 -0.54230809904E+02  0.10610353238E+03  0.20751395499E+03  0.23932917549E+03  0.41800000000E+01 0. -1.
        -11    1    1    2    0    0  0.50117758723E+02 -0.84645436097E+02  0.48313427009E+02  0.10959391781E+03  0.00000000000E+00 0.  1.
         11    1    1    2    0    0  0.11473424393E+02  0.30910600973E+01  0.58986412301E+02  0.60171346636E+02  0.00000000000E+00 0. -1.
</event>
<event>
 7    1  0.2688177E-009  0.9083494E+02  0.7561462E-02  0.1300842E+00
          1   -1    0    0  501    0  0.00000000000E+00  0.00000000000E+00  0.10836989123E+03  0.10836989123E+03  0.00000000000E+00 0. -1.
         -1   -1    0    0    0  501 -0.00000000000E+00 -0.00000000000E+00 -0.20135275051E+03  0.20135275051E+03  0.00000000000E+00 0.  1.
         25    2    1    2    0    0 -0.76778183004E+01  0.90606606155E+00  0.54775267446E+02  0.13677311713E+03  0.12508711283E+03 0.  0.
          5    1    3    3  502    0  0.92639223844E+01  0.54354726170E+02  0.58407200854E+02  0.80430902186E+02  0.41800000000E+01 0.  1.
         -5    1    3    3    0  502 -0.16941740685E+02 -0.53448660108E+02 -0.36319334078E+01  0.56342214946E+02  0.41800000000E+01 0.  1.
        -11    1    1    2    0    0  0.18214374673E+02 -0.32273327551E+02 -0.22410183875E+02  0.43307591220E+02  0.00000000000E+00 0. -1.
         11    1    1    2    0    0 -0.10536556373E+02  0.31367261489E+02 -0.12534794286E+03  0.12964193339E+03  0.00000000000E+00 0.  1.
</event>
<event>
 7    1  0.2688177E-009  0.1217306E+03  0.7561462E-02  0.1240269E+00
         -2   -1    0    0    0  501 -0.00000000000E+00  0.00000000000E+00  0.70706816424E+02  0.70706816424E+02  0.00000000000E+00 0.  1.
          2   -1    0    0  501    0  0.00000000000E+00 -0.00000000000E+00 -0.37151288276E+03  0.37151288276E+03  0.00000000000E+00 0. -1.
         25    2    1    2    0    0  0.10110058331E+03  0.42900214792E+02 -0.96497556859E+02  0.19240908682E+03  0.12509085432E+03 0.  0.
          5    1    3    3  502    0  0.21241037851E+02  0.17025287202E+02  0.29878079421E+02  0.40635134098E+02  0.41800000000E+01 0.  1.
         -5    1    3    3    0  502  0.79859545463E+02  0.25874927590E+02 -0.12637563628E+03  0.15177395272E+03  0.41800000000E+01 0.  1.
        -11    1    1    2    0    0 -0.19443089772E+02  0.20675148264E+02 -0.10798608146E+02  0.30366188986E+02  0.00000000000E+00 0.  1.
         11    1    1    2    0    0 -0.81657493542E+02 -0.63575363056E+02 -0.19350990133E+03  0.21944442338E+03  0.00000000000E+00 0. -1.
</event>
<event>
 7    1  0.2688177E-009  0.3548919E+03  0.7561462E-02  0.1060625E+00
          1   -1    0    0  501    0  0.00000000000E+00  0.00000000000E+00  0.10734654301E+04  0.10734654301E+04  0.00000000000E+00 0. -1.
         -1   -1    0    0    0  501 -0.00000000000E+00 -0.00000000000E+00 -0.13515630896E+03  0.13515630896E+03  0.00000000000E+00 0.  1.
         25    2    1    2    0    0  0.53008466139E+02  0.33711122686E+03  0.68155796664E+03  0.77241304491E+03  0.12508706287E+03 0.  0.
          5    1    3    3  502    0 -0.41103431611E+02  0.11194215724E+03  0.22996920946E+03  0.25908270563E+03  0.41800000000E+01 0.  1.
         -5    1    3    3    0  502  0.94111897750E+02  0.22516906963E+03  0.45158875718E+03  0.51333033928E+03  0.41800000000E+01 0.  1.
        -11    1    1    2    0    0 -0.55492078957E+02 -0.16181525280E+03  0.16777732989E+03  0.23960963939E+03  0.00000000000E+00 0. -1.
         11    1    1    2    0    0  0.24836128184E+01 -0.17529597407E+03  0.88973824568E+02  0.19659905472E+03  0.00000000000E+00 0.  1.
</event>
<event>
 7    1  0.2688177E-009  0.1268431E+03  0.7561462E-02  0.1232217E+00
          1   -1    0    0  501    0  0.00000000000E+00  0.00000000000E+00  0.42891973641E+02  0.42891973641E+02  0.00000000000E+00 0. -1.
         -1   -1    0    0    0  501 -0.00000000000E+00 -0.00000000000E+00 -0.43600482309E+03  0.43600482309E+03  0.00000000000E+00 0.  1.
         25    2    1    2    0    0  0.52847094794E+02 -0.65511638104E+02 -0.22228642648E+03  0.26860024914E+03  0.12510095237E+03 0.  0.
          5    1    3    3  502    0  0.60110104387E+02  0.81531091675E+01 -0.16202590805E+03  0.17305942655E+03  0.41800000000E+01 0. -1.
         -5    1    3    3    0  502 -0.72630095926E+01 -0.73664747271E+02 -0.60260518431E+02  0.95540822586E+02  0.41800000000E+01 0. -1.
        -11    1    1    2    0    0  0.16475148596E+02 -0.74656736747E+01 -0.49217046085E+02  0.52435526411E+02  0.00000000000E+00 0. -1.
         11    1    1    2    0    0 -0.69322243390E+02  0.72977311779E+02 -0.12160937688E+03  0.15786102118E+03  0.00000000000E+00 0.  1.
</event>
<event>
 7    1  0.2688177E-009  0.1865411E+03  0.7561462E-02  0.1161619E+00
          2   -1    0    0  501    0  0.00000000000E+00  0.00000000000E+00  0.50676959159E+03  0.50676959159E+03  0.00000000000E+00 0. -1.
         -2   -1    0    0    0  501 -0.00000000000E+00 -0.00000000000E+00 -0.91322204291E+02  0.91322204291E+02  0.00000000000E+00 0.  1.
         25    2    1    2    0    0 -0.13739252785E+03 -0.90883547862E+02  0.10488732019E+03  0.23191412369E+03  0.12508511042E+03 0.  0.
          5    1    3    3  502    0 -0.11573064803E+03 -0.12229967443E+03  0.86746510249E+02  0.18945506776E+03  0.41800000000E+01 0.  1.
         -5    1    3    3    0  502 -0.21661879823E+02  0.31416126563E+02  0.18140809939E+02  0.42459055935E+02  0.41800000000E+01 0.  1.
        -11    1    1    2    0    0  0.11422090366E+03  0.64591909446E+02  0.13931088854E+03  0.19137934388E+03  0.00000000000E+00 0.  1.
         11    1    1    2    0    0  0.23171624199E+02  0.26291638417E+02  0.17124917857E+03  0.17479832831E+03  0.00000000000E+00 0. -1.
</event>
<event>
 7    1  0.2688177E-009  0.1335946E+03  0.7561462E-02  0.1222217E+00
          1   -1    0    0  501    0  0.00000000000E+00  0.00000000000E+00  0.21881382817E+03  0.21881382817E+03  0.00000000000E+00 0. -1.
         -1   -1    0    0    0  501 -0.00000000000E+00 -0.00000000000E+00 -0.13218988038E+03  0.13218988038E+03  0.00000000000E+00 0.  1.
         25    2    1    2    0    0  0.91566635066E+01 -0.12276390216E+03  0.24220832817E+01  0.17552273203E+03  0.12509013874E+03 0.  0.
          5    1    3    3  502    0  0.10740744433E+02 -0.48030468096E+02 -0.60233958553E+02  0.77896672711E+02  0.41800000000E+01 0. -1.
         -5    1    3    3    0  502 -0.15840809265E+01 -0.74733434063E+02  0.62656041835E+02  0.97626059317E+02  0.41800000000E+01 0. -1.
        -11    1    1    2    0    0  0.15888429661E+02  0.11586655832E+03  0.38883994725E+02  0.12324555400E+03  0.00000000000E+00 0.  1.
         11    1    1    2    0    0 -0.25045093167E+02  0.68973438364E+01  0.45317869786E+02  0.52235422518E+02  0.00000000000E+00 0. -1.
</event>
<event>
 7    1  0.2688177E-009  0.1189452E+03  0.7561462E-02  0.1244847E+00
          4   -1    0    0  501    0  0.00000000000E+00  0.00000000000E+00  0.41674613435E+03  0.41674613435E+03  0.00000000000E+00 0. -1.
         -4   -1    0    0    0  501 -0.00000000000E+00 -0.00000000000E+00 -0.46255459825E+02  0.46255459825E+02  0.00000000000E+00 0.  1.
         25    2    1    2    0    0  0.30327871909E+02 -0.77007069688E+02  0.24110225531E+03  0.28394989588E+03  0.12508947700E+03 0.  0.
          5    1    3    3  502    0  0.60015937323E+02 -0.13382373397E+01  0.15089268316E+03  0.16244930853E+03  0.41800000000E+01 0. -1.
         -5    1    3    3    0  502 -0.29688065414E+02 -0.75668832348E+02  0.90209572155E+02  0.12150058735E+03  0.41800000000E+01 0. -1.
        -11    1    1    2    0    0 -0.37342112465E+02  0.27637809256E+02  0.71120416940E+01  0.46998542540E+02  0.00000000000E+00 0.  1.
         11    1    1    2    0    0  0.70142405559E+01  0.49369260432E+02  0.12227637752E+03  0.13205315575E+03  0.00000000000E+00 0. -1.
</event>
<event>
 7    1  0.2688177E-009  0.1104579E+03  0.7561462E-02  0.1259724E+00
          2   -1    0    0  501    0  0.00000000000E+00  0.00000000000E+00  0.76561887870E+02  0.76561887870E+02  0.00000000000E+00 0. -1.
         -2   -1    0    0    0  501 -0.00000000000E+00 -0.00000000000E+00 -0.18016379623E+03  0.18016379623E+03  0.00000000000E+00 0.  1.
         25    2    1    2    0    0 -0.19986057054E+02 -0.36752336915E+02 -0.77569961805E+02  0.15301619477E+03  0.12508669051E+03 0.  0.
          5    1    3    3  502    0 -0.32491870997E+01 -0.81903282876E+02 -0.37513484138E+02  0.90241004288E+02  0.41800000000E+01 0.  1.
         -5    1    3    3    0  502 -0.16736869954E+02  0.45150945961E+02 -0.40056477667E+02  0.62775190482E+02  0.41800000000E+01 0.  1.
        -11    1    1    2    0    0  0.50428860159E+02  0.31923102603E+02  0.50982008158E+01  0.59901135785E+02  0.00000000000E+00 0. -1.
         11    1    1    2    0    0 -0.30442803105E+02  0.48292343122E+01 -0.31130147370E+02  0.43808353544E+02  0.00000000000E+00 0.  1.
</event>
<event>
 7    1  0.2688177E-009  0.1057112E+03  0.7561462E-02  0.1268725E+00
          2   -1    0    0  501    0  0.00000000000E+00  0.00000000000E+00  0.54106388421E+03  0.54106388421E+03  0.00000000000E+00 0.  1.
         -2   -1    0    0    0  501 -0.00000000000E+00 -0.00000000000E+00 -0.41593160189E+02  0.41593160189E+02  0.00000000000E+00 0. -1.
         25    2    1    2    0    0 -0.86116833349E+02 -0.24480482781E+02  0.36944577477E+03  0.40019022382E+03  0.12508649695E+03 0.  0.
          5    1    3    3  502    0 -0.61330763845E+02  0.10842060942E+02  0.56308906731E+02  0.84066510910E+02  0.41800000000E+01 0.  1.
         -5    1    3    3    0  502 -0.24786069505E+02 -0.35322543723E+02  0.31313686804E+03  0.31612371291E+03  0.41800000000E+01 0.  1.
        -11    1    1    2    0    0  0.16949386682E+02 -0.17801530963E+02  0.87572386932E+02  0.90956578468E+02  0.00000000000E+00 0.  1.
         11    1    1    2    0    0  0.69167446668E+02  0.42282013744E+02  0.42452562321E+02  0.91510242118E+02  0.00000000000E+00 0. -1.
</event>
<event>
 7    1  0.2688177E-009  0.1186856E+03  0.7561462E-02  0.1245281E+00
         -1   -1    0    0    0  501 -0.00000000000E+00  0.00000000000E+00  0.67021807519E+03  0.67021807519E+03  0.00000000000E+00 0.  1.
          1   -1    0    0  501    0  0.00000000000E+00 -0.00000000000E+00 -0.33964665834E+02  0.33964665834E+02  0.00000000000E+00 0. -1.
         25    2    1    2    0    0  0.54774475689E+02  0.86500738222E+02  0.29164998005E+03  0.33345124411E+03  0.12508956966E+03 0.  0.
          5    1    3    3  502    0 -0.24180449780E+02  0.20232804984E+02  0.17440354579E+03  0.17727980633E+03  0.41800000000E+01 0. -1.
         -5    1    3    3    0  502  0.78954925469E+02  0.66267933238E+02  0.11724643426E+03  0.15617143778E+03  0.41800000000E+01 0. -1.
        -11    1    1    2    0    0 -0.35214241773E+02 -0.57319584652E+02  0.32201226249E+03  0.32896424548E+03  0.00000000000E+00 0.  1.
         11    1    1    2    0    0 -0.19560233915E+02 -0.29181153570E+02  0.22591166820E+02  0.41767251439E+02  0.00000000000E+00 0. -1.
</event>
<event>
 7    1  0.2688177E-009  0.1788735E+03  0.7561462E-02  0.1168898E+00
         -2   -1    0    0    0  501 -0.00000000000E+00  0.00000000000E+00  0.32751356840E+02  0.32751356840E+02  0.00000000000E+00 0.  1.
          2   -1    0    0  501    0  0.00000000000E+00 -0.00000000000E+00 -0.10781876876E+04  0.10781876876E+04  0.00000000000E+00 0. -1.
         25    2    1    2    0    0  0.53812226381E+02 -0.13126219108E+03 -0.71768877212E+03  0.74219309790E+03  0.12509157619E+03 0.  0.
          5    1    3    3  502    0 -0.30542901839E+02  0.22186376985E+01 -0.10334664534E+03  0.10786933165E+03  0.41800000000E+01 0.  1.
         -5    1    3    3    0  502  0.84355128220E+02 -0.13348082878E+03 -0.61434212677E+03  0.63432376625E+03  0.41800000000E+01 0.  1.
        -11    1    1    2    0    0 -0.13796540345E+02  0.12799227402E+03 -0.24433405636E+03  0.27617294913E+03  0.00000000000E+00 0. -1.
         11    1    1    2    0    0 -0.40015686036E+02  0.32699170542E+01 -0.83413502333E+02  0.92572997456E+02  0.00000000000E+00 0.  1.
</event>
<event>
 7    1  0.2688177E-009  0.9650976E+02  0.7561462E-02  0.1287811E+00
         -1   -1    0    0    0  501 -0.00000000000E+00  0.00000000000E+00  0.31721052916E+03  0.31721052916E+03  0.00000000000E+00 0.  1.
          1   -1    0    0  501    0  0.00000000000E+00 -0.00000000000E+00 -0.65057245247E+02  0.65057245247E+02  0.00000000000E+00 0. -1.
         25    2    1    2    0    0 -0.81952436005E+02 -0.38800834809E+02  0.10407604234E+03  0.18627549314E+03  0.12508009517E+03 0.  0.
          5    1    3    3  502    0 -0.27576454976E+02 -0.35176611967E+02 -0.21162032719E+02  0.49630221915E+02  0.41800000000E+01 0. -1.
         -5    1    3    3    0  502 -0.54375981029E+02 -0.36242228411E+01  0.12523807506E+03  0.13664527123E+03  0.41800000000E+01 0. -1.
        -11    1    1    2    0    0  0.18368522697E+02 -0.11040971708E+01  0.11054070420E+03  0.11206189782E+03  0.00000000000E+00 0.  1.
         11    1    1    2    0    0  0.63583913308E+02  0.39904931979E+02  0.37536537366E+02  0.83930383445E+02  0.00000000000E+00 0. -1.
</event>
<event>
 7    1  0.2688177E-009  0.1057339E+03  0.7561462E-02  0.1268680E+00
          1   -1    0    0  501    0  0.00000000000E+00  0.00000000000E+00  0.24827427334E+03  0.24827427334E+03  0.00000000000E+00 0. -1.
         -1   -1    0    0    0  501 -0.00000000000E+00 -0.00000000000E+00 -0.13475891886E+03  0.13475891886E+03  0.00000000000E+00 0.  1.
         25    2    1    2    0    0 -0.49783974875E+02  0.27186425329E+02  0.20219701015E+03  0.24443438215E+03  0.12508793061E+03 0.  0.
          5    1    3    3  502    0  0.51067839019E+01  0.47364667513E+02  0.17944286537E+02  0.51077987331E+02  0.41800000000E+01 0. -1.
         -5    1    3    3    0  502 -0.54890758777E+02 -0.20178242183E+02  0.18425272361E+03  0.19335639482E+03  0.41800000000E+01 0. -1.
        -11    1    1    2    0    0  0.52524620008E+02  0.21133499660E+02 -0.59266764351E+02  0.81963466688E+02  0.00000000000E+00 0. -1.
         11    1    1    2    0    0 -0.27406451324E+01 -0.48319924989E+02 -0.29414891326E+02  0.56635343368E+02  0.00000000000E+00 0.  1.
</event>
<event>
 7    1  0.2688177E-009  0.1380995E+03  0.7561462E-02  0.1215909E+00
         -1   -1    0    0    0  501 -0.00000000000E+00  0.00000000000E+00  0.53205583215E+03  0.53205583215E+03  0.00000000000E+00 0.  1.
          1   -1    0    0  501    0  0.00000000000E+00 -0.00000000000E+00 -0.36591018416E+02  0.36591018416E+02  0.00000000000E+00 0. -1.
         25    2    1    2    0    0 -0.35545506849E+02 -0.77542419180E+02  0.23526429167E+03  0.27977534924E+03  0.12509456135E+03 0.  0.
          5    1    3    3  502    0 -0.14890756644E+02 -0.11080287981E+03  0.16828666421E+03  0.20208138598E+03  0.41800000000E+01 0. -1.
         -5    1    3    3    0  502 -0.20654750205E+02  0.33260460634E+02  0.66977627452E+02  0.77693963258E+02  0.41800000000E+01 0. -1.
        -11    1    1    2    0    0 -0.11469820681E+02 -0.16332291495E+02  0.32623198740E+02  0.38243608982E+02  0.00000000000E+00 0.  1.
         11    1    1    2    0    0  0.47015327530E+02  0.93874710675E+02  0.22757732333E+03  0.25062789234E+03  0.00000000000E+00 0. -1.
</event>
<event>
 7    1  0.2688177E-009  0.1211089E+03  0.7561462E-02  0.1241279E+00
         -1   -1    0    0    0  501 -0.00000000000E+00  0.00000000000E+00  0.32387182711E+02  0.32387182711E+02  0.00000000000E+00 0.  1.
          1   -1    0    0  501    0  0.00000000000E+00 -0.00000000000E+00 -0.68067703155E+03  0.68067703155E+03  0.00000000000E+00 0. -1.
         25    2    1    2    0    0  0.84280715686E+02  0.52854318948E+02 -0.38619391678E+03  0.41795914646E+03  0.12508912296E+03 0.  0.
          5    1    3    3  502    0  0.10404247387E+03  0.43125569799E+02 -0.19322204712E+03  0.22368925552E+03  0.41800000000E+01 0. -1.
         -5    1    3    3    0  502 -0.19761758189E+02  0.97287491490E+01 -0.19297186966E+03  0.19426989094E+03  0.41800000000E+01 0. -1.
        -11    1    1    2    0    0 -0.10601892130E+02 -0.27006606732E+02 -0.92107535734E+01  0.30440021441E+02  0.00000000000E+00 0.  1.
         11    1    1    2    0    0 -0.73678823556E+02 -0.25847712216E+02 -0.25288517848E+03  0.26466504636E+03  0.00000000000E+00 0. -1.
</event>
<event>
 7    1  0.2688177E-009  0.1675163E+03  0.7561462E-02  0.1180463E+00
         -2   -1    0    0    0  501 -0.00000000000E+00  0.00000000000E+00  0.15421269499E+02  0.15421269499E+02  0.00000000000E+00 0.  1.
          2   -1    0    0  501    0  0.00000000000E+00 -0.00000000000E+00 -0.23086996032E+04  0.23086996032E+04  0.00000000000E+00 0. -1.
         25    2    1    2    0    0 -0.88342467885E+02 -0.11221875612E+03 -0.15757692671E+04  0.15871620962E+04  0.12504917257E+03 0.  0.
          5    1    3    3  502    0 -0.31536973164E+02  0.96071690935E+01 -0.10216369861E+03  0.10743263977E+03  0.41800000000E+01 0.  1.
         -5    1    3    3    0  502 -0.56805494721E+02 -0.12182592522E+03 -0.14736055685E+04  0.14797294564E+04  0.41800000000E+01 0.  1.
        -11    1    1    2    0    0  0.51597590109E+01 -0.14693756814E+02 -0.47769088241E+02  0.50243560720E+02  0.00000000000E+00 0.  1.
         11    1    1    2    0    0  0.83182708874E+02  0.12691251294E+03 -0.66973997831E+03  0.68671521575E+03  0.00000000000E+00 0. -1.
</event>
<event>
 7    1  0.2688177E-009  0.1641196E+03  0.7561462E-02  0.1184123E+00
          1   -1    0    0  501    0  0.00000000000E+00  0.00000000000E+00  0.18421697560E+03  0.18421697560E+03  0.00000000000E+00 0.  1.
         -1   -1    0    0    0  501 -0.00000000000E+00 -0.00000000000E+00 -0.17714460030E+03  0.17714460030E+03  0.00000000000E+00 0. -1.
         25    2    1    2    0    0  0.34771342963E+02 -0.13582596960E+03 -0.32074961107E+02  0.19061556761E+03  0.12509097160E+03 0.  0.
          5    1    3    3  502    0 -0.36836050965E+01 -0.14735475423E+03 -0.27380634079E+02  0.14998054562E+03  0.41800000000E+01 0.  1.
         -5    1    3    3    0  502  0.38454948060E+02  0.11528784638E+02 -0.46943270280E+01  0.40635021986E+02  0.41800000000E+01 0.  1.
        -11    1    1    2    0    0 -0.28749503470E+02  0.98587027242E+02  0.68075707001E+02  0.12320810758E+03  0.00000000000E+00 0.  1.
         11    1    1    2    0    0 -0.60218394936E+01  0.37238942355E+02 -0.28928370591E+02  0.47537900707E+02  0.00000000000E+00 0. -1.
</event>
<event>
 7    1  0.2688177E-009  0.8686089E+02  0.7561462E-02  0.1310637E+00
         -3   -1    0    0    0  501 -0.00000000000E+00  0.00000000000E+00  0.10724931564E+03  0.10724931564E+03  0.00000000000E+00 0.  1.
          3   -1    0    0  501    0  0.00000000000E+00 -0.00000000000E+00 -0.25664006198E+03  0.25664006198E+03  0.00000000000E+00 0. -1.
         25    2    1    2    0    0  0.68213276624E+02  0.20517124424E+02 -0.19063113082E+03  0.23887505303E+03  0.12508820657E+03 0.  0.
          5    1    3    3  502    0  0.53365399741E+02 -0.17447733715E+02 -0.18970779509E+03  0.19788584896E+03  0.41800000000E+01 0.  1.
         -5    1    3    3    0  502  0.14847876882E+02  0.37964858139E+02 -0.92333572727E+00  0.40989204070E+02  0.41800000000E+01 0.  1.
        -11    1    1    2    0    0 -0.48243581616E+02 -0.61331576208E+00  0.69819573832E+02  0.84868087132E+02  0.00000000000E+00 0.  1.
         11    1    1    2    0    0 -0.19969695008E+02 -0.19903808662E+02 -0.28579189348E+02  0.40146237454E+02  0.00000000000E+00 0. -1.
</event>
<event>
 7    1  0.2688177E-009  0.1215457E+03  0.7561462E-02  0.1240569E+00
         -1   -1    0    0    0  501 -0.00000000000E+00  0.00000000000E+00  0.64803959515E+03  0.64803959515E+03  0.00000000000E+00 0.  1.
          1   -1    0    0  501    0  0.00000000000E+00 -0.00000000000E+00 -0.26961168128E+02  0.26961168128E+02  0.00000000000E+00 0. -1.
         25    2    1    2    0    0  0.68704795574E+02  0.15562428075E+02  0.41049310691E+03  0.43487372952E+03  0.12509209291E+03 0.  0.
          5    1    3    3  502    0  0.27447326575E+02  0.68102023652E+02  0.16969638917E+03  0.18494750136E+03  0.41800000000E+01 0.  1.
         -5    1    3    3    0  502  0.41257468999E+02 -0.52539595577E+02  0.24079671774E+03  0.24992622817E+03  0.41800000000E+01 0.  1.
        -11    1    1    2    0    0  0.15673657605E+01 -0.30691859835E+02  0.12320178295E+03  0.12697687277E+03  0.00000000000E+00 0. -1.
         11    1    1    2    0    0 -0.70272161334E+02  0.15129431760E+02  0.87383537162E+02  0.11315016099E+03  0.00000000000E+00 0.  1.
</event>
<event>
 7    1  0.2688177E-009  0.1098409E+03  0.7561462E-02  0.1260865E+00
          2   -1    0    0  501    0  0.00000000000E+00  0.00000000000E+00  0.11190281068E+04  0.11190281068E+04  0.00000000000E+00 0. -1.
         -2   -1    0    0    0  501 -0.00000000000E+00 -0.00000000000E+00 -0.13694390986E+02  0.13694390986E+02  0.00000000000E+00 0.  1.
         25    2    1    2    0    0  0.52209554228E+01  0.25799864386E+02  0.87319909322E+03  0.88251409147E+03  0.12514620995E+03 0.  0.
          5    1    3    3  502    0 -0.58070728753E+02  0.24798125003E+02  0.37664997049E+03  0.38192908925E+03  0.41800000000E+01 0. -1.
         -5    1    3    3    0  502  0.63291684176E+02  0.10017393823E+01  0.49654912273E+03  0.50058500223E+03  0.41800000000E+01 0. -1.
        -11    1    1    2    0    0 -0.28685132895E+02  0.24329310554E+02  0.10557002186E+03  0.11207043195E+03  0.00000000000E+00 0. -1.
         11    1    1    2    0    0  0.23464177473E+02 -0.50129174940E+02  0.12656460076E+03  0.13813797440E+03  0.00000000000E+00 0.  1.
</event>
<event>
 7    1  0.2688177E-009  0.1102701E+03  0.7561462E-02  0.1260070E+00
         -2   -1    0    0    0  501 -0.00000000000E+00  0.00000000000E+00  0.21042615729E+02  0.21042615729E+02  0.00000000000E+00 0.  1.
          2   -1    0    0  501    0  0.00000000000E+00 -0.00000000000E+00 -0.81941479439E+03  0.81941479439E+03  0.00000000000E+00 0. -1.
         25    2    1    2    0    0 -0.23357321353E+02  0.47393429098E+01 -0.66896780955E+03  0.68097992719E+03  0.12509078775E+03 0.  0.
          5    1    3    3  502    0 -0.70705180136E+01  0.64619493730E+02 -0.33907792468E+03  0.34527812355E+03  0.41800000000E+01 0. -1.
         -5    1    3    3    0  502 -0.16286803339E+02 -0.59880150820E+02 -0.32988988487E+03  0.33570180364E+03  0.41800000000E+01 0. -1.
        -11    1    1    2    0    0 -0.34685623879E+02  0.21614243172E+01 -0.47681676476E+02  0.59002597659E+02  0.00000000000E+00 0.  1.
         11    1    1    2    0    0  0.58042945232E+02 -0.69007672270E+01 -0.81722692631E+02  0.10047488527E+03  0.00000000000E+00 0. -1.
</event>
<event>
 7    1  0.2688177E-009  0.1392995E+03  0.7561462E-02  0.1214275E+00
          2   -1    0    0  501    0  0.00000000000E+00  0.00000000000E+00  0.14992424015E+03  0.14992424015E+03  0.00000000000E+00 0. -1.
         -2   -1    0    0    0  501 -0.00000000000E+00 -0.00000000000E+00 -0.18346048765E+03  0.18346048765E+03  0.00000000000E+00 0.  1.
         25    2    1    2    0    0 -0.95090235655E+02 -0.29795565807E+02  0.59994541322E+02  0.17080846097E+03  0.12508499787E+03 0.  0.
          5    1    3    3  502    0 -0.56409868743E+02 -0.69819107937E+02  0.70248552966E+02  0.11405749742E+03  0.41800000000E+01 0. -1.
         -5    1    3    3    0  502 -0.38680366913E+02  0.40023542130E+02 -0.10254011644E+02  0.56750963551E+02  0.41800000000E+01 0. -1.
        -11    1    1    2    0    0  0.66022610052E+02  0.61276709820E+02 -0.65500629718E+02  0.11137393186E+03  0.00000000000E+00 0. -1.
         11    1    1    2    0    0  0.29067625603E+02 -0.31481144013E+02 -0.28030159105E+02  0.51202334967E+02  0.00000000000E+00 0.  1.
</event>
<event>
 7    1  0.2688177E-009  0.1140958E+03  0.7561462E-02  0.1253168E+00
         -1   -1    0    0    0  501 -0.00000000000E+00  0.00000000000E+00  0.37339561575E+02  0.37339561575E+02  0.00000000000E+00 0.  1.
          1   -1    0    0  501    0  0.00000000000E+00 -0.00000000000E+00 -0.80473428601E+03  0.80473428601E+03  0.00000000000E+00 0. -1.
         25    2    1    2    0    0  0.24805979398E+02  0.54397201337E+02 -0.69899237943E+03  0.71260884177E+03  0.12508646107E+03 0.  0.
          5    1    3    3  502    0  0.54557561298E+01  0.88668351457E+02 -0.33990771669E+03  0.35134964080E+03  0.41800000000E+01 0. -1.
         -5    1    3    3    0  502  0.19350223268E+02 -0.34271150120E+02 -0.35908466273E+03  0.36125920096E+03  0.41800000000E+01 0. -1.
        -11    1    1    2    0    0 -0.14462919693E+02  0.19936215094E+02 -0.44218371427E+02  0.50615146844E+02  0.00000000000E+00 0. -1.
         11    1    1    2    0    0 -0.10343059705E+02 -0.74333416432E+02 -0.24183973585E+02  0.78849858978E+02  0.00000000000E+00 0.  1.
</event>
<event>
 7    1  0.2688177E-009  0.1024819E+03  0.7561462E-02  0.1275162E+00
         -1   -1    0    0    0  501 -0.00000000000E+00  0.00000000000E+00  0.18839637586E+02  0.18839637586E+02  0.00000000000E+00 0.  1.
          1   -1    0    0  501    0  0.00000000000E+00 -0.00000000000E+00 -0.72890693241E+03  0.72890693241E+03  0.00000000000E+00 0. -1.
         25    2    1    2    0    0  0.47035873656E+02 -0.96725244573E+01 -0.41364019008E+03  0.43480984719E+03  0.12512180153E+03 0.  0.
          5    1    3    3  502    0  0.68552260541E+02 -0.51805840468E+02 -0.24811202529E+03  0.26260294558E+03  0.41800000000E+01 0.  1.
         -5    1    3    3    0  502 -0.21516386885E+02  0.42133316011E+02 -0.16552816479E+03  0.17220690161E+03  0.41800000000E+01 0.  1.
        -11    1    1    2    0    0 -0.56941042295E+02 -0.90925223456E+00 -0.29239896938E+03  0.29789304512E+03  0.00000000000E+00 0. -1.
         11    1    1    2    0    0  0.99051686390E+01  0.10581776692E+02 -0.40281353544E+01  0.15043677681E+02  0.00000000000E+00 0.  1.
</event>
<event>
 7    1  0.2688177E-009  0.1514125E+03  0.7561462E-02  0.1198748E+00
          1   -1    0    0  501    0  0.00000000000E+00  0.00000000000E+00  0.55335519207E+03  0.55335519207E+03  0.00000000000E+00 0. -1.
         -1   -1    0    0    0  501 -0.00000000000E+00 -0.00000000000E+00 -0.46911534643E+02  0.46911534643E+02  0.00000000000E+00 0.  1.
         25    2    1    2    0    0 -0.49403451682E+02 -0.10492210214E+03  0.21264683335E+03  0.27260905966E+03  0.12509066758E+03 0.  0.
          5    1    3    3  502    0  0.41297942301E+02 -0.28775996522E+02  0.81252909822E+02  0.95671760560E+02  0.41800000000E+01 0. -1.
         -5    1    3    3    0  502 -0.90701393983E+02 -0.76146105613E+02  0.13139392353E+03  0.17693729910E+03  0.41800000000E+01 0. -1.
        -11    1    1    2    0    0  0.28808516005E+02  0.20262750679E+01  0.21993208416E+02  0.36300655662E+02  0.00000000000E+00 0.  1.
         11    1    1    2    0    0  0.20594935677E+02  0.10289582707E+03  0.27180361566E+03  0.29135701139E+03  0.00000000000E+00 0. -1.
</event>
<event>
 7    1  0.2688177E-009  0.1739260E+03  0.7561462E-02  0.1173814E+00
         -2   -1    0    0    0  501 -0.00000000000E+00  0.00000000000E+00  0.77765821833E+03  0.77765821833E+03  0.00000000000E+00 0.  1.
          2   -1    0    0  501    0  0.00000000000E+00 -0.00000000000E+00 -0.46659858168E+02  0.46659858168E+02  0.00000000000E+00 0. -1.
         25    2    1    2    0    0 -0.88153225328E+02 -0.12707276736E+03  0.42469209974E+03  0.46896653759E+03  0.12509098473E+03 0.  0.
          5    1    3    3  502    0  0.99794866343E+01 -0.42382263273E+02  0.28796976375E+02  0.52369692017E+02  0.41800000000E+01 0.  1.
         -5    1    3    3    0  502 -0.98132711963E+02 -0.84690504085E+02  0.39589512336E+03  0.41659684557E+03  0.41800000000E+01 0.  1.
        -11    1    1    2    0    0  0.79449144123E+02  0.43859469660E+02  0.20338128206E+03  0.22271004798E+03  0.00000000000E+00 0.  1.
         11    1    1    2    0    0  0.87040812052E+01  0.83213297698E+02  0.10292497837E+03  0.13264149093E+03  0.00000000000E+00 0. -1.
</event>
<event>
 7    1  0.2688177E-009  0.2719322E+03  0.7561462E-02  0.1100179E+00
         -1   -1    0    0    0  501 -0.00000000000E+00  0.00000000000E+00  0.29199045425E+02  0.29199045425E+02  0.00000000000E+00 0.  1.
          1   -1    0    0  501    0  0.00000000000E+00 -0.00000000000E+00 -0.29854427024E+04  0.29854427024E+04  0.00000000000E+00 0. -1.
         25    2    1    2    0    0  0.11886476052E+01  0.26562664615E+03 -0.18608865304E+04  0.18839070169E+04  0.12509213049E+03 0.  0.
          5    1    3    3  502    0 -0.42419829531E+01  0.15690155878E+03 -0.67473556612E+03  0.69276377659E+03  0.41800000000E+01 0. -1.
         -5    1    3    3    0  502  0.54306305584E+01  0.10872508737E+03 -0.11861509643E+04  0.11911432403E+04  0.41800000000E+01 0. -1.
        -11    1    1    2    0    0  0.34958067854E+02 -0.19957427768E+03 -0.72373307062E+03  0.75155938975E+03  0.00000000000E+00 0.  1.
         11    1    1    2    0    0 -0.36146715460E+02 -0.66052368472E+02 -0.37162405593E+03  0.37917534119E+03  0.00000000000E+00 0. -1.
</event>
<event>
 6    1  0.2688177E-009  0.1110509E+03  0.7561462E-02  0.1258636E+00
         -1   -1    0    0    0  501 -0.00000000000E+00  0.00000000000E+00  0.53632269972E+03  0.53632269972E+03  0.00000000000E+00 0.  1.
          1   -1    0    0  501    0  0.00000000000E+00 -0.00000000000E+00 -0.39875774352E+02  0.39875774352E+02  0.00000000000E+00 0. -1.
          5    1    1    2  502    0  0.75826294097E+02  0.14896676318E+02  0.24281626064E+03  0.25485043981E+03  0.41800000000E+01 0. -1.
         -5    1    1    2    0  502 -0.38301551632E+02 -0.37452750017E+02  0.20133069365E+03  0.20837763303E+03  0.41800000000E+01 0. -1.
        -11    1    1    2    0    0 -0.42296628849E+02 -0.20958955308E+02  0.33827675298E+01  0.47325740731E+02  0.00000000000E+00 0. -1.
         11    1    1    2    0    0  0.47718863846E+01  0.43515029007E+02  0.48917203549E+02  0.65644660500E+02  0.00000000000E+00 0.  1.
</event>
<event>
 7    1  0.2688177E-009  0.8914868E+02  0.7561462E-02  0.1304926E+00
         -1   -1    0    0    0  501 -0.00000000000E+00  0.00000000000E+00  0.31420815290E+02  0.31420815290E+02  0.00000000000E+00 0.  1.
          1   -1    0    0  501    0  0.00000000000E+00 -0.00000000000E+00 -0.52002824770E+03  0.52002824770E+03  0.00000000000E+00 0. -1.
         25    2    1    2    0    0 -0.34313580336E+02  0.54011047034E+02 -0.21942313871E+03  0.26055440241E+03  0.12508983897E+03 0.  0.
          5    1    3    3  502    0 -0.63078829605E-01 -0.28246430806E+01  0.15553767062E+02  0.16351594946E+02  0.41800000000E+01 0. -1.
         -5    1    3    3    0  502 -0.34250501506E+02  0.56835690115E+02 -0.23497690578E+03  0.24420280746E+03  0.41800000000E+01 0. -1.
        -11    1    1    2    0    0  0.40416511245E+02  0.10664340254E+02 -0.71638140808E+02  0.82941218659E+02  0.00000000000E+00 0.  1.
         11    1    1    2    0    0 -0.61029309086E+01 -0.64675387289E+02 -0.19754615289E+03  0.20795344193E+03  0.00000000000E+00 0. -1.
</event>
<event>
 7    1  0.2688177E-009  0.4684406E+02  0.7561462E-02  0.1463147E+00
         -1   -1    0    0    0  501 -0.00000000000E+00  0.00000000000E+00  0.21763553994E+03  0.21763553994E+03  0.00000000000E+00 0.  1.
          1   -1    0    0  501    0  0.00000000000E+00 -0.00000000000E+00 -0.69305153029E+02  0.69305153029E+02  0.00000000000E+00 0. -1.
         25    2    1    2    0    0  0.15905068195E+02 -0.32450338744E+01  0.14611638000E+03  0.19303010546E+03  0.12508846338E+03 0.  0.
          5    1    3    3  502    0  0.61127809246E+01  0.23222858551E+02  0.15961729108E+03  0.16146770347E+03  0.41800000000E+01 0.  1.
         -5    1    3    3    0  502  0.97922872703E+01 -0.26467892426E+02 -0.13500911084E+02  0.31562401993E+02  0.41800000000E+01 0.  1.
        -11    1    1    2    0    0  0.12369155884E+02  0.14311737839E+01  0.42709647172E+02  0.44487731311E+02  0.00000000000E+00 0.  1.
         11    1    1    2    0    0 -0.28274224078E+02  0.18138600905E+01 -0.40495640255E+02  0.49422856204E+02  0.00000000000E+00 0. -1.
</event>
<event>
 7    1  0.2688177E-009  0.1154851E+03  0.7561462E-02  0.1250737E+00
          2   -1    0    0  501    0  0.00000000000E+00  0.00000000000E+00  0.44791058196E+03  0.44791058196E+03  0.00000000000E+00 0. -1.
         -2   -1    0    0    0  501 -0.00000000000E+00 -0.00000000000E+00 -0.59305303134E+02  0.59305303134E+02  0.00000000000E+00 0.  1.
         25    2    1    2    0    0 -0.27502956635E+02  0.62498524772E+02  0.36558869388E+03  0.39238375273E+03  0.12508972017E+03 0.  0.
          5    1    3    3  502    0 -0.56799661558E+02  0.73823198056E+02  0.16684764920E+03  0.19113261514E+03  0.41800000000E+01 0. -1.
         -5    1    3    3    0  502  0.29296704922E+02 -0.11324673283E+02  0.19874104468E+03  0.20125113760E+03  0.41800000000E+01 0. -1.
        -11    1    1    2    0    0 -0.13212856365E+02 -0.63952321770E+02 -0.48327933131E+01  0.65481561712E+02  0.00000000000E+00 0.  1.
         11    1    1    2    0    0  0.40715813001E+02  0.14537969977E+01  0.27849378260E+02  0.49350570650E+02  0.00000000000E+00 0. -1.
</event>
<event>
 7    1  0.2688177E-009  0.1322190E+03  0.7561462E-02  0.1224200E+00
         -1   -1    0    0    0  501 -0.00000000000E+00  0.00000000000E+00  0.29118382021E+03  0.29118382021E+03  0.00000000000E+00 0.  1.
          1   -1    0    0  501    0  0.00000000000E+00 -0.00000000000E+00 -0.77316345100E+02  0.77316345100E+02  0.00000000000E+00 0. -1.
         25    2    1    2    0    0  0.94257109572E+02  0.11469687408E+02  0.57537015465E+02  0.16726030131E+03  0.12509813672E+03 0.  0.
          5    1    3    3  502    0  0.92782135254E+01 -0.45503497782E+02 -0.56027411867E+01  0.46962928629E+02  0.41800000000E+01 0. -1.
         -5    1    3    3    0  502  0.84978896047E+02  0.56973185189E+02  0.63139756652E+02  0.12029737268E+03  0.41800000000E+01 0. -1.
        -11    1    1    2    0    0 -0.68532480107E+02 -0.38081564654E+02  0.62150638006E+02  0.10004802947E+03  0.00000000000E+00 0. -1.
         11    1    1    2    0    0 -0.25724629466E+02  0.26611877246E+02  0.94179821641E+02  0.10119183453E+03  0.00000000000E+00 0.  1.
</event>
<event>
 7    1  0.2688177E-009  0.1001382E+03  0.7561462E-02  0.1280006E+00
         -2   -1    0    0    0  501 -0.00000000000E+00  0.00000000000E+00  0.62537789733E+03  0.62537789733E+03  0.00000000000E+00 0.  1.
          2   -1    0    0  501    0  0.00000000000E+00 -0.00000000000E+00 -0.27476802084E+02  0.27476802084E+02  0.00000000000E+00 0. -1.
         25    2    1    2    0    0 -0.41056105038E+02  0.61811584153E+02  0.34866335183E+03  0.37778304518E+03  0.12509044974E+03 0.  0.
          5    1    3    3  502    0  0.30254636532E+02  0.39899576079E+02  0.53864066269E+02  0.73662264682E+02  0.41800000000E+01 0.  1.
         -5    1    3    3    0  502 -0.71310741570E+02  0.21912008074E+02  0.29479928556E+03  0.30412078050E+03  0.41800000000E+01 0.  1.
        -11    1    1    2    0    0  0.38120395963E+02 -0.48545875684E+02  0.25344152087E+03  0.26084951819E+03  0.00000000000E+00 0.  1.
         11    1    1    2    0    0  0.29357090751E+01 -0.13265708469E+02 -0.42037774588E+01  0.14222136052E+02  0.00000000000E+00 0. -1.
</event>
<event>
 7    1  0.2688177E-009  0.1304312E+03  0.7561462E-02  0.1226817E+00
          1   -1    0    0  501    0  0.00000000000E+00  0.00000000000E+00  0.38048678743E+03  0.38048678743E+03  0.00000000000E+00 0. -1.
         -1   -1    0    0    0  501 -0.00000000000E+00 -0.00000000000E+00 -0.63011246120E+02  0.63011246120E+02  0.00000000000E+00 0.  1.
         25    2    1    2    0    0  0.10389177920E+03 -0.19340024632E+01  0.22218189271E+03  0.27533268026E+03  0.12508416854E+03 0.  0.
          5    1    3    3  502    0  0.92679275511E+02  0.22760116615E+02  0.22807050206E+03  0.24726725890E+03  0.41800000000E+01 0.  1.
         -5    1    3    3    0  502  0.11212503687E+02 -0.24694119078E+02 -0.58886093426E+01  0.28065421358E+02  0.41800000000E+01 0.  1.
        -11    1    1    2    0    0 -0.10150895425E+03 -0.30019651246E+02  0.65959074196E+02  0.12472308015E+03  0.00000000000E+00 0.  1.
         11    1    1    2    0    0 -0.23828249525E+01  0.31953653709E+02  0.29334574397E+02  0.43442273136E+02  0.00000000000E+00 0. -1.
</event>
<event>
 7    1  0.2688177E-009  0.1091323E+03  0.7561462E-02  0.1262185E+00
         -1   -1    0    0    0  501 -0.00000000000E+00  0.00000000000E+00  0.37427410084E+02  0.37427410084E+02  0.00000000000E+00 0.  1.
          1   -1    0    0  501    0  0.00000000000E+00 -0.00000000000E+00 -0.53326575366E+03  0.53326575366E+03  0.00000000000E+00 0. -1.
         25    2    1    2    0    0 -0.31422488138E+02  0.80419091301E+02 -0.32623980534E+03  0.35990521202E+03  0.12507896723E+03 0.  0.
          5    1    3    3  502    0 -0.32865795361E+02 -0.12634332112E+02 -0.22014180331E+02  0.41735876512E+02  0.41800000000E+01 0. -1.
         -5    1    3    3    0  502  0.14433072228E+01  0.93053423413E+02 -0.30422562501E+03  0.31816933551E+03  0.41800000000E+01 0. -1.
        -11    1    1    2    0    0  0.30016413752E+02 -0.44355959134E+02 -0.16610824658E+03  0.17452903995E+03  0.00000000000E+00 0. -1.
         11    1    1    2    0    0  0.14060743861E+01 -0.36063132167E+02 -0.34902916538E+01  0.36258911769E+02  0.00000000000E+00 0.  1.
</event>
<event>
 7    1  0.2688177E-009  0.1019804E+03  0.7561462E-02  0.1276186E+00
         -1   -1    0    0    0  501 -0.00000000000E+00  0.00000000000E+00  0.49815633377E+02  0.49815633377E+02  0.00000000000E+00 0.  1.
          1   -1    0    0  501    0  0.00000000000E+00 -0.00000000000E+00 -0.53195927899E+03  0.53195927899E+03  0.00000000000E+00 0. -1.
         25    2    1    2    0    0  0.88286364650E+02 -0.18173771702E+02 -0.40316868741E+03  0.43164516812E+03  0.12509113673E+03 0.  0.
          5    1    3    3  502    0  0.83241925028E+02 -0.27675007752E+02 -0.12243790378E+03  0.15067726046E+03  0.41800000000E+01 0. -1.
         -5    1    3    3    0  502  0.50444396220E+01  0.95012360507E+01 -0.28073078363E+03  0.28096790766E+03  0.41800000000E+01 0. -1.
        -11    1    1    2    0    0  0.46555271480E+01  0.10324806049E+02  0.14285745506E+02  0.18230690542E+02  0.00000000000E+00 0.  1.
         11    1    1    2    0    0 -0.92941891798E+02  0.78489656522E+01 -0.93260703705E+02  0.13189905371E+03  0.00000000000E+00 0. -1.
</event>
<event>
 7    1  0.2688177E-009  0.8839487E+02  0.7561462E-02  0.1306786E+00
         -2   -1    0    0    0  501 -0.00000000000E+00  0.00000000000E+00  0.61247708986E+02  0.61247708986E+02  0.00000000000E+00 0.  1.
          2   -1    0    0  501    0  0.00000000000E+00 -0.00000000000E+00 -0.24136247100E+03  0.24136247100E+03  0.00000000000E+00 0. -1.
         25    2    1    2    0    0  0.37820277758E+02 -0.39926501364E+02 -0.96037022921E+02  0.16701483988E+03  0.12508536304E+03 0.  0.
          5    1    3    3  502    0  0.83170013169E+01  0.25251492544E+02  0.17964957363E+02  0.32357726738E+02  0.41800000000E+01 0.  1.
         -5    1    3    3    0  502  0.29503276441E+02 -0.65177993907E+02 -0.11400198028E+03  0.13465711314E+03  0.41800000000E+01 0.  1.
        -11    1    1    2    0    0 -0.37930308546E+01  0.43799825546E+02  0.90337903974E+00  0.43973035995E+02  0.00000000000E+00 0.  1.
         11    1    1    2    0    0 -0.34027246903E+02 -0.38733241819E+01 -0.84981118129E+02  0.91622304111E+02  0.00000000000E+00 0. -1.
</event>
<event>
 7    1  0.2688177E-009  0.1202873E+03  0.7561462E-02  0.1242624E+00
          2   -1    0    0  501    0  0.00000000000E+00  0.00000000000E+00  0.51443050991E+02  0.51443050991E+02  0.00000000000E+00 0. -1.
         -2   -1    0    0    0  501 -0.00000000000E+00 -0.00000000000E+00 -0.35643628974E+03  0.35643628974E+03  0.00000000000E+00 0.  1.
         25    2    1    2    0    0 -0.21657317194E+02 -0.79235122176E+02 -0.15654924238E+03  0.21657024744E+03  0.12509101810E+03 0.  0.
          5    1    3    3  502    0  0.32447648605E+02 -0.81721837032E+01 -0.11142456623E+03  0.11641538062E+03  0.41800000000E+01 0. -1.
         -5    1    3    3    0  502 -0.54104965798E+02 -0.71062938473E+02 -0.45124676156E+02  0.10015486681E+03  0.41800000000E+01 0. -1.
        -11    1    1    2    0    0  0.97115866769E+00  0.92734094103E+02 -0.96762813889E+02  0.13402834592E+03  0.00000000000E+00 0.  1.
         11    1    1    2    0    0  0.20686158526E+02 -0.13498971927E+02 -0.51681182477E+02  0.57280747375E+02  0.00000000000E+00 0. -1.
</event>
<event>
 7    1  0.2688177E-009  0.1043881E+03  0.7561462E-02  0.1271330E+00
         -1   -1    0    0    0  501 -0.00000000000E+00  0.00000000000E+00  0.19715908659E+03  0.19715908659E+03  0.00000000000E+00 0.  1.
          1   -1    0    0  501    0  0.00000000000E+00 -0.00000000000E+00 -0.72439346168E+02  0.72439346168E+02  0.00000000000E+00 0. -1.
         25    2    1    2    0    0  0.57413012884E+01 -0.20961887432E+02  0.20180181948E+02  0.12855696597E+03  0.12508913019E+03 0.  0.
          5    1    3    3  502    0  0.50500244014E+02 -0.44323650840E+02  0.34858229003E+02  0.75811801182E+02  0.41800000000E+01 0.  1.
         -5    1    3    3    0  502 -0.44758942725E+02  0.23361763408E+02 -0.14678047055E+02  0.52745164790E+02  0.41800000000E+01 0.  1.
        -11    1    1    2    0    0  0.40595515993E+02  0.17588625296E+01  0.67125909655E+02  0.78466408502E+02  0.00000000000E+00 0.  1.
         11    1    1    2    0    0 -0.46336817282E+02  0.19203024902E+02  0.37413648815E+02  0.62575058281E+02  0.00000000000E+00 0. -1.
</event>
<event>
 7    1  0.2688177E-009  0.8182203E+02  0.7561462E-02  0.1323959E+00
          3   -1    0    0  501    0  0.00000000000E+00  0.00000000000E+00  0.63622822733E+02  0.63622822733E+02  0.00000000000E+00 0.  1.
         -3   -1    0    0    0  501 -0.00000000000E+00 -0.00000000000E+00 -0.23673126282E+03  0.23673126282E+03  0.00000000000E+00 0. -1.
         25    2    1    2    0    0  0.96736370251E+01  0.17779634318E+02 -0.16546843420E+03  0.20841618209E+03  0.12509119709E+03 0.  0.
          5    1    3    3  502    0 -0.17438365355E+02  0.56050267030E+02 -0.14609009584E+03  0.15749767466E+03  0.41800000000E+01 0. -1.
         -5    1    3    3    0  502  0.27112002380E+02 -0.38270632712E+02 -0.19378338357E+02  0.50918507428E+02  0.41800000000E+01 0. -1.
        -11    1    1    2    0    0 -0.12209680921E+02 -0.36669542808E+02  0.30544162440E+02  0.49261318874E+02  0.00000000000E+00 0.  1.
         11    1    1    2    0    0  0.25360438959E+01  0.18889908491E+02 -0.38184168334E+02  0.42676584596E+02  0.00000000000E+00 0. -1.
</event>
<event>
 7    1  0.2688177E-009  0.9438425E+02  0.7561462E-02  0.1292569E+00
         -4   -1    0    0    0  501 -0.00000000000E+00  0.00000000000E+00  0.66502704142E+02  0.66502704142E+02  0.00000000000E+00 0.  1.
          4   -1    0    0  501    0  0.00000000000E+00 -0.00000000000E+00 -0.25647668483E+03  0.25647668483E+03  0.00000000000E+00 0. -1.
         25    2    1    2    0    0  0.64635008889E+02 -0.21641166737E+01 -0.63236862711E+02  0.15436645023E+03  0.12509089645E+03 0.  0.
          5    1    3    3  502    0  0.52111985472E+02  0.18275304717E+02  0.26495703112E+02  0.61393325987E+02  0.41800000000E+01 0. -1.
         -5    1    3    3    0  502  0.12523023418E+02 -0.20439421390E+02 -0.89732565823E+02  0.92973124243E+02  0.41800000000E+01 0. -1.
        -11    1    1    2    0    0 -0.74368454160E+02 -0.26370485462E+02 -0.75759463177E+02  0.10938722841E+03  0.00000000000E+00 0.  1.
         11    1    1    2    0    0  0.97334452708E+01  0.28534602136E+02 -0.50977654800E+02  0.59225710336E+02  0.00000000000E+00 0. -1.
</event>
<event>
 7    1  0.2688177E-009  0.1159423E+03  0.7561462E-02  0.1249945E+00
         -2   -1    0    0    0  501 -0.00000000000E+00  0.00000000000E+00  0.27168848511E+03  0.27168848511E+03  0.00000000000E+00 0.  1.
          2   -1    0    0  501    0  0.00000000000E+00 -0.00000000000E+00 -0.57511141663E+02  0.57511141663E+02  0.00000000000E+00 0. -1.
         25    2    1    2    0    0 -0.76089270618E+01 -0.56613974441E+02  0.89873778442E+02  0.16428039412E+03  0.12509082288E+03 0.  0.
          5    1    3    3  502    0 -0.12199012938E+01 -0.96628922113E+02  0.65300370197E+02  0.11670581603E+03  0.41800000000E+01 0.  1.
         -5    1    3    3    0  502 -0.63890257680E+01  0.40014947672E+02  0.24573408245E+02  0.47574578088E+02  0.41800000000E+01 0.  1.
        -11    1    1    2    0    0 -0.17937311058E+02 -0.11747662108E+02  0.72021191411E+02  0.75145237409E+02  0.00000000000E+00 0.  1.
         11    1    1    2    0    0  0.25546238120E+02  0.68361636549E+02  0.52282373599E+02  0.89773995249E+02  0.00000000000E+00 0. -1.
</event>
<event>
 7    1  0.2688177E-009  0.7141430E+02  0.7561462E-02  0.1355349E+00
          2   -1    0    0  501    0  0.00000000000E+00  0.00000000000E+00  0.12886166717E+03  0.12886166717E+03  0.00000000000E+00 0. -1.
         -2   -1    0    0    0  501 -0.00000000000E+00 -0.00000000000E+00 -0.11197511427E+03  0.11197511427E+03  0.00000000000E+00 0.  1.
         25    2    1    2    0    0 -0.21687426612E+02  0.43668661891E+02 -0.43372502452E+01  0.13432479053E+03  0.12508813336E+03 0.  0.
          5    1    3    3  502    0  0.12805481255E+02  0.88066056420E+01 -0.58772892751E+02  0.60936540560E+02  0.41800000000E+01 0. -1.
         -5    1    3    3    0  502 -0.34492907867E+02  0.34862056249E+02  0.54435642505E+02  0.73388249972E+02  0.41800000000E+01 0. -1.
        -11    1    1    2    0    0 -0.16621456024E+02  0.32572896117E+01 -0.25080686434E+02  0.30264229182E+02  0.00000000000E+00 0.  1.
         11    1    1    2    0    0  0.38308882636E+02 -0.46925951503E+02  0.46304489573E+02  0.76247761724E+02  0.00000000000E+00 0. -1.
</event>
<event>
 7    1  0.2688177E-009  0.1498919E+03  0.7561462E-02  0.1200606E+00
         -2   -1    0    0    0  501 -0.00000000000E+00  0.00000000000E+00  0.14154325996E+03  0.14154325996E+03  0.00000000000E+00 0.  1.
          2   -1    0    0  501    0  0.00000000000E+00 -0.00000000000E+00 -0.18077263524E+03  0.18077263524E+03  0.00000000000E+00 0. -1.
         25    2    1    2    0    0 -0.79695346611E+02 -0.83454231928E+02 -0.39314927558E+02  0.17466795298E+03  0.12508906096E+03 0.  0.
          5    1    3    3  502    0 -0.26988826524E+02  0.21572690417E+02  0.22877753897E+02  0.41649030629E+02  0.41800000000E+01 0. -1.
         -5    1    3    3    0  502 -0.52706520087E+02 -0.10502692234E+03 -0.62192681455E+02  0.13301892235E+03  0.41800000000E+01 0. -1.
        -11    1    1    2    0    0 -0.34830157754E+01  0.61190883566E+02 -0.42116924184E+01  0.61434469018E+02  0.00000000000E+00 0.  1.
         11    1    1    2    0    0  0.83178362387E+02  0.22263348362E+02  0.42972446923E+01  0.86213473202E+02  0.00000000000E+00 0. -1.
</event>
<event>
 7    1  0.2688177E-009  0.1199729E+03  0.7561462E-02  0.1243142E+00
          3   -1    0    0  501    0  0.00000000000E+00  0.00000000000E+00  0.37389123695E+03  0.37389123695E+03  0.00000000000E+00 0. -1.
         -3   -1    0    0    0  501 -0.00000000000E+00 -0.00000000000E+00 -0.91517798648E+02  0.91517798648E+02  0.00000000000E+00 0.  1.
         25    2    1    2    0    0  0.83472955627E+02 -0.47130641069E+02 -0.76138885650E+00  0.15759776028E+03  0.12508973852E+03 0.  0.
          5    1    3    3  502    0 -0.59530705784E+01 -0.53478969466E+02  0.31184969512E+02  0.62333088709E+02  0.41800000000E+01 0.  1.
         -5    1    3    3    0  502  0.89426026205E+02  0.63483283969E+01 -0.31946358368E+02  0.95264671570E+02  0.41800000000E+01 0.  1.
        -11    1    1    2    0    0 -0.13170316704E+02  0.11121292621E+02  0.39728259327E+01  0.17689650577E+02  0.00000000000E+00 0.  1.
         11    1    1    2    0    0 -0.70302638923E+02  0.36009348449E+02  0.27916200123E+03  0.29012162475E+03  0.00000000000E+00 0. -1.
</event>
<event>
 7    1  0.2688177E-009  0.1997776E+03  0.7561462E-02  0.1149927E+00
          3   -1    0    0  501    0  0.00000000000E+00  0.00000000000E+00  0.43567800250E+03  0.43567800250E+03  0.00000000000E+00 0. -1.
         -3   -1    0    0    0  501 -0.00000000000E+00 -0.00000000000E+00 -0.11517783907E+03  0.11517783907E+03  0.00000000000E+00 0.  1.
         25    2    1    2    0    0 -0.15096219025E+03  0.10005048843E+03  0.25793271550E+03  0.33908175045E+03  0.12508982630E+03 0.  0.
          5    1    3    3  502    0  0.56847234376E+01  0.46794761119E+02  0.98487922231E+02  0.10926760258E+03  0.41800000000E+01 0. -1.
         -5    1    3    3    0  502 -0.15664691369E+03  0.53255727312E+02  0.15944479327E+03  0.22981414787E+03  0.41800000000E+01 0. -1.
        -11    1    1    2    0    0  0.13607367757E+03 -0.10406574715E+03  0.27543993677E+02  0.17350618734E+03  0.00000000000E+00 0.  1.
         11    1    1    2    0    0  0.14888512680E+02  0.40152587159E+01  0.35023454251E+02  0.38267903785E+02  0.00000000000E+00 0. -1.
</event>
<event>
 7    1  0.2688177E-009  0.1679285E+03  0.7561462E-02  0.1180025E+00
         -2   -1    0    0    0  501 -0.00000000000E+00  0.00000000000E+00  0.15787408936E+03  0.15787408936E+03  0.00000000000E+00 0.  1.
          2   -1    0    0  501    0  0.00000000000E+00 -0.00000000000E+00 -0.20506145444E+03  0.20506145444E+03  0.00000000000E+00 0. -1.
         25    2    1    2    0    0 -0.12586313534E+03  0.45679415067E+02  0.26779994409E+02  0.18518207299E+03  0.12508834581E+03 0.  0.
          5    1    3    3  502    0 -0.14790204792E+03  0.40901855487E+02  0.50587894582E+01  0.15359375414E+03  0.41800000000E+01 0.  1.
         -5    1    3    3    0  502  0.22038912579E+02  0.47775595801E+01  0.21721204951E+02  0.31588318849E+02  0.41800000000E+01 0.  1.
        -11    1    1    2    0    0  0.10964119249E+03 -0.70069931511E+02 -0.71213371397E+02  0.14833182618E+03  0.00000000000E+00 0. -1.
         11    1    1    2    0    0  0.16221942855E+02  0.24390516444E+02 -0.27539880974E+01  0.29421644632E+02  0.00000000000E+00 0.  1.
</event>
<event>
 7    1  0.2688177E-009  0.3514357E+03  0.7561462E-02  0.1062027E+00
         -2   -1    0    0    0  501 -0.00000000000E+00  0.00000000000E+00  0.80867509581E+02  0.80867509581E+02  0.00000000000E+00 0.  1.
          2   -1    0    0  501    0  0.00000000000E+00 -0.00000000000E+00 -0.18183957938E+04  0.18183957938E+04  0.00000000000E+00 0. -1.
         25    2    1    2    0    0 -0.19832501739E+03  0.27400485697E+03 -0.51929136620E+03  0.63223437948E+03  0.12508122728E+03 0.  0.
          5    1    3    3  502    0 -0.21325470302E+03  0.23431814393E+03 -0.47295884811E+03  0.56928912280E+03  0.41800000000E+01 0. -1.
         -5    1    3    3    0  502  0.14929685633E+02  0.39686713046E+02 -0.46332518090E+02  0.62945256676E+02  0.41800000000E+01 0. -1.
        -11    1    1    2    0    0  0.10210345222E+03 -0.91574324737E+02 -0.38695751644E+03  0.41054487140E+03  0.00000000000E+00 0. -1.
         11    1    1    2    0    0  0.96221565170E+02 -0.18243053224E+03 -0.83127940160E+03  0.85648405252E+03  0.00000000000E+00 0.  1.
</event>
<event>
 7    1  0.3871804E-009  0.1411887E+03  0.7561462E-02  0.1211738E+00
          2   -1    0    0  501    0  0.00000000000E+00  0.00000000000E+00  0.11427556337E+04  0.11427556337E+04  0.00000000000E+00 0. -1.
         -2   -1    0    0    0  501 -0.00000000000E+00 -0.00000000000E+00 -0.25903711777E+02  0.25903711777E+02  0.00000000000E+00 0.  1.
         25    2    1    2    0    0  0.91853465552E+02 -0.57160662032E+02  0.85558612065E+03  0.87142372142E+03  0.12508913611E+03 0.  0.
          5    1    3    3  502    0  0.11037351673E+03 -0.18927493067E+02  0.45617284004E+03  0.46973577209E+03  0.41800000000E+01 0. -1.
         -5    1    3    3    0  502 -0.18520051178E+02 -0.38233168966E+02  0.39941328061E+03  0.40168794932E+03  0.41800000000E+01 0. -1.
        -11    1    1    2    0    0 -0.24696811892E+02  0.55164672399E+02  0.60466117946E+02  0.85494005743E+02  0.00000000000E+00 0.  1.
         11    1    1    2    0    0 -0.67156653660E+02  0.19959896337E+01  0.20079968332E+03  0.21174161832E+03  0.00000000000E+00 0. -1.
</event>
<event>
 7    1  0.2688177E-009  0.8517626E+02  0.7561462E-02  0.1314972E+00
         -2   -1    0    0    0  501 -0.00000000000E+00  0.00000000000E+00  0.21358017021E+03  0.21358017021E+03  0.00000000000E+00 0.  1.
          2   -1    0    0  501    0  0.00000000000E+00 -0.00000000000E+00 -0.11041377686E+03  0.11041377686E+03  0.00000000000E+00 0. -1.
         25    2    1    2    0    0  0.30157194811E+02  0.50183020724E+02  0.15211936283E+03  0.20546503488E+03  0.12509111895E+03 0.  0.
          5    1    3    3  502    0 -0.48422290147E+01  0.13228897515E+02  0.15367153664E+03  0.15437248616E+03  0.41800000000E+01 0.  1.
         -5    1    3    3    0  502  0.34999423825E+02  0.36954123209E+02 -0.15521738056E+01  0.51092548711E+02  0.41800000000E+01 0.  1.
        -11    1    1    2    0    0  0.16417675308E+02 -0.55345396262E+02 -0.12270872768E+02  0.59018872137E+02  0.00000000000E+00 0.  1.
         11    1    1    2    0    0 -0.46574870119E+02  0.51623755380E+01 -0.36682096714E+02  0.59510040053E+02  0.00000000000E+00 0. -1.
</event>
<event>
 7    1  0.2688177E-009  0.1273315E+03  0.7561462E-02  0.1231470E+00
          1   -1    0    0  501    0  0.00000000000E+00  0.00000000000E+00  0.62530060564E+02  0.62530060564E+02  0.00000000000E+00 0. -1.
         -1   -1    0    0    0  501 -0.00000000000E+00 -0.00000000000E+00 -0.27045495871E+03  0.27045495871E+03  0.00000000000E+00 0.  1.
         25    2    1    2    0    0  0.63207300081E+02  0.24989549288E+02 -0.13423181352E+03  0.19566706056E+03  0.12509108070E+03 0.  0.
          5    1    3    3  502    0  0.50337748874E+02  0.73282727493E+02 -0.10488294054E+03  0.13755780868E+03  0.41800000000E+01 0.  1.
         -5    1    3    3    0  502  0.12869551207E+02 -0.48293178205E+02 -0.29348872974E+02  0.58109251882E+02  0.41800000000E+01 0.  1.
        -11    1    1    2    0    0 -0.85869312675E+02 -0.62445128534E+01 -0.50082168291E+02  0.99602993834E+02  0.00000000000E+00 0.  1.
         11    1    1    2    0    0  0.22662012594E+02 -0.18745036435E+02 -0.23610916335E+02  0.37714964880E+02  0.00000000000E+00 0. -1.
</event>
<event>
 7    1  0.2688177E-009  0.8507613E+02  0.7561462E-02  0.1315234E+00
         -2   -1    0    0    0  501 -0.00000000000E+00  0.00000000000E+00  0.32609506024E+03  0.32609506024E+03  0.00000000000E+00 0.  1.
          2   -1    0    0  501    0  0.00000000000E+00 -0.00000000000E+00 -0.48805019799E+02  0.48805019799E+02  0.00000000000E+00 0. -1.
         25    2    1    2    0    0 -0.23976660801E+02  0.90647700886E+00  0.65659303425E+02  0.14329914914E+03  0.12509116697E+03 0.  0.
          5    1    3    3  502    0  0.30238661883E+02  0.25732546671E+02  0.72869719713E+02  0.83090366961E+02  0.41800000000E+01 0. -1.
         -5    1    3    3    0  502 -0.54215322684E+02 -0.24826069663E+02 -0.72104162879E+01  0.60208782181E+02  0.41800000000E+01 0. -1.
        -11    1    1    2    0    0 -0.41063634494E+01  0.29079888008E+02  0.17209926827E+03  0.17458711363E+03  0.00000000000E+00 0.  1.
         11    1    1    2    0    0  0.28083024251E+02 -0.29986365017E+02  0.39531468749E+02  0.57013817268E+02  0.00000000000E+00 0. -1.
</event>
<event>
 7    1  0.2688177E-009  0.9922810E+02  0.7561462E-02  0.1281928E+00
         -2   -1    0    0    0  501 -0.00000000000E+00  0.00000000000E+00  0.20740438180E+03  0.20740438180E+03  0.00000000000E+00 0. -1.
          2   -1    0    0  501    0  0.00000000000E+00 -0.00000000000E+00 -0.61065417097E+02  0.61065417097E+02  0.00000000000E+00 0.  1.
         25    2    1    2    0    0 -0.48222117258E+01 -0.27311709297E+02  0.72752195148E+02  0.14734601064E+03  0.12509509088E+03 0.  0.
          5    1    3    3  502    0  0.30381610978E+01 -0.66158796452E+02  0.22972844211E+01  0.66400050351E+02  0.41800000000E+01 0.  1.
         -5    1    3    3    0  502 -0.78603728236E+01  0.38847087155E+02  0.70454910727E+02  0.80945960287E+02  0.41800000000E+01 0.  1.
        -11    1    1    2    0    0 -0.39274008494E+02 -0.19458402691E+01  0.14770778296E+02  0.42004879824E+02  0.00000000000E+00 0.  1.
         11    1    1    2    0    0  0.44096220220E+02  0.29257549566E+02  0.58815991259E+02  0.79118908436E+02  0.00000000000E+00 0. -1.
</event>
<event>
 7    1  0.2688177E-009  0.2070494E+03  0.7561462E-02  0.1143924E+00
         -1   -1    0    0    0  501 -0.00000000000E+00  0.00000000000E+00  0.47077950764E+03  0.47077950764E+03  0.00000000000E+00 0.  1.
          1   -1    0    0  501    0  0.00000000000E+00 -0.00000000000E+00 -0.10730505086E+03  0.10730505086E+03  0.00000000000E+00 0. -1.
         25    2    1    2    0    0 -0.12846194167E+03  0.14643206895E+03  0.23083665354E+03  0.32692183910E+03  0.12508999556E+03 0.  0.
          5    1    3    3  502    0 -0.12785229091E+03  0.12318757910E+03  0.24249986645E+03  0.30057452581E+03  0.41800000000E+01 0. -1.
         -5    1    3    3    0  502 -0.60965076118E+00  0.23244489852E+02 -0.11663212911E+02  0.26347313296E+02  0.41800000000E+01 0. -1.
        -11    1    1    2    0    0 -0.70573019223E+01 -0.39854801176E+02  0.19318740720E+02  0.44848906678E+02  0.00000000000E+00 0. -1.
         11    1    1    2    0    0  0.13551924359E+03 -0.10657726777E+03  0.11331906252E+03  0.20631381272E+03  0.00000000000E+00 0.  1.
</event>
<event>
 7    1  0.3041355E-009  0.1063027E+03  0.7561462E-02  0.1267574E+00
          1   -1    0    0  501    0  0.00000000000E+00  0.00000000000E+00  0.60036065959E+02  0.60036065959E+02  0.00000000000E+00 0. -1.
         -1   -1    0    0    0  501 -0.00000000000E+00 -0.00000000000E+00 -0.25766810092E+03  0.25766810092E+03  0.00000000000E+00 0.  1.
         25    2    1    2    0    0 -0.27738492085E+02  0.53300111061E+02 -0.11669268241E+03  0.18130885556E+03  0.12508154618E+03 0.  0.
          5    1    3    3  502    0 -0.76788861087E+02  0.37470478920E+02 -0.59488439762E+02  0.10419651070E+03  0.41800000000E+01 0. -1.
         -5    1    3    3    0  502  0.49050369003E+02  0.15829632141E+02 -0.57204242645E+02  0.77112344859E+02  0.41800000000E+01 0. -1.
        -11    1    1    2    0    0 -0.11322200108E+02 -0.23947350699E+02 -0.83367669536E+02  0.87474774333E+02  0.00000000000E+00 0.  1.
         11    1    1    2    0    0  0.39060692192E+02 -0.29352760362E+02  0.24283169813E+01  0.48920536983E+02  0.00000000000E+00 0. -1.
</event>
<event>
 7    1  0.2688177E-009  0.9435837E+02  0.7561462E-02  0.1292628E+00
          1   -1    0    0  501    0  0.00000000000E+00  0.00000000000E+00  0.96905439585E+02  0.96905439585E+02  0.00000000000E+00 0. -1.
         -1   -1    0    0    0  501 -0.00000000000E+00 -0.00000000000E+00 -0.15537952137E+03  0.15537952137E+03  0.00000000000E+00 0.  1.
         25    2    1    2    0    0 -0.14931815236E+02  0.15245494347E+02  0.25945663093E+02  0.12952136001E+03  0.12508885267E+03 0.  0.
          5    1    3    3  502    0  0.23933769314E+02 -0.35726566139E+02 -0.22830296477E+02  0.48866222269E+02  0.41800000000E+01 0.  1.
         -5    1    3    3    0  502 -0.38865584551E+02  0.50972060485E+02  0.48775959570E+02  0.80655137744E+02  0.41800000000E+01 0.  1.
        -11    1    1    2    0    0 -0.10926423841E+02 -0.42396639229E+02 -0.19793746939E+02  0.48048456518E+02  0.00000000000E+00 0. -1.
         11    1    1    2    0    0  0.25858239077E+02  0.27151144882E+02 -0.64625997944E+02  0.74715144427E+02  0.00000000000E+00 0.  1.
</event>
<event>
 7    1  0.2688177E-009  0.7537294E+02  0.7561462E-02  0.1342720E+00
         -2   -1    0    0    0  501 -0.00000000000E+00  0.00000000000E+00  0.39867603465E+02  0.39867603465E+02  0.00000000000E+00 0.  1.
          2   -1    0    0  501    0  0.00000000000E+00 -0.00000000000E+00 -0.31685132816E+03  0.31685132816E+03  0.00000000000E+00 0. -1.
         25    2    1    2    0    0 -0.26636214823E+02  0.61733563876E+01 -0.15345428191E+03  0.19985930874E+03  0.12509167992E+03 0.  0.
          5    1    3    3  502    0  0.84214236790E+01 -0.19321780018E+02  0.14779854578E+02  0.26080031848E+02  0.41800000000E+01 0. -1.
         -5    1    3    3    0  502 -0.35057638502E+02  0.25495136406E+02 -0.16823413649E+03  0.17377927689E+03  0.41800000000E+01 0. -1.
        -11    1    1    2    0    0  0.16676191841E+02 -0.43757589286E+02 -0.10241971880E+03  0.11261714254E+03  0.00000000000E+00 0. -1.
         11    1    1    2    0    0  0.99600229823E+01  0.37584232898E+02 -0.21109723988E+02  0.44242480347E+02  0.00000000000E+00 0.  1.
</event>
<event>
 7    1  0.2688177E-009  0.1061227E+03  0.7561462E-02  0.1267923E+00
          1   -1    0    0  501    0  0.00000000000E+00  0.00000000000E+00  0.31179723712E+03  0.31179723712E+03  0.00000000000E+00 0. -1.
         -1   -1    0    0    0  501 -0.00000000000E+00 -0.00000000000E+00 -0.60551920962E+02  0.60551920962E+02  0.00000000000E+00 0.  1.
         25    2    1    2    0    0 -0.47563010642E+02  0.65718661474E+02  0.15552608691E+03  0.21544645836E+03  0.12509048830E+03 0.  0.
          5    1    3    3  502    0 -0.11929079659E+02  0.63418647159E+02  0.16587532396E+03  0.17803461250E+03  0.41800000000E+01 0.  1.
         -5    1    3    3    0  502 -0.35633930983E+02  0.23000143143E+01 -0.10349237050E+02  0.37411845860E+02  0.41800000000E+01 0.  1.
        -11    1    1    2    0    0  0.18449386905E+02 -0.77909668446E+02  0.32823124797E+02  0.86531230409E+02  0.00000000000E+00 0.  1.
         11    1    1    2    0    0  0.29113623737E+02  0.12191006973E+02  0.62896104443E+02  0.70371469306E+02  0.00000000000E+00 0. -1.
</event>
<event>
 7    1  0.2688177E-009  0.1346925E+03  0.7561462E-02  0.1220654E+00
         -2   -1    0    0    0  501 -0.00000000000E+00  0.00000000000E+00  0.28852581680E+03  0.28852581680E+03  0.00000000000E+00 0.  1.
          2   -1    0    0  501    0  0.00000000000E+00 -0.00000000000E+00 -0.89013462615E+02  0.89013462615E+02  0.00000000000E+00 0. -1.
         25    2    1    2    0    0 -0.89632355018E+02 -0.23738654898E+02  0.19092227200E+03  0.24636728452E+03  0.12509213458E+03 0.  0.
          5    1    3    3  502    0 -0.11989832070E+03 -0.31644075982E+02  0.14905527497E+03  0.19393788245E+03  0.41800000000E+01 0. -1.
         -5    1    3    3    0  502  0.30265965683E+02  0.79054210840E+01  0.41866997023E+02  0.52429402066E+02  0.41800000000E+01 0. -1.
        -11    1    1    2    0    0  0.81371161171E+02 -0.72375362616E+01 -0.24312454866E+02  0.85233463282E+02  0.00000000000E+00 0. -1.
         11    1    1    2    0    0  0.82611938474E+01  0.30976191159E+02  0.32902537054E+02  0.45938531617E+02  0.00000000000E+00 0.  1.
</event>
<event>
 7    1  0.2688177E-009  0.1087313E+03  0.7561462E-02  0.1262938E+00
          1   -1    0    0  501    0  0.00000000000E+00  0.00000000000E+00  0.38390452350E+03  0.38390452350E+03  0.00000000000E+00 0. -1.
         -1   -1    0    0    0  501 -0.00000000000E+00 -0.00000000000E+00 -0.55819713270E+02  0.55819713270E+02  0.00000000000E+00 0.  1.
         25    2    1    2    0    0 -0.50283225450E+02  0.56012909507E+02  0.27277789837E+03  0.30938895392E+03  0.12509154319E+03 0.  0.
          5    1    3    3  502    0  0.22874303837E+02  0.96732665574E+01  0.18246911029E+03  0.18419895351E+03  0.41800000000E+01 0.  1.
         -5    1    3    3    0  502 -0.73157529287E+02  0.46339642949E+02  0.90308788071E+02  0.12519000041E+03  0.41800000000E+01 0.  1.
        -11    1    1    2    0    0  0.19412487223E+02  0.17317569176E+02 -0.95240092427E+01  0.27702880977E+02  0.00000000000E+00 0.  1.
         11    1    1    2    0    0  0.30870738227E+02 -0.73330478683E+02  0.64830921102E+02  0.10263240187E+03  0.00000000000E+00 0. -1.
</event>
<event>
 7    1  0.2688177E-009  0.9617617E+02  0.7561462E-02  0.1288549E+00
          1   -1    0    0  501    0  0.00000000000E+00  0.00000000000E+00  0.14924593333E+03  0.14924593333E+03  0.00000000000E+00 0. -1.
         -1   -1    0    0    0  501 -0.00000000000E+00 -0.00000000000E+00 -0.11293670375E+03  0.11293670375E+03  0.00000000000E+00 0.  1.
         25    2    1    2    0    0 -0.51408429040E+02  0.47535518297E+02  0.14459813916E+02  0.14408063755E+03  0.12509073435E+03 0.  0.
          5    1    3    3  502    0 -0.65429040703E+02  0.68913870265E+02  0.43989892760E+02  0.10479820584E+03  0.41800000000E+01 0. -1.
         -5    1    3    3    0  502  0.14020611663E+02 -0.21378351968E+02 -0.29530078844E+02  0.39282431707E+02  0.41800000000E+01 0. -1.
        -11    1    1    2    0    0  0.22748058999E+02 -0.12141243188E+02 -0.36121631734E+02  0.44380809518E+02  0.00000000000E+00 0.  1.
         11    1    1    2    0    0  0.28660370042E+02 -0.35394275109E+02  0.57971047399E+02  0.73721190020E+02  0.00000000000E+00 0. -1.
</event>
<event>
 7    1  0.2826209E-009  0.1620762E+03  0.7561462E-02  0.1186372E+00
         -2   -1    0    0    0  501 -0.00000000000E+00  0.00000000000E+00  0.27989818775E+03  0.27989818775E+03  0.00000000000E+00 0.  1.
          2   -1    0    0  501    0  0.00000000000E+00 -0.00000000000E+00 -0.10528972227E+03  0.10528972227E+03  0.00000000000E+00 0. -1.
         25    2    1    2    0    0  0.10816826818E+03  0.57914179890E+02  0.15023347353E+03  0.23080927706E+03  0.12509356233E+03 0.  0.
          5    1    3    3  502    0  0.46187948221E+01  0.67608905772E+02  0.81504827361E+02  0.10607924721E+03  0.41800000000E+01 0. -1.
         -5    1    3    3    0  502  0.10354947336E+03 -0.96947258824E+01  0.68728646170E+02  0.12473002986E+03  0.41800000000E+01 0. -1.
        -11    1    1    2    0    0 -0.47402182954E+02  0.21603510095E+02  0.39885599341E+01  0.52245451549E+02  0.00000000000E+00 0. -1.
         11    1    1    2    0    0 -0.60766085230E+02 -0.79517689984E+02  0.20386432010E+02  0.10213318141E+03  0.00000000000E+00 0.  1.
</event>
<event>
 7    1  0.2688177E-009  0.1106068E+03  0.7561462E-02  0.1259450E+00
          3   -1    0    0  501    0  0.00000000000E+00  0.00000000000E+00  0.20145930514E+03  0.20145930514E+03  0.00000000000E+00 0. -1.
         -3   -1    0    0    0  501 -0.00000000000E+00 -0.00000000000E+00 -0.77440022290E+02  0.77440022290E+02  0.00000000000E+00 0.  1.
         25    2    1    2    0    0 -0.16149372352E+02 -0.27471819945E+02  0.12041477330E+02  0.12964453796E+03  0.12508879218E+03 0.  0.
          5    1    3    3  502    0 -0.67656764735E+02 -0.62722632614E+01  0.24618307796E+02  0.72390003312E+02  0.41800000000E+01 0. -1.
         -5    1    3    3    0  502  0.51507392383E+02 -0.21199556683E+02 -0.12576830466E+02  0.57254534652E+02  0.41800000000E+01 0. -1.
        -11    1    1    2    0    0 -0.38493784242E+02  0.83435241682E+01  0.33337897868E+02  0.51602337690E+02  0.00000000000E+00 0. -1.
         11    1    1    2    0    0  0.54643156594E+02  0.19128295776E+02  0.78639907650E+02  0.97652451772E+02  0.00000000000E+00 0.  1.
</event>
<event>
 7    1  0.2688177E-009  0.9321754E+02  0.7561462E-02  0.1295242E+00
          3   -1    0    0  501    0  0.00000000000E+00  0.00000000000E+00  0.82087989972E+02  0.82087989972E+02  0.00000000000E+00 0. -1.
         -3   -1    0    0    0  501 -0.00000000000E+00 -0.00000000000E+00 -0.14619049916E+03  0.14619049916E+03  0.00000000000E+00 0.  1.
         25    2    1    2    0    0 -0.34357402680E+00 -0.10045728237E+01 -0.55245817471E+02  0.13676980582E+03  0.12511095966E+03 0.  0.
          5    1    3    3  502    0 -0.56002615566E+02  0.19196724090E+02 -0.49224859589E+02  0.77106201874E+02  0.41800000000E+01 0. -1.
         -5    1    3    3    0  502  0.55659041539E+02 -0.20201296914E+02 -0.60209578824E+01  0.59663603946E+02  0.41800000000E+01 0. -1.
        -11    1    1    2    0    0 -0.32737674709E+02 -0.74671824884E+01 -0.34999128829E+02  0.48502094578E+02  0.00000000000E+00 0.  1.
         11    1    1    2    0    0  0.33081248736E+02  0.84717553121E+01  0.26142437115E+02  0.43006588731E+02  0.00000000000E+00 0. -1.
</event>
<event>
 7    1  0.2688177E-009  0.1125802E+03  0.7561462E-02  0.1255865E+00
          2   -1    0    0  501    0  0.00000000000E+00  0.00000000000E+00  0.59002641307E+02  0.59002641307E+02  0.00000000000E+00 0. -1.
         -2   -1    0    0    0  501 -0.00000000000E+00 -0.00000000000E+00 -0.26093470912E+03  0.26093470912E+03  0.00000000000E+00 0.  1.
         25    2    1    2    0    0  0.41496063684E+02  0.33636804496E+02 -0.14245650611E+03  0.19696405955E+03  0.12509047407E+03 0.  0.
          5    1    3    3  502    0  0.81434210815E+02  0.10972920877E+02 -0.57751830097E+02  0.10052204715E+03  0.41800000000E+01 0. -1.
         -5    1    3    3    0  502 -0.39938147130E+02  0.22663883619E+02 -0.84704676017E+02  0.96442012402E+02  0.41800000000E+01 0. -1.
        -11    1    1    2    0    0 -0.36353766410E+02  0.20941047992E+02  0.18099393604E+00  0.41954220074E+02  0.00000000000E+00 0. -1.
         11    1    1    2    0    0 -0.51422972745E+01 -0.54577852488E+02 -0.59656555639E+02  0.81019070805E+02  0.00000000000E+00 0.  1.
</event>
<event>
 7    1  0.2688177E-009  0.1136051E+03  0.7561462E-02  0.1254036E+00
         -1   -1    0    0    0  501 -0.00000000000E+00  0.00000000000E+00  0.21485446880E+03  0.21485446880E+03  0.00000000000E+00 0.  1.
          1   -1    0    0  501    0  0.00000000000E+00 -0.00000000000E+00 -0.90947958013E+02  0.90947958013E+02  0.00000000000E+00 0. -1.
         25    2    1    2    0    0  0.55622758993E+02 -0.55452065608E+02  0.25637194135E+02  0.14991142969E+03  0.12508936058E+03 0.  0.
          5    1    3    3  502    0  0.95531761470E+02 -0.30691181414E+02  0.14582419407E+02  0.10148096088E+03  0.41800000000E+01 0.  1.
         -5    1    3    3    0  502 -0.39909002477E+02 -0.24760884194E+02  0.11054774728E+02  0.48430468809E+02  0.41800000000E+01 0.  1.
        -11    1    1    2    0    0 -0.33861496213E+02  0.24504623196E+02  0.10885622881E+03  0.11660512868E+03  0.00000000000E+00 0.  1.
         11    1    1    2    0    0 -0.21761262780E+02  0.30947442412E+02 -0.10586912162E+02  0.39285868436E+02  0.00000000000E+00 0. -1.
</event>
<event>
 7    1  0.2688177E-009  0.9837880E+02  0.7561462E-02  0.1283743E+00
         -2   -1    0    0    0  501 -0.00000000000E+00  0.00000000000E+00  0.42415431749E+02  0.42415431749E+02  0.00000000000E+00 0.  1.
          2   -1    0    0  501    0  0.00000000000E+00 -0.00000000000E+00 -0.35552867830E+03  0.35552867830E+03  0.00000000000E+00 0. -1.
         25    2    1    2    0    0  0.42635632711E+02  0.34760188502E+02 -0.16714033261E+03  0.21589251141E+03  0.12509043856E+03 0.  0.
          5    1    3    3  502    0 -0.24484281186E+01  0.54305360754E+02 -0.15866161336E+02  0.56782695273E+02  0.41800000000E+01 0. -1.
         -5    1    3    3    0  502  0.45084060829E+02 -0.19545172253E+02 -0.15127417127E+03  0.15910981614E+03  0.41800000000E+01 0. -1.
        -11    1    1    2    0    0 -0.49890654806E+02 -0.53303178158E+02 -0.14472883176E+03  0.16210102091E+03  0.00000000000E+00 0. -1.
         11    1    1    2    0    0  0.72550220953E+01  0.18542989656E+02 -0.12440821874E+01  0.19950577723E+02  0.00000000000E+00 0.  1.
</event>
<event>
 7    1  0.2688177E-009  0.1048748E+03  0.7561462E-02  0.1270366E+00
          4   -1    0    0  501    0  0.00000000000E+00  0.00000000000E+00  0.10996035057E+03  0.10996035057E+03  0.00000000000E+00 0. -1.
         -4   -1    0    0    0  501 -0.00000000000E+00 -0.00000000000E+00 -0.21483021824E+03  0.21483021824E+03  0.00000000000E+00 0.  1.
         25    2    1    2    0    0 -0.75755669506E+02 -0.20604476381E+02  0.23262654138E+02  0.14950452420E+03  0.12508791216E+03 0.  0.
          5    1    3    3  502    0 -0.69629158652E+02  0.19621345033E+02 -0.33262989739E+02  0.79731523264E+02  0.41800000000E+01 0. -1.
         -5    1    3    3    0  502 -0.61265108540E+01 -0.40225821415E+02  0.56525643878E+02  0.69773000935E+02  0.41800000000E+01 0. -1.
        -11    1    1    2    0    0  0.46669338946E+02 -0.16265264357E+02 -0.13238274263E+02  0.51164811420E+02  0.00000000000E+00 0. -1.
         11    1    1    2    0    0  0.29086330561E+02  0.36869740738E+02 -0.11489424755E+03  0.12412123318E+03  0.00000000000E+00 0.  1.
</event>
<event>
 7    1  0.2688177E-009  0.1047752E+03  0.7561462E-02  0.1270563E+00
         -1   -1    0    0    0  501 -0.00000000000E+00  0.00000000000E+00  0.13530122609E+03  0.13530122609E+03  0.00000000000E+00 0.  1.
          1   -1    0    0  501    0  0.00000000000E+00 -0.00000000000E+00 -0.10751925732E+03  0.10751925732E+03  0.00000000000E+00 0. -1.
         25    2    1    2    0    0  0.25241388849E+02 -0.34676578194E+02  0.47272327944E+02  0.14043346370E+03  0.12508913603E+03 0.  0.
          5    1    3    3  502    0  0.66986925586E+01 -0.72910077711E+02  0.61203812558E+02  0.95520317135E+02  0.41800000000E+01 0. -1.
         -5    1    3    3    0  502  0.18542696290E+02  0.38233499518E+02 -0.13931484614E+02  0.44913146568E+02  0.41800000000E+01 0. -1.
        -11    1    1    2    0    0  0.19720177314E+02 -0.16270989113E+02  0.11096201252E+02  0.27870345571E+02  0.00000000000E+00 0.  1.
         11    1    1    2    0    0 -0.44961566163E+02  0.50947567307E+02 -0.30586560429E+02  0.74516674142E+02  0.00000000000E+00 0. -1.
</event>
<event>
 7    1  0.2688177E-009  0.1029184E+03  0.7561462E-02  0.1274276E+00
          2   -1    0    0  501    0  0.00000000000E+00  0.00000000000E+00  0.36647199092E+03  0.36647199092E+03  0.00000000000E+00 0. -1.
         -2   -1    0    0    0  501 -0.00000000000E+00 -0.00000000000E+00 -0.83795294557E+02  0.83795294557E+02  0.00000000000E+00 0.  1.
         25    2    1    2    0    0 -0.98351655248E+02  0.64988462989E+01  0.27098951365E+02  0.16154700235E+03  0.12509115761E+03 0.  0.
          5    1    3    3  502    0  0.98286460403E+00 -0.45233077197E+01 -0.40395853720E+02  0.40874487560E+02  0.41800000000E+01 0. -1.
         -5    1    3    3    0  502 -0.99334519852E+02  0.11022154019E+02  0.67494805085E+02  0.12067251479E+03  0.41800000000E+01 0. -1.
        -11    1    1    2    0    0  0.41430956001E+02 -0.97223666665E+01  0.21391663739E+03  0.21810863413E+03  0.00000000000E+00 0. -1.
         11    1    1    2    0    0  0.56920699247E+02  0.32235203676E+01  0.41661107604E+02  0.70611648990E+02  0.00000000000E+00 0.  1.
</event>
<event>
 7    1  0.2688177E-009  0.1343704E+03  0.7561462E-02  0.1221111E+00
         -1   -1    0    0    0  501 -0.00000000000E+00  0.00000000000E+00  0.35454365828E+02  0.35454365828E+02  0.00000000000E+00 0.  1.
          1   -1    0    0  501    0  0.00000000000E+00 -0.00000000000E+00 -0.74260125129E+03  0.74260125129E+03  0.00000000000E+00 0. -1.
         25    2    1    2    0    0  0.74639933523E+01  0.11823264706E+03 -0.42949648732E+03  0.46276198969E+03  0.12508699555E+03 0.  0.
          5    1    3    3  502    0 -0.14987152515E+02  0.10515906326E+03 -0.42231005419E+03  0.43548398087E+03  0.41800000000E+01 0.  1.
         -5    1    3    3    0  502  0.22451145867E+02  0.13073583800E+02 -0.71864331336E+01  0.27278008822E+02  0.41800000000E+01 0.  1.
        -11    1    1    2    0    0 -0.22638328853E+02 -0.67660170399E+01 -0.11360904784E+02  0.26217228636E+02  0.00000000000E+00 0.  1.
         11    1    1    2    0    0  0.15174335501E+02 -0.11146663002E+03 -0.26628949336E+03  0.28907639879E+03  0.00000000000E+00 0. -1.
</event>
<event>
 7    1  0.2688177E-009  0.2470234E+03  0.7561462E-02  0.1115201E+00
         -1   -1    0    0    0  501 -0.00000000000E+00  0.00000000000E+00  0.31289106700E+02  0.31289106700E+02  0.00000000000E+00 0.  1.
          1   -1    0    0  501    0  0.00000000000E+00 -0.00000000000E+00 -0.19778730765E+04  0.19778730765E+04  0.00000000000E+00 0. -1.
         25    2    1    2    0    0  0.59337570276E+02 -0.21132247918E+03 -0.10858793566E+04  0.11148808174E+04  0.12508845826E+03 0.  0.
          5    1    3    3  502    0 -0.35176060147E+02 -0.10037788818E+03 -0.48894409126E+03  0.50039671503E+03  0.41800000000E+01 0. -1.
         -5    1    3    3    0  502  0.94513630423E+02 -0.11094459100E+03 -0.59693526537E+03  0.61448410236E+03  0.41800000000E+01 0. -1.
        -11    1    1    2    0    0 -0.87281856575E+02  0.13750521822E+03 -0.61568466348E+03  0.63686216120E+03  0.00000000000E+00 0.  1.
         11    1    1    2    0    0  0.27944286299E+02  0.73817260962E+02 -0.24501994968E+03  0.25741920459E+03  0.00000000000E+00 0. -1.
</event>
<event>
 7    1  0.2688177E-009  0.9174290E+02  0.7561462E-02  0.1298685E+00
         -2   -1    0    0    0  501 -0.00000000000E+00  0.00000000000E+00  0.29345045342E+03  0.29345045342E+03  0.00000000000E+00 0.  1.
          2   -1    0    0  501    0  0.00000000000E+00 -0.00000000000E+00 -0.42174799290E+02  0.42174799290E+02  0.00000000000E+00 0. -1.
         25    2    1    2    0    0  0.28360613908E+02 -0.11095003840E+01  0.13410106290E+03  0.18557041506E+03  0.12509088081E+03 0.  0.
          5    1    3    3  502    0 -0.37140994446E+02  0.21715093493E+02  0.98334615041E+02  0.10741586321E+03  0.41800000000E+01 0. -1.
         -5    1    3    3    0  502  0.65501608354E+02 -0.22824593877E+02  0.35766447857E+02  0.78154551850E+02  0.41800000000E+01 0. -1.
        -11    1    1    2    0    0 -0.51927642701E+01 -0.30856813875E+02  0.57127564661E+01  0.31807913320E+02  0.00000000000E+00 0. -1.
         11    1    1    2    0    0 -0.23167849638E+02  0.31966314259E+02  0.11146183477E+03  0.11824692433E+03  0.00000000000E+00 0.  1.
</event>
<event>
 7    1  0.2688177E-009  0.1064170E+03  0.7561462E-02  0.1267353E+00
          3   -1    0    0  501    0  0.00000000000E+00  0.00000000000E+00  0.34467402101E+03  0.34467402101E+03  0.00000000000E+00 0. -1.
         -3   -1    0    0    0  501 -0.00000000000E+00 -0.00000000000E+00 -0.47170498159E+02  0.47170498159E+02  0.00000000000E+00 0.  1.
         25    2    1    2    0    0  0.23558387455E+02  0.37791549791E+02  0.24506092773E+03  0.27872008968E+03  0.12508729446E+03 0.  0.
          5    1    3    3  502    0 -0.45163370538E+02  0.34032579474E+01  0.14811368477E+03  0.15494014399E+03  0.41800000000E+01 0.  1.
         -5    1    3    3    0  502  0.68721757994E+02  0.34388291843E+02  0.96947242966E+02  0.12377994570E+03  0.41800000000E+01 0.  1.
        -11    1    1    2    0    0  0.29060888233E+02 -0.90698186400E+01 -0.40999866796E+01  0.30718182332E+02  0.00000000000E+00 0.  1.
         11    1    1    2    0    0 -0.52619275688E+02 -0.28721731151E+02  0.56542581801E+02  0.82406247160E+02  0.00000000000E+00 0. -1.
</event>
<event>
 7    1  0.2688177E-009  0.9847459E+02  0.7561462E-02  0.1283537E+00
          1   -1    0    0  501    0  0.00000000000E+00  0.00000000000E+00  0.13183995318E+03  0.13183995318E+03  0.00000000000E+00 0. -1.
         -1   -1    0    0    0  501 -0.00000000000E+00 -0.00000000000E+00 -0.12583611312E+03  0.12583611312E+03  0.00000000000E+00 0.  1.
         25    2    1    2    0    0 -0.19864759693E+01 -0.67653910463E+02 -0.16950366719E+02  0.14323490496E+03  0.12509166791E+03 0.  0.
          5    1    3    3  502    0  0.52050613595E+02 -0.24137936208E+02 -0.39931632275E+02  0.70027951535E+02  0.41800000000E+01 0. -1.
         -5    1    3    3    0  502 -0.54037089564E+02 -0.43515974255E+02  0.22981265556E+02  0.73206953430E+02  0.41800000000E+01 0. -1.
        -11    1    1    2    0    0 -0.67968315001E+01  0.14174568938E+02 -0.32994138674E+02  0.36547619756E+02  0.00000000000E+00 0.  1.
         11    1    1    2    0    0  0.87833074694E+01  0.53479341525E+02  0.55948345450E+02  0.77893541572E+02  0.00000000000E+00 0. -1.
</event>
<event>
 7    1  0.2688177E-009  0.1008726E+03  0.7561462E-02  0.1278472E+00
         -1   -1    0    0    0  501 -0.00000000000E+00  0.00000000000E+00  0.37708598768E+03  0.37708598768E+03  0.00000000000E+00 0.  1.
          1   -1    0    0  501    0  0.00000000000E+00 -0.00000000000E+00 -0.50715373579E+02  0.50715373579E+02  0.00000000000E+00 0. -1.
         25    2    1    2    0    0 -0.98116671669E+01  0.85030016699E+02  0.18684561274E+03  0.24059209170E+03  0.12508756548E+03 0.  0.
          5    1    3    3  502    0 -0.21034584362E+02  0.71055580310E+02  0.25919565045E+02  0.78617081379E+02  0.41800000000E+01 0.  1.
         -5    1    3    3    0  502  0.11222917195E+02  0.13974436389E+02  0.16092604769E+03  0.16197501032E+03  0.41800000000E+01 0.  1.
        -11    1    1    2    0    0 -0.18696595250E+02 -0.77374557287E+02  0.13586301372E+03  0.15746473664E+03  0.00000000000E+00 0.  1.
         11    1    1    2    0    0  0.28508262417E+02 -0.76554594121E+01  0.36619876451E+01  0.29744532916E+02  0.00000000000E+00 0. -1.
</event>
<event>
 7    1  0.2688177E-009  0.1079918E+03  0.7561462E-02  0.1264335E+00
         -3   -1    0    0    0  501 -0.00000000000E+00  0.00000000000E+00  0.56222638941E+02  0.56222638941E+02  0.00000000000E+00 0.  1.
          3   -1    0    0  501    0  0.00000000000E+00 -0.00000000000E+00 -0.22897715403E+03  0.22897715403E+03  0.00000000000E+00 0. -1.
         25    2    1    2    0    0  0.12368219349E+02 -0.19673248530E+02 -0.12709212606E+03  0.17983219773E+03  0.12508877359E+03 0.  0.
          5    1    3    3  502    0 -0.18109546446E+02  0.46790847124E+02 -0.73456575662E+02  0.89054365165E+02  0.41800000000E+01 0. -1.
         -5    1    3    3    0  502  0.30477765795E+02 -0.66464095655E+02 -0.53635550398E+02  0.90777832567E+02  0.41800000000E+01 0. -1.
        -11    1    1    2    0    0 -0.99932234922E+01 -0.35650015821E+02 -0.66144986985E+01  0.37610367411E+02  0.00000000000E+00 0.  1.
         11    1    1    2    0    0 -0.23749958571E+01  0.55323264351E+02 -0.39047890335E+02  0.67757227831E+02  0.00000000000E+00 0. -1.
</event>
<event>
 7    1  0.2688177E-009  0.1447731E+03  0.7561462E-02  0.1207047E+00
          2   -1    0    0  501    0  0.00000000000E+00  0.00000000000E+00  0.26030926112E+02  0.26030926112E+02  0.00000000000E+00 0.  1.
         -2   -1    0    0    0  501 -0.00000000000E+00 -0.00000000000E+00 -0.83847959350E+03  0.83847959350E+03  0.00000000000E+00 0. -1.
         25    2    1    2    0    0 -0.80314708503E+01 -0.98440523446E+02 -0.40897598689E+03  0.43893452159E+03  0.12508842956E+03 0.  0.
          5    1    3    3  502    0 -0.57077344001E+02 -0.86709471115E+02 -0.21994997585E+03  0.24325258448E+03  0.41800000000E+01 0.  1.
         -5    1    3    3    0  502  0.49045873151E+02 -0.11731052331E+02 -0.18902601104E+03  0.19568193711E+03  0.41800000000E+01 0.  1.
        -11    1    1    2    0    0  0.42256786118E+02  0.14960223066E+02 -0.14797927527E+03  0.15461988926E+03  0.00000000000E+00 0. -1.
         11    1    1    2    0    0 -0.34225315267E+02  0.83480300380E+02 -0.25549340522E+03  0.27095610875E+03  0.00000000000E+00 0.  1.
</event>
<event>
 7    1  0.2688177E-009  0.7098953E+02  0.7561462E-02  0.1356760E+00
         -1   -1    0    0    0  501 -0.00000000000E+00  0.00000000000E+00  0.19473067612E+02  0.19473067612E+02  0.00000000000E+00 0.  1.
          1   -1    0    0  501    0  0.00000000000E+00 -0.00000000000E+00 -0.70286929405E+03  0.70286929405E+03  0.00000000000E+00 0. -1.
         25    2    1    2    0    0  0.32162401943E+02 -0.86564967676E+01 -0.47417509417E+03  0.49152648575E+03  0.12508761421E+03 0.  0.
          5    1    3    3  502    0 -0.10186252199E+02  0.85505146053E+01 -0.42120307306E+03  0.42143371032E+03  0.41800000000E+01 0.  1.
         -5    1    3    3    0  502  0.42348654142E+02 -0.17207011373E+02 -0.52972021109E+02  0.70092775436E+02  0.41800000000E+01 0.  1.
        -11    1    1    2    0    0 -0.79307016009E+01 -0.33002942896E+02 -0.30238826606E+02  0.45458518477E+02  0.00000000000E+00 0.  1.
         11    1    1    2    0    0 -0.24231700342E+02  0.41659439663E+02 -0.17898230566E+03  0.18535735743E+03  0.00000000000E+00 0. -1.
</event>
<event>
 7    1  0.2688177E-009  0.1886110E+03  0.7561462E-02  0.1159720E+00
          1   -1    0    0  501    0  0.00000000000E+00  0.00000000000E+00  0.11022967794E+04  0.11022967794E+04  0.00000000000E+00 0. -1.
         -1   -1    0    0    0  501 -0.00000000000E+00 -0.00000000000E+00 -0.41523624198E+02  0.41523624198E+02  0.00000000000E+00 0.  1.
         25    2    1    2    0    0  0.67036555405E+02  0.16870969343E+03  0.63536011258E+03  0.67252285614E+03  0.12509060301E+03 0.  0.
          5    1    3    3  502    0  0.59320239064E+02  0.54135319177E+02  0.42765518057E+03  0.43515049054E+03  0.41800000000E+01 0.  1.
         -5    1    3    3    0  502  0.77163163408E+01  0.11457437425E+03  0.20770493201E+03  0.23737236561E+03  0.41800000000E+01 0.  1.
        -11    1    1    2    0    0 -0.20717764817E+02 -0.38977264722E+02  0.32156401780E+02  0.54612151758E+02  0.00000000000E+00 0.  1.
         11    1    1    2    0    0 -0.46318790589E+02 -0.12973242871E+03  0.39325664085E+03  0.41668539570E+03  0.00000000000E+00 0. -1.
</event>
<event>
 7    1  0.2688177E-009  0.8000818E+02  0.7561462E-02  0.1329028E+00
          2   -1    0    0  501    0  0.00000000000E+00  0.00000000000E+00  0.14015014642E+03  0.14015014642E+03  0.00000000000E+00 0. -1.
         -2   -1    0    0    0  501 -0.00000000000E+00 -0.00000000000E+00 -0.12866442185E+03  0.12866442185E+03  0.00000000000E+00 0.  1.
         25    2    1    2    0    0  0.51685941194E+02 -0.46502089650E+02  0.41780074520E+02  0.14908643991E+03  0.12508921248E+03 0.  0.
          5    1    3    3  502    0  0.21268345871E+02  0.10418832903E+02 -0.38869769103E+02  0.45708051427E+02  0.41800000000E+01 0.  1.
         -5    1    3    3    0  502  0.30417595322E+02 -0.56920922553E+02  0.80649843623E+02  0.10337838849E+03  0.41800000000E+01 0.  1.
        -11    1    1    2    0    0 -0.12303688906E+02  0.31024172634E+01 -0.54767985995E+02  0.56218662769E+02  0.00000000000E+00 0.  1.
         11    1    1    2    0    0 -0.39382252287E+02  0.43399672387E+02  0.24473636049E+02  0.63509465593E+02  0.00000000000E+00 0. -1.
</event>
<event>
 7    1  0.2688177E-009  0.1081387E+03  0.7561462E-02  0.1264056E+00
          2   -1    0    0  501    0  0.00000000000E+00  0.00000000000E+00  0.61837373398E+03  0.61837373398E+03  0.00000000000E+00 0. -1.
         -2   -1    0    0    0  501 -0.00000000000E+00 -0.00000000000E+00 -0.31872020413E+02  0.31872020413E+02  0.00000000000E+00 0.  1.
         25    2    1    2    0    0 -0.14109591198E+02  0.53086063861E+02  0.15617176640E+03  0.20748837430E+03  0.12507835189E+03 0.  0.
          5    1    3    3  502    0 -0.58065840815E+02  0.30088978353E+02  0.30435681795E+02  0.72255045596E+02  0.41800000000E+01 0.  1.
         -5    1    3    3    0  502  0.43956249616E+02  0.22997085508E+02  0.12573608460E+03  0.13523332871E+03  0.41800000000E+01 0.  1.
        -11    1    1    2    0    0 -0.15482864109E+02 -0.66637865953E+02  0.23581981729E+03  0.24554288931E+03  0.00000000000E+00 0.  1.
         11    1    1    2    0    0  0.29592455307E+02  0.13551802092E+02  0.19451012988E+03  0.19721449078E+03  0.00000000000E+00 0. -1.
</event>
<event>
 7    1  0.2688177E-009  0.1302320E+03  0.7561462E-02  0.1227112E+00
         -1   -1    0    0    0  501 -0.00000000000E+00  0.00000000000E+00  0.38029351124E+02  0.38029351124E+02  0.00000000000E+00 0.  1.
          1   -1    0    0  501    0  0.00000000000E+00 -0.00000000000E+00 -0.64010270975E+03  0.64010270975E+03  0.00000000000E+00 0. -1.
         25    2    1    2    0    0  0.33227904940E+02  0.10337699441E+03 -0.26252271373E+03  0.31041350504E+03  0.12508985670E+03 0.  0.
          5    1    3    3  502    0  0.20484635608E+02 -0.94547899430E+00  0.62101454268E+01  0.21830083205E+02  0.41800000000E+01 0. -1.
         -5    1    3    3    0  502  0.12743269332E+02  0.10432247340E+03 -0.26873285916E+03  0.28858342184E+03  0.41800000000E+01 0. -1.
        -11    1    1    2    0    0  0.25507924517E+02 -0.43843706812E+02 -0.77305332818E+02  0.92461015148E+02  0.00000000000E+00 0.  1.
         11    1    1    2    0    0 -0.58735829457E+02 -0.59533287599E+02 -0.26224531208E+03  0.27525754068E+03  0.00000000000E+00 0. -1.
</event>
<event>
 7    1  0.2688177E-009  0.1037945E+03  0.7561462E-02  0.1272513E+00
          1   -1    0    0  501    0  0.00000000000E+00  0.00000000000E+00  0.94896116324E+03  0.94896116324E+03  0.00000000000E+00 0. -1.
         -1   -1    0    0    0  501 -0.00000000000E+00 -0.00000000000E+00 -0.25935454448E+02  0.25935454448E+02  0.00000000000E+00 0.  1.
         25    2    1    2    0    0  0.15273086735E+02  0.32049979415E+02  0.82809648612E+03  0.83824503680E+03  0.12510189064E+03 0.  0.
          5    1    3    3  502    0 -0.50476376783E+02  0.36742176336E+02  0.34134294465E+03  0.34703073409E+03  0.41800000000E+01 0. -1.
         -5    1    3    3    0  502  0.65749463518E+02 -0.46921969206E+01  0.48675354147E+03  0.49121430272E+03  0.41800000000E+01 0. -1.
        -11    1    1    2    0    0  0.15309008963E+02 -0.43651872424E+02  0.12421999022E+02  0.47897367164E+02  0.00000000000E+00 0.  1.
         11    1    1    2    0    0 -0.30582095698E+02  0.11601893009E+02  0.82507223655E+02  0.88754213725E+02  0.00000000000E+00 0. -1.
</event>
<event>
 7    1  0.2688177E-009  0.1519648E+03  0.7561462E-02  0.1198079E+00
          3   -1    0    0  501    0  0.00000000000E+00  0.00000000000E+00  0.17959237940E+03  0.17959237940E+03  0.00000000000E+00 0. -1.
         -3   -1    0    0    0  501 -0.00000000000E+00 -0.00000000000E+00 -0.14864860516E+03  0.14864860516E+03  0.00000000000E+00 0.  1.
         25    2    1    2    0    0 -0.10112391052E+03 -0.59455427940E+02 -0.15725835421E+02  0.17220921719E+03  0.12509084457E+03 0.  0.
          5    1    3    3  502    0 -0.12524852355E+03 -0.28474194853E+02  0.29082359753E+01  0.12854533309E+03  0.41800000000E+01 0.  1.
         -5    1    3    3    0  502  0.24124613029E+02 -0.30981233087E+02 -0.18634071396E+02  0.43663884094E+02  0.41800000000E+01 0.  1.
        -11    1    1    2    0    0  0.12134774117E+02 -0.15425692249E+02 -0.14708994142E+02  0.24526704485E+02  0.00000000000E+00 0.  1.
         11    1    1    2    0    0  0.88989136404E+02  0.74881120189E+02  0.61378603801E+02  0.13150506288E+03  0.00000000000E+00 0. -1.
</event>
<event>
 7    1  0.2688177E-009  0.1412666E+03  0.7561462E-02  0.1211635E+00
          1   -1    0    0  501    0  0.00000000000E+00  0.00000000000E+00  0.12414935570E+04  0.12414935570E+04  0.00000000000E+00 0. -1.
         -1   -1    0    0    0  501 -0.00000000000E+00 -0.00000000000E+00 -0.17840554998E+02  0.17840554998E+02  0.00000000000E+00 0.  1.
         25    2    1    2    0    0 -0.49163279937E+02 -0.88960110239E+02  0.67415269050E+03  0.69315198648E+03  0.12508755711E+03 0.  0.
          5    1    3    3  502    0 -0.64946052102E+02 -0.11174004771E+03  0.60234152085E+03  0.61606542516E+03  0.41800000000E+01 0.  1.
         -5    1    3    3    0  502  0.15782772165E+02  0.22779937472E+02  0.71811169655E+02  0.77086561317E+02  0.41800000000E+01 0.  1.
        -11    1    1    2    0    0  0.20701211845E+02 -0.94471566915E+01  0.36187591338E+02  0.42747288899E+02  0.00000000000E+00 0.  1.
         11    1    1    2    0    0  0.28462068092E+02  0.98407266931E+02  0.51331272018E+03  0.52343483664E+03  0.00000000000E+00 0. -1.
</event>
<event>
 7    1  0.2688177E-009  0.9457360E+02  0.7561462E-02  0.1292139E+00
          2   -1    0    0  501    0  0.00000000000E+00  0.00000000000E+00  0.60698485543E+03  0.60698485543E+03  0.00000000000E+00 0. -1.
         -2   -1    0    0    0  501 -0.00000000000E+00 -0.00000000000E+00 -0.20633027798E+02  0.20633027798E+02  0.00000000000E+00 0.  1.
         25    2    1    2    0    0  0.75759621883E+00  0.14043794735E+02  0.38175457368E+03  0.40196999340E+03  0.12508204885E+03 0.  0.
          5    1    3    3  502    0 -0.55016732321E+02  0.33505801784E+02  0.23534020051E+03  0.24403270675E+03  0.41800000000E+01 0. -1.
         -5    1    3    3    0  502  0.55774328540E+02 -0.19462007050E+02  0.14641437317E+03  0.15793728665E+03  0.41800000000E+01 0. -1.
        -11    1    1    2    0    0 -0.31927637293E+02 -0.21049943731E+01  0.18326019035E+03  0.18603253046E+03  0.00000000000E+00 0. -1.
         11    1    1    2    0    0  0.31170041075E+02 -0.11938800362E+02  0.21337063610E+02  0.39615359372E+02  0.00000000000E+00 0.  1.
</event>
<event>
 7    1  0.2688177E-009  0.2027698E+03  0.7561462E-02  0.1147423E+00
          2   -1    0    0  501    0  0.00000000000E+00  0.00000000000E+00  0.30119173961E+03  0.30119173961E+03  0.00000000000E+00 0. -1.
         -2   -1    0    0    0  501 -0.00000000000E+00 -0.00000000000E+00 -0.19921645327E+03  0.19921645327E+03  0.00000000000E+00 0.  1.
         25    2    1    2    0    0  0.16150639082E+03  0.95632073446E+02 -0.61403751875E+02  0.23376285841E+03  0.12507935673E+03 0.  0.
          5    1    3    3  502    0  0.12233966342E+03  0.93718660720E+01 -0.64905136936E+02  0.13887035076E+03  0.41800000000E+01 0. -1.
         -5    1    3    3    0  502  0.39166727406E+02  0.86260207374E+02  0.35013850606E+01  0.94892507656E+02  0.41800000000E+01 0. -1.
        -11    1    1    2    0    0 -0.13837129707E+02 -0.11472722683E+02 -0.12627884577E+02  0.21967088864E+02  0.00000000000E+00 0.  1.
         11    1    1    2    0    0 -0.14766926112E+03 -0.84159350764E+02  0.17600692279E+03  0.24467824560E+03  0.00000000000E+00 0. -1.
</event>
<event>
 7    1  0.2688177E-009  0.8802631E+02  0.7561462E-02  0.1307703E+00
         -2   -1    0    0    0  501 -0.00000000000E+00  0.00000000000E+00  0.44782959840E+02  0.44782959840E+02  0.00000000000E+00 0. -1.
          2   -1    0    0  501    0  0.00000000000E+00 -0.00000000000E+00 -0.36370846534E+03  0.36370846534E+03  0.00000000000E+00 0.  1.
         25    2    1    2    0    0 -0.47978659718E+02 -0.72310240561E+01 -0.10450768589E+03  0.17006807239E+03  0.12508818225E+03 0.  0.
          5    1    3    3  502    0  0.32027579775E+02  0.12549471138E+02  0.27253967546E+01  0.34758528156E+02  0.41800000000E+01 0. -1.
         -5    1    3    3    0  502 -0.80006239493E+02 -0.19780495194E+02 -0.10723308264E+03  0.13530954423E+03  0.41800000000E+01 0. -1.
        -11    1    1    2    0    0  0.12812281921E+02 -0.13046955973E+02  0.18494280743E+01  0.18379282151E+02  0.00000000000E+00 0. -1.
         11    1    1    2    0    0  0.35166377797E+02  0.20277980029E+02 -0.21626724769E+03  0.22004407064E+03  0.00000000000E+00 0.  1.
</event>
<event>
 7    1  0.2688177E-009  0.7068885E+02  0.7561462E-02  0.1357766E+00
         -2   -1    0    0    0  501 -0.00000000000E+00  0.00000000000E+00  0.27095186426E+03  0.27095186426E+03  0.00000000000E+00 0.  1.
          2   -1    0    0  501    0  0.00000000000E+00 -0.00000000000E+00 -0.52860530353E+02  0.52860530353E+02  0.00000000000E+00 0. -1.
         25    2    1    2    0    0  0.31250796204E+02  0.23395002694E+02  0.10076974948E+03  0.16530725283E+03  0.12509199420E+03 0.  0.
          5    1    3    3  502    0  0.12901387256E+02 -0.13256266479E+02  0.11882161986E+03  0.12032549247E+03  0.41800000000E+01 0.  1.
         -5    1    3    3    0  502  0.18349408948E+02  0.36651269174E+02 -0.18051870371E+02  0.44981760355E+02  0.41800000000E+01 0.  1.
        -11    1    1    2    0    0  0.44096746567E+01 -0.41143841039E+02  0.79907275932E+01  0.42143951090E+02  0.00000000000E+00 0. -1.
         11    1    1    2    0    0 -0.35660470861E+02  0.17748838345E+02  0.10933085683E+03  0.11636119069E+03  0.00000000000E+00 0.  1.
</event>
<event>
 7    1  0.2688177E-009  0.1339650E+03  0.7561462E-02  0.1221688E+00
          4   -1    0    0  501    0  0.00000000000E+00  0.00000000000E+00  0.68971290609E+02  0.68971290609E+02  0.00000000000E+00 0. -1.
         -4   -1    0    0    0  501 -0.00000000000E+00 -0.00000000000E+00 -0.26961643376E+03  0.26961643376E+03  0.00000000000E+00 0.  1.
         25    2    1    2    0    0  0.68963181980E+01  0.82344462003E+02 -0.12083382896E+03  0.19255238421E+03  0.12508971508E+03 0.  0.
          5    1    3    3  502    0 -0.34797184909E+02 -0.17455649754E+02 -0.48660000406E+02  0.62456479451E+02  0.41800000000E+01 0. -1.
         -5    1    3    3    0  502  0.41693503107E+02  0.99800111757E+02 -0.72173828552E+02  0.13009590476E+03  0.41800000000E+01 0. -1.
        -11    1    1    2    0    0 -0.11041120248E+02 -0.10091075990E+03 -0.57321327779E+02  0.11657882491E+03  0.00000000000E+00 0.  1.
         11    1    1    2    0    0  0.41448020504E+01  0.18566297894E+02 -0.22489986415E+02  0.29456515246E+02  0.00000000000E+00 0. -1.
</event>
<event>
 7    1  0.2688177E-009  0.6149317E+02  0.7561462E-02  0.1391670E+00
         -3   -1    0    0    0  501 -0.00000000000E+00  0.00000000000E+00  0.20180348491E+03  0.20180348491E+03  0.00000000000E+00 0.  1.
          3   -1    0    0  501    0  0.00000000000E+00 -0.00000000000E+00 -0.67788213941E+02  0.67788213941E+02  0.00000000000E+00 0. -1.
         25    2    1    2    0    0  0.45380964157E+02  0.40869027800E+00  0.76261920771E+02  0.15336723035E+03  0.12508408312E+03 0.  0.
          5    1    3    3  502    0  0.49341154509E+02 -0.17445802474E+02  0.10595229053E+03  0.11824663133E+03  0.41800000000E+01 0.  1.
         -5    1    3    3    0  502 -0.39601903521E+01  0.17854492752E+02 -0.29690369758E+02  0.35120599018E+02  0.41800000000E+01 0.  1.
        -11    1    1    2    0    0 -0.15897689936E+02  0.11815970665E+02  0.76626182095E+02  0.79144965036E+02  0.00000000000E+00 0.  1.
         11    1    1    2    0    0 -0.29483274221E+02 -0.12224660943E+02 -0.18872831894E+02  0.37079503472E+02  0.00000000000E+00 0. -1.
</event>
<event>
 7    1  0.2688177E-009  0.1711073E+03  0.7561462E-02  0.1176698E+00
         -2   -1    0    0    0  501 -0.00000000000E+00  0.00000000000E+00  0.53704346035E+02  0.53704346035E+02  0.00000000000E+00 0.  1.
          2   -1    0    0  501    0  0.00000000000E+00 -0.00000000000E+00 -0.62799326281E+03  0.62799326281E+03  0.00000000000E+00 0. -1.
         25    2    1    2    0    0  0.64815678276E+02  0.13203536073E+03 -0.32298587571E+03  0.37629774812E+03  0.12508281536E+03 0.  0.
          5    1    3    3  502    0 -0.37135990100E+02  0.31589357724E+02 -0.66653430652E+02  0.82686888318E+02  0.41800000000E+01 0. -1.
         -5    1    3    3    0  502  0.10195166838E+03  0.10044600301E+03 -0.25633244506E+03  0.29361085980E+03  0.41800000000E+01 0. -1.
        -11    1    1    2    0    0 -0.55901489552E+02 -0.81782256978E+02 -0.82082096662E+02  0.12864985302E+03  0.00000000000E+00 0.  1.
         11    1    1    2    0    0 -0.89141887238E+01 -0.50253103752E+02 -0.16922094440E+03  0.17675000770E+03  0.00000000000E+00 0. -1.
</event>
<event>
 7    1  0.2688177E-009  0.1188988E+03  0.7561462E-02  0.1244925E+00
         -2   -1    0    0    0  501 -0.00000000000E+00  0.00000000000E+00  0.25533106015E+02  0.25533106015E+02  0.00000000000E+00 0.  1.
          2   -1    0    0  501    0  0.00000000000E+00 -0.00000000000E+00 -0.68705205261E+03  0.68705205261E+03  0.00000000000E+00 0. -1.
         25    2    1    2    0    0  0.23196526938E+02 -0.46722386514E+02 -0.50881471411E+03  0.52655664971E+03  0.12509369205E+03 0.  0.
          5    1    3    3  502    0  0.52432664253E+02  0.24682073690E+02 -0.20577466415E+03  0.21382019046E+03  0.41800000000E+01 0. -1.
         -5    1    3    3    0  502 -0.29236137316E+02 -0.71404460203E+02 -0.30304004996E+03  0.31273645924E+03  0.41800000000E+01 0. -1.
        -11    1    1    2    0    0  0.13885786011E+02 -0.21022443370E+02 -0.18749957922E+02  0.31405717639E+02  0.00000000000E+00 0.  1.
         11    1    1    2    0    0 -0.37082312949E+02  0.67744829883E+02 -0.13395427456E+03  0.15462279128E+03  0.00000000000E+00 0. -1.
</event>
<event>
 7    1  0.2688177E-009  0.8088972E+02  0.7561462E-02  0.1326545E+00
          1   -1    0    0  501    0  0.00000000000E+00  0.00000000000E+00  0.92422042031E+02  0.92422042031E+02  0.00000000000E+00 0. -1.
         -1   -1    0    0    0  501 -0.00000000000E+00 -0.00000000000E+00 -0.14516679886E+03  0.14516679886E+03  0.00000000000E+00 0.  1.
         25    2    1    2    0    0 -0.33452380658E+01 -0.23519793983E+02 -0.74363900717E+02  0.14744845568E+03  0.12508671403E+03 0.  0.
          5    1    3    3  502    0  0.41779940193E+02  0.22522636060E+02 -0.67299846211E+02  0.82459530908E+02  0.41800000000E+01 0. -1.
         -5    1    3    3    0  502 -0.45125178258E+02 -0.46042430044E+02 -0.70640545063E+01  0.64988924774E+02  0.41800000000E+01 0. -1.
        -11    1    1    2    0    0 -0.18068449736E+02  0.21402772549E+02 -0.25791185752E+02  0.38075357006E+02  0.00000000000E+00 0.  1.
         11    1    1    2    0    0  0.21413687802E+02  0.21170214347E+01  0.47410329642E+02  0.52065028203E+02  0.00000000000E+00 0. -1.
</event>
<event>
 7    1  0.2688177E-009  0.1220233E+03  0.7561462E-02  0.1239796E+00
          4   -1    0    0  501    0  0.00000000000E+00  0.00000000000E+00  0.16234710973E+02  0.16234710973E+02  0.00000000000E+00 0. -1.
         -4   -1    0    0    0  501 -0.00000000000E+00 -0.00000000000E+00 -0.92624273232E+03  0.92624273232E+03  0.00000000000E+00 0.  1.
         25    2    1    2    0    0  0.44093718903E+02  0.36372658063E+02 -0.51306782675E+03  0.53118107998E+03  0.12509004190E+03 0.  0.
          5    1    3    3  502    0  0.13574466958E+02 -0.46621823805E+02 -0.19828681613E+03  0.20418862470E+03  0.41800000000E+01 0.  1.
         -5    1    3    3    0  502  0.30519251945E+02  0.82994481868E+02 -0.31478101062E+03  0.32699245528E+03  0.41800000000E+01 0.  1.
        -11    1    1    2    0    0 -0.58390268292E+02  0.91182501830E+01 -0.19242333628E+03  0.20129407905E+03  0.00000000000E+00 0.  1.
         11    1    1    2    0    0  0.14296549389E+02 -0.45490908246E+02 -0.20451685832E+03  0.21000228426E+03  0.00000000000E+00 0. -1.
</event>
<event>
 7    1  0.2688177E-009  0.1129991E+03  0.7561462E-02  0.1255115E+00
         -2   -1    0    0    0  501 -0.00000000000E+00  0.00000000000E+00  0.28142801055E+03  0.28142801055E+03  0.00000000000E+00 0.  1.
          2   -1    0    0  501    0  0.00000000000E+00 -0.00000000000E+00 -0.58436959929E+02  0.58436959929E+02  0.00000000000E+00 0. -1.
         25    2    1    2    0    0  0.43800670319E+02  0.38694117195E+02  0.16924837716E+03  0.21842209362E+03  0.12508982526E+03 0.  0.
          5    1    3    3  502    0  0.57136857754E+02 -0.31477913631E+02  0.94927407653E+02  0.11525695070E+03  0.41800000000E+01 0.  1.
         -5    1    3    3    0  502 -0.13336187435E+02  0.70172030826E+02  0.74320969509E+02  0.10316514292E+03  0.41800000000E+01 0.  1.
        -11    1    1    2    0    0 -0.47320272880E+02  0.28321655170E+01 -0.68546347308E+01  0.47897968686E+02  0.00000000000E+00 0. -1.
         11    1    1    2    0    0  0.35196025614E+01 -0.41526282712E+02  0.60597308194E+02  0.73544908175E+02  0.00000000000E+00 0.  1.
</event>
<event>
 7    1  0.2688177E-009  0.3307092E+03  0.7561462E-02  0.1070824E+00
          2   -1    0    0  501    0  0.00000000000E+00  0.00000000000E+00  0.10660076058E+04  0.10660076058E+04  0.00000000000E+00 0. -1.
         -2   -1    0    0    0  501 -0.00000000000E+00 -0.00000000000E+00 -0.14301540260E+03  0.14301540260E+03  0.00000000000E+00 0.  1.
         25    2    1    2    0    0  0.29489464108E+03 -0.12941076936E+03  0.17020035990E+03  0.38513193159E+03  0.12509374747E+03 0.  0.
          5    1    3    3  502    0  0.18410666433E+03 -0.13392902456E+03  0.77459641933E+02  0.24051967903E+03  0.41800000000E+01 0.  1.
         -5    1    3    3    0  502  0.11078797676E+03  0.45182552020E+01  0.92740717963E+02  0.14461225257E+03  0.41800000000E+01 0.  1.
        -11    1    1    2    0    0 -0.20575467284E+03  0.10091825841E+03  0.62351564630E+03  0.66429755491E+03  0.00000000000E+00 0.  1.
         11    1    1    2    0    0 -0.89139968239E+02  0.28492510954E+02  0.12927619701E+03  0.15959352189E+03  0.00000000000E+00 0. -1.
</event>
<event>
 7    1  0.2688177E-009  0.3186317E+03  0.7561462E-02  0.1076281E+00
          2   -1    0    0  501    0  0.00000000000E+00  0.00000000000E+00  0.10747551363E+04  0.10747551363E+04  0.00000000000E+00 0. -1.
         -2   -1    0    0    0  501 -0.00000000000E+00 -0.00000000000E+00 -0.11772983554E+03  0.11772983554E+03  0.00000000000E+00 0.  1.
         25    2    1    2    0    0 -0.27030576980E+03 -0.16639859395E+03  0.68282775540E+03  0.76331819356E+03  0.12508884771E+03 0.  0.
          5    1    3    3  502    0 -0.11544814030E+03 -0.50331096627E+02  0.40905852730E+03  0.42802785370E+03  0.41800000000E+01 0.  1.
         -5    1    3    3    0  502 -0.15485762950E+03 -0.11606749732E+03  0.27376922810E+03  0.33529033986E+03  0.41800000000E+01 0.  1.
        -11    1    1    2    0    0  0.93830431087E+02  0.65039387729E+02  0.45157855869E+02  0.12277419803E+03  0.00000000000E+00 0.  1.
         11    1    1    2    0    0  0.17647533872E+03  0.10135920622E+03  0.22903968947E+03  0.30639258022E+03  0.00000000000E+00 0. -1.
</event>
<event>
 7    1  0.2688177E-009  0.1165886E+03  0.7561462E-02  0.1248833E+00
         -1   -1    0    0    0  501 -0.00000000000E+00  0.00000000000E+00  0.27691843444E+02  0.27691843444E+02  0.00000000000E+00 0.  1.
          1   -1    0    0  501    0  0.00000000000E+00 -0.00000000000E+00 -0.83126200062E+03  0.83126200062E+03  0.00000000000E+00 0. -1.
         25    2    1    2    0    0  0.23246526955E+02 -0.65673839428E+02 -0.20957020016E+03  0.25381795385E+03  0.12510168144E+03 0.  0.
          5    1    3    3  502    0 -0.12246285020E+02 -0.79816066315E+02 -0.19769354889E+03  0.21359023295E+03  0.41800000000E+01 0. -1.
         -5    1    3    3    0  502  0.35492811975E+02  0.14142226887E+02 -0.11876651272E+02  0.40227720898E+02  0.41800000000E+01 0. -1.
        -11    1    1    2    0    0 -0.57782988290E+02  0.47830379860E+02 -0.43725886863E+03  0.44364618467E+03  0.00000000000E+00 0. -1.
         11    1    1    2    0    0  0.34536461335E+02  0.17843459568E+02 -0.15674108839E+03  0.16148970555E+03  0.00000000000E+00 0.  1.
</event>
<event>
 7    1  0.2688177E-009  0.1487105E+03  0.7561462E-02  0.1202067E+00
          3   -1    0    0  501    0  0.00000000000E+00  0.00000000000E+00  0.75625380005E+03  0.75625380005E+03  0.00000000000E+00 0. -1.
         -3   -1    0    0    0  501 -0.00000000000E+00 -0.00000000000E+00 -0.36295474748E+02  0.36295474748E+02  0.00000000000E+00 0.  1.
         25    2    1    2    0    0  0.11509342863E+03 -0.23151926099E+02  0.31361770745E+03  0.35747192540E+03  0.12509037542E+03 0.  0.
          5    1    3    3  502    0 -0.11349408238E+02 -0.80292656980E+01  0.14702976194E+03  0.14774471724E+03  0.41800000000E+01 0. -1.
         -5    1    3    3    0  502  0.12644283687E+03 -0.15122660401E+02  0.16658794551E+03  0.20972720816E+03  0.41800000000E+01 0. -1.
        -11    1    1    2    0    0 -0.63745984315E+02 -0.39109999730E+02  0.19341091390E+03  0.20736664199E+03  0.00000000000E+00 0. -1.
         11    1    1    2    0    0 -0.51347444315E+02  0.62261925829E+02  0.21292970395E+03  0.22771070741E+03  0.00000000000E+00 0.  1.
</event>
<event>
 7    1  0.2688177E-009  0.9278886E+02  0.7561462E-02  0.1296235E+00
         -2   -1    0    0    0  501 -0.00000000000E+00  0.00000000000E+00  0.20651018549E+02  0.20651018549E+02  0.00000000000E+00 0.  1.
          2   -1    0    0  501    0  0.00000000000E+00 -0.00000000000E+00 -0.57119890762E+03  0.57119890762E+03  0.00000000000E+00 0. -1.
         25    2    1    2    0    0  0.32403033373E+02 -0.26169687493E+02 -0.29260278156E+03  0.32093223933E+03  0.12508519237E+03 0.  0.
          5    1    3    3  502    0 -0.17249725541E+02 -0.58078635429E+02 -0.21459485695E+03  0.22302265794E+03  0.41800000000E+01 0. -1.
         -5    1    3    3    0  502  0.49652758914E+02  0.31908947937E+02 -0.78007924607E+02  0.97909581389E+02  0.41800000000E+01 0. -1.
        -11    1    1    2    0    0  0.10576259526E+02 -0.58463158246E+01 -0.62985015742E+01  0.13627464781E+02  0.00000000000E+00 0.  1.
         11    1    1    2    0    0 -0.42979292899E+02  0.32016003317E+02 -0.25164660594E+03  0.25729022206E+03  0.00000000000E+00 0. -1.
</event>
<event>
 7    1  0.2688177E-009  0.2681807E+03  0.7561462E-02  0.1102325E+00
          2   -1    0    0  501    0  0.00000000000E+00  0.00000000000E+00  0.10416381345E+04  0.10416381345E+04  0.00000000000E+00 0. -1.
         -2   -1    0    0    0  501 -0.00000000000E+00 -0.00000000000E+00 -0.77595801286E+02  0.77595801286E+02  0.00000000000E+00 0.  1.
         25    2    1    2    0    0 -0.79556536560E+02  0.25010351953E+03  0.47025197329E+03  0.55286972276E+03  0.12508796495E+03 0.  0.
          5    1    3    3  502    0 -0.13448738437E+02  0.66264002259E+01 -0.36429101330E+01  0.15985022356E+02  0.41800000000E+01 0.  1.
         -5    1    3    3    0  502 -0.66107798123E+02  0.24347711930E+03  0.47389488342E+03  0.53688470040E+03  0.41800000000E+01 0.  1.
        -11    1    1    2    0    0  0.51028003265E+02 -0.72898564260E+02  0.10162626644E+03  0.13507759184E+03  0.00000000000E+00 0.  1.
         11    1    1    2    0    0  0.28528533295E+02 -0.17720495527E+03  0.39216409346E+03  0.43128662115E+03  0.00000000000E+00 0. -1.
</event>
<event>
 7    1  0.2688177E-009  0.8906032E+02  0.7561462E-02  0.1305143E+00
         -2   -1    0    0    0  501 -0.00000000000E+00  0.00000000000E+00  0.61175083247E+02  0.61175083247E+02  0.00000000000E+00 0.  1.
          2   -1    0    0  501    0  0.00000000000E+00 -0.00000000000E+00 -0.21306064163E+03  0.21306064163E+03  0.00000000000E+00 0. -1.
         25    2    1    2    0    0 -0.10302909433E+02 -0.29687462925E+02 -0.10475206756E+03  0.16617817708E+03  0.12511872555E+03 0.  0.
          5    1    3    3  502    0 -0.38293129749E+02 -0.64163137591E+02 -0.33221724925E+02  0.81880568015E+02  0.41800000000E+01 0.  1.
         -5    1    3    3    0  502  0.27990220316E+02  0.34475674666E+02 -0.71530342633E+02  0.84297609066E+02  0.41800000000E+01 0.  1.
        -11    1    1    2    0    0  0.61725703922E+01  0.43667357508E+02  0.13163026886E+02  0.46023950436E+02  0.00000000000E+00 0.  1.
         11    1    1    2    0    0  0.41303390407E+01 -0.13979894583E+02 -0.60296517708E+02  0.62033597356E+02  0.00000000000E+00 0. -1.
</event>
<event>
 7    1  0.3345618E-009  0.1125635E+03  0.7561462E-02  0.1255895E+00
         -1   -1    0    0    0  501 -0.00000000000E+00  0.00000000000E+00  0.96194954161E+02  0.96194954161E+02  0.00000000000E+00 0.  1.
          1   -1    0    0  501    0  0.00000000000E+00 -0.00000000000E+00 -0.18359257649E+03  0.18359257649E+03  0.00000000000E+00 0. -1.
         25    2    1    2    0    0 -0.65586666065E+02  0.22964706970E+02 -0.13806709926E+02  0.14377157862E+03  0.12510257011E+03 0.  0.
          5    1    3    3  502    0 -0.89358221898E+02  0.52703873018E+02 -0.17504668763E+02  0.10529233534E+03  0.41800000000E+01 0.  1.
         -5    1    3    3    0  502  0.23771555833E+02 -0.29739166048E+02  0.36979588377E+01  0.38479243282E+02  0.41800000000E+01 0.  1.
        -11    1    1    2    0    0  0.64888663807E+02 -0.50657243364E+01 -0.51722197135E+01  0.65291286635E+02  0.00000000000E+00 0.  1.
         11    1    1    2    0    0  0.69800225882E+00 -0.17898982634E+02 -0.68418692690E+02  0.70724665400E+02  0.00000000000E+00 0. -1.
</event>
<event>
 7    1  0.2688177E-009  0.4514509E+03  0.7561462E-02  0.1027290E+00
          2   -1    0    0  501    0  0.00000000000E+00  0.00000000000E+00  0.61906013081E+03  0.61906013081E+03  0.00000000000E+00 0. -1.
         -2   -1    0    0    0  501 -0.00000000000E+00 -0.00000000000E+00 -0.38892814614E+03  0.38892814614E+03  0.00000000000E+00 0.  1.
         25    2    1    2    0    0 -0.35255906844E+03 -0.27808859175E+03  0.28528625311E+03  0.54650401607E+03  0.12508889545E+03 0.  0.
          5    1    3    3  502    0 -0.83143562606E+01  0.26482832590E+00 -0.10524126772E+02  0.14050918062E+02  0.41800000000E+01 0. -1.
         -5    1    3    3    0  502 -0.34424471218E+03 -0.27835342007E+03  0.29581037988E+03  0.53245309801E+03  0.41800000000E+01 0. -1.
        -11    1    1    2    0    0  0.89546789517E+02  0.94059610042E+02  0.21044296712E+02  0.13156253334E+03  0.00000000000E+00 0. -1.
         11    1    1    2    0    0  0.26301227893E+03  0.18402898170E+03 -0.76198565150E+02  0.32992172754E+03  0.00000000000E+00 0.  1.
</event>
<event>
 7    1  0.2688177E-009  0.9892543E+02  0.7561462E-02  0.1282572E+00
         -2   -1    0    0    0  501 -0.00000000000E+00  0.00000000000E+00  0.26580632797E+03  0.26580632797E+03  0.00000000000E+00 0.  1.
          2   -1    0    0  501    0  0.00000000000E+00 -0.00000000000E+00 -0.75496467395E+02  0.75496467395E+02  0.00000000000E+00 0. -1.
         25    2    1    2    0    0  0.26453639217E+02 -0.35137353177E+01 -0.87858105483E+00  0.12790909816E+03  0.12509126318E+03 0.  0.
          5    1    3    3  502    0 -0.48168701112E+02 -0.14567251411E+02  0.10294253937E+02  0.51535159305E+02  0.41800000000E+01 0. -1.
         -5    1    3    3    0  502  0.74622340329E+02  0.11053516094E+02 -0.11172834992E+02  0.76373938853E+02  0.41800000000E+01 0. -1.
        -11    1    1    2    0    0 -0.39313294683E+02 -0.20666877079E+02  0.17712075016E+03  0.18260453194E+03  0.00000000000E+00 0.  1.
         11    1    1    2    0    0  0.12859655466E+02  0.24180612397E+02  0.14067691469E+02  0.30789165267E+02  0.00000000000E+00 0. -1.
</event>
<event>
 7    1  0.2688177E-009  0.7476326E+02  0.7561462E-02  0.1344606E+00
          2   -1    0    0  501    0  0.00000000000E+00  0.00000000000E+00  0.22751935476E+03  0.22751935476E+03  0.00000000000E+00 0. -1.
         -2   -1    0    0    0  501 -0.00000000000E+00 -0.00000000000E+00 -0.63401087657E+02  0.63401087657E+02  0.00000000000E+00 0.  1.
         25    2    1    2    0    0 -0.87107914629E+01 -0.30253353683E+02  0.67791328193E+02  0.14572259241E+03  0.12509303124E+03 0.  0.
          5    1    3    3  502    0 -0.40501082610E+02 -0.10286169969E+02  0.91810862674E+02  0.10095964486E+03  0.41800000000E+01 0.  1.
         -5    1    3    3    0  502  0.31790291147E+02 -0.19967183714E+02 -0.24019534482E+02  0.44762947550E+02  0.41800000000E+01 0.  1.
        -11    1    1    2    0    0  0.33499680061E+02  0.29998369730E+02 -0.78168761341E+00  0.44974901736E+02  0.00000000000E+00 0.  1.
         11    1    1    2    0    0 -0.24788888598E+02  0.25498395286E+00  0.97108626522E+02  0.10022294827E+03  0.00000000000E+00 0. -1.
</event>
<event>
 7    1  0.2688177E-009  0.1231701E+03  0.7561462E-02  0.1237957E+00
          2   -1    0    0  501    0  0.00000000000E+00  0.00000000000E+00  0.58584511402E+03  0.58584511402E+03  0.00000000000E+00 0.  1.
         -2   -1    0    0    0  501 -0.00000000000E+00 -0.00000000000E+00 -0.27479202424E+02  0.27479202424E+02  0.00000000000E+00 0. -1.
         25    2    1    2    0    0  0.21393424507E+02 -0.57523693564E+02  0.34816036322E+03  0.37500733661E+03  0.12509280579E+03 0.  0.
          5    1    3    3  502    0 -0.35061300155E+02 -0.71387068360E+02  0.22681569403E+03  0.24039184628E+03  0.41800000000E+01 0.  1.
         -5    1    3    3    0  502  0.56454724662E+02  0.13863374796E+02  0.12134466919E+03  0.13461549034E+03  0.41800000000E+01 0.  1.
        -11    1    1    2    0    0 -0.27939392507E+02  0.80140340684E+02  0.18651216375E+03  0.20491430181E+03  0.00000000000E+00 0.  1.
         11    1    1    2    0    0  0.65459679999E+01 -0.22616647120E+02  0.23693384617E+02  0.33402678016E+02  0.00000000000E+00 0. -1.
</event>
<event>
 7    1  0.2688177E-009  0.3459354E+03  0.7561462E-02  0.1064296E+00
         -2   -1    0    0    0  501 -0.00000000000E+00  0.00000000000E+00  0.23681584686E+03  0.23681584686E+03  0.00000000000E+00 0.  1.
          2   -1    0    0  501    0  0.00000000000E+00 -0.00000000000E+00 -0.55999593345E+03  0.55999593345E+03  0.00000000000E+00 0. -1.
         25    2    1    2    0    0  0.18686867072E+03 -0.28533416565E+03 -0.91174322649E+02  0.37455846336E+03  0.12508316904E+03 0.  0.
          5    1    3    3  502    0  0.16991080709E+03 -0.27575111433E+03 -0.48592696991E+02  0.32754706841E+03  0.41800000000E+01 0. -1.
         -5    1    3    3    0  502  0.16957863629E+02 -0.95830513214E+01 -0.42581625658E+02  0.47011394950E+02  0.41800000000E+01 0. -1.
        -11    1    1    2    0    0 -0.16441352705E+03  0.19558035159E+03 -0.19958022413E+03  0.32421558825E+03  0.00000000000E+00 0.  1.
         11    1    1    2    0    0 -0.22455143674E+02  0.89753814066E+02 -0.32425539804E+02  0.98037728699E+02  0.00000000000E+00 0. -1.
</event>
<event>
 7    1  0.2688177E-009  0.1285532E+03  0.7561462E-02  0.1229618E+00
         -2   -1    0    0    0  501 -0.00000000000E+00  0.00000000000E+00  0.41886348828E+03  0.41886348828E+03  0.00000000000E+00 0.  1.
          2   -1    0    0  501    0  0.00000000000E+00 -0.00000000000E+00 -0.55924687832E+02  0.55924687832E+02  0.00000000000E+00 0. -1.
         25    2    1    2    0    0 -0.48237164875E+02  0.93904302474E+02  0.22055181974E+03  0.27465554334E+03  0.12509084779E+03 0.  0.
          5    1    3    3  502    0 -0.41550412916E+02  0.19269160109E+02  0.18677564989E+03  0.19235475855E+03  0.41800000000E+01 0. -1.
         -5    1    3    3    0  502 -0.66867519588E+01  0.74635142365E+02  0.33776169844E+02  0.82300784789E+02  0.41800000000E+01 0. -1.
        -11    1    1    2    0    0  0.72686211463E+02 -0.79360067480E+02  0.13088661472E+03  0.16944796122E+03  0.00000000000E+00 0.  1.
         11    1    1    2    0    0 -0.24449046588E+02 -0.14544234994E+02  0.11500365993E+02  0.30684671558E+02  0.00000000000E+00 0. -1.
</event>
<event>
 7    1  0.2688177E-009  0.5966284E+02  0.7561462E-02  0.1399252E+00
         -1   -1    0    0    0  501 -0.00000000000E+00  0.00000000000E+00  0.10865517914E+03  0.10865517914E+03  0.00000000000E+00 0.  1.
          1   -1    0    0  501    0  0.00000000000E+00 -0.00000000000E+00 -0.12220389890E+03  0.12220389890E+03  0.00000000000E+00 0. -1.
         25    2    1    2    0    0  0.12762867167E+02 -0.37986798963E+02  0.12703982755E+01  0.13135440839E+03  0.12508588657E+03 0.  0.
          5    1    3    3  502    0  0.18840387680E+02  0.79323906663E+01  0.55865895318E+02  0.59635171579E+02  0.41800000000E+01 0. -1.
         -5    1    3    3    0  502 -0.60775205124E+01 -0.45919189629E+02 -0.54595497043E+02  0.71719236814E+02  0.41800000000E+01 0. -1.
        -11    1    1    2    0    0  0.89537368220E+01  0.25217939443E+02  0.34774590351E+02  0.43879220674E+02  0.00000000000E+00 0.  1.
         11    1    1    2    0    0 -0.21716603989E+02  0.12768859520E+02 -0.49593708381E+02  0.55625448971E+02  0.00000000000E+00 0. -1.
</event>
<event>
 7    1  0.2688177E-009  0.8351603E+02  0.7561462E-02  0.1319360E+00
         -2   -1    0    0    0  501 -0.00000000000E+00  0.00000000000E+00  0.11650673331E+03  0.11650673331E+03  0.00000000000E+00 0.  1.
          2   -1    0    0  501    0  0.00000000000E+00 -0.00000000000E+00 -0.10637698766E+03  0.10637698766E+03  0.00000000000E+00 0. -1.
         25    2    1    2    0    0 -0.22779006672E+02 -0.18364939432E+02  0.11541512893E+02  0.12899181723E+03  0.12509807451E+03 0.  0.
          5    1    3    3  502    0  0.38164888762E+02 -0.37052777458E+02 -0.20949662327E+02  0.57322140602E+02  0.41800000000E+01 0. -1.
         -5    1    3    3    0  502 -0.60943895434E+02  0.18687838026E+02  0.32491175221E+02  0.71669676628E+02  0.41800000000E+01 0. -1.
        -11    1    1    2    0    0  0.98644082517E+01  0.30510262834E+02 -0.40094857501E+02  0.51339850860E+02  0.00000000000E+00 0. -1.
         11    1    1    2    0    0  0.12914598420E+02 -0.12145323402E+02  0.38683090252E+02  0.42552052881E+02  0.00000000000E+00 0.  1.
</event>
<event>
 7    1  0.2688177E-009  0.8768766E+02  0.7561462E-02  0.1308550E+00
         -4   -1    0    0    0  501 -0.00000000000E+00  0.00000000000E+00  0.90550730178E+02  0.90550730178E+02  0.00000000000E+00 0.  1.
          4   -1    0    0  501    0  0.00000000000E+00 -0.00000000000E+00 -0.20677227307E+03  0.20677227307E+03  0.00000000000E+00 0. -1.
         25    2    1    2    0    0  0.63005474567E+02  0.39636844895E+02 -0.23253998286E+02  0.14740766567E+03  0.12508997627E+03 0.  0.
          5    1    3    3  502    0  0.90219209584E+01  0.23517553969E+02  0.49260407496E+02  0.55484507289E+02  0.41800000000E+01 0. -1.
         -5    1    3    3    0  502  0.53983553608E+02  0.16119290927E+02 -0.72514405781E+02  0.91923158377E+02  0.41800000000E+01 0. -1.
        -11    1    1    2    0    0  0.10661903622E+02 -0.71405350333E+01  0.12037151962E+02  0.17594216572E+02  0.00000000000E+00 0.  1.
         11    1    1    2    0    0 -0.73667378189E+02 -0.32496309862E+02 -0.10500469657E+03  0.13232112101E+03  0.00000000000E+00 0. -1.
</event>
<event>
 7    1  0.2688177E-009  0.1663221E+03  0.7561462E-02  0.1181738E+00
         -1   -1    0    0    0  501 -0.00000000000E+00  0.00000000000E+00  0.50589855108E+02  0.50589855108E+02  0.00000000000E+00 0.  1.
          1   -1    0    0  501    0  0.00000000000E+00 -0.00000000000E+00 -0.60738808407E+03  0.60738808407E+03  0.00000000000E+00 0. -1.
         25    2    1    2    0    0  0.78538455924E+02  0.10834494475E+03 -0.22942268858E+03  0.29357926954E+03  0.12508837419E+03 0.  0.
          5    1    3    3  502    0 -0.20646295189E+02  0.71510753374E+02 -0.70447421519E+02  0.10256884981E+03  0.41800000000E+01 0.  1.
         -5    1    3    3    0  502  0.99184751113E+02  0.36834191380E+02 -0.15897526706E+03  0.19101041973E+03  0.41800000000E+01 0.  1.
        -11    1    1    2    0    0 -0.68584565288E+02 -0.32822745505E+02 -0.21983290385E+03  0.23261057765E+03  0.00000000000E+00 0. -1.
         11    1    1    2    0    0 -0.99538906356E+01 -0.75522199249E+02 -0.10754263653E+03  0.13178809199E+03  0.00000000000E+00 0.  1.
</event>
<event>
 7    1  0.2688177E-009  0.8924496E+02  0.7561462E-02  0.1304690E+00
         -4   -1    0    0    0  501 -0.00000000000E+00  0.00000000000E+00  0.31283421296E+03  0.31283421296E+03  0.00000000000E+00 0.  1.
          4   -1    0    0  501    0  0.00000000000E+00 -0.00000000000E+00 -0.69738989535E+02  0.69738989535E+02  0.00000000000E+00 0. -1.
         25    2    1    2    0    0  0.42733854747E+02  0.57564185907E+02  0.41493325607E+02  0.15002752534E+03  0.12508694756E+03 0.  0.
          5    1    3    3  502    0  0.45710768989E+02  0.44190945929E+02 -0.34663639834E+02  0.72535194425E+02  0.41800000000E+01 0.  1.
         -5    1    3    3    0  502 -0.29769142426E+01  0.13373239977E+02  0.76156965441E+02  0.77492330918E+02  0.41800000000E+01 0.  1.
        -11    1    1    2    0    0 -0.54552170571E+02 -0.15434651713E+02  0.16820081935E+03  0.17749840398E+03  0.00000000000E+00 0.  1.
         11    1    1    2    0    0  0.11818315824E+02 -0.42129534194E+02  0.33401078471E+02  0.55047273169E+02  0.00000000000E+00 0. -1.
</event>
<event>
 7    1  0.2688177E-009  0.1326906E+03  0.7561462E-02  0.1223517E+00
          1   -1    0    0  501    0  0.00000000000E+00  0.00000000000E+00  0.11223222285E+03  0.11223222285E+03  0.00000000000E+00 0. -1.
         -1   -1    0    0    0  501 -0.00000000000E+00 -0.00000000000E+00 -0.24845033485E+03  0.24845033485E+03  0.00000000000E+00 0.  1.
         25    2    1    2    0    0  0.20287009546E+02 -0.88929566140E+02 -0.16667617412E+03  0.22748286240E+03  0.12508986840E+03 0.  0.
          5    1    3    3  502    0  0.62709681406E+02 -0.11595318150E+02 -0.49927566327E+02  0.81099875613E+02  0.41800000000E+01 0.  1.
         -5    1    3    3    0  502 -0.42422671860E+02 -0.77334247990E+02 -0.11674860779E+03  0.14638298679E+03  0.41800000000E+01 0.  1.
        -11    1    1    2    0    0 -0.26923347352E+02  0.31227202975E+01 -0.19773389501E+02  0.33550036469E+02  0.00000000000E+00 0.  1.
         11    1    1    2    0    0  0.66363378060E+01  0.85806845842E+02  0.50231451617E+02  0.99649658827E+02  0.00000000000E+00 0. -1.
</event>
<event>
 7    1  0.2688177E-009  0.8906317E+02  0.7561462E-02  0.1305136E+00
         -2   -1    0    0    0  501 -0.00000000000E+00  0.00000000000E+00  0.22761122709E+02  0.22761122709E+02  0.00000000000E+00 0.  1.
          2   -1    0    0  501    0  0.00000000000E+00 -0.00000000000E+00 -0.58871724292E+03  0.58871724292E+03  0.00000000000E+00 0. -1.
         25    2    1    2    0    0 -0.29483626887E+02 -0.21253208820E+01 -0.24907191854E+03  0.28028374302E+03  0.12509338412E+03 0.  0.
          5    1    3    3  502    0 -0.46718132481E+02 -0.35878457527E+02 -0.23036458570E+03  0.23781329307E+03  0.41800000000E+01 0.  1.
         -5    1    3    3    0  502  0.17234505593E+02  0.33753136645E+02 -0.18707332838E+02  0.42470449942E+02  0.41800000000E+01 0.  1.
        -11    1    1    2    0    0  0.50243084732E+02  0.19479046317E+02 -0.28170943307E+03  0.28681702440E+03  0.00000000000E+00 0. -1.
         11    1    1    2    0    0 -0.20759457845E+02 -0.17353725435E+02 -0.35174768600E+02  0.44377598206E+02  0.00000000000E+00 0.  1.
</event>
<event>
 6    1  0.2688177E-009  0.1093411E+03  0.7561462E-02  0.1261795E+00
         -2   -1    0    0    0  501 -0.00000000000E+00  0.00000000000E+00  0.74951670492E+02  0.74951670492E+02  0.00000000000E+00 0.  1.
          2   -1    0    0  501    0  0.00000000000E+00 -0.00000000000E+00 -0.23885372297E+03  0.23885372297E+03  0.00000000000E+00 0. -1.
          5    1    1    2  502    0 -0.27849366096E+02  0.18157056516E+02 -0.35438795776E+02  0.48771370079E+02  0.41800000000E+01 0. -1.
         -5    1    1    2    0  502  0.76734109984E+02 -0.76901652316E+02 -0.37161506108E+02  0.11489315776E+03  0.41800000000E+01 0. -1.
        -11    1    1    2    0    0 -0.33110145872E+02  0.41419134959E+02 -0.10870839326E+03  0.12095181382E+03  0.00000000000E+00 0. -1.
         11    1    1    2    0    0 -0.15774598016E+02  0.17325460840E+02  0.17406642671E+02  0.29189051800E+02  0.00000000000E+00 0.  1.
</event>
<event>
 6    1  0.2688177E-009  0.9910566E+02  0.7561462E-02  0.1282188E+00
          1   -1    0    0  501    0  0.00000000000E+00  0.00000000000E+00  0.57264354669E+03  0.57264354669E+03  0.00000000000E+00 0. -1.
         -1   -1    0    0    0  501 -0.00000000000E+00 -0.00000000000E+00 -0.26623543065E+02  0.26623543065E+02  0.00000000000E+00 0.  1.
          5    1    1    2  502    0  0.72973871289E+02 -0.34578655431E+02  0.25650202736E+03  0.26894540662E+03  0.41800000000E+01 0.  1.
         -5    1    1    2    0  502 -0.21985435833E+02  0.48353431830E+02  0.11930057381E+03  0.13065800040E+03  0.41800000000E+01 0.  1.
        -11    1    1    2    0    0 -0.29579510384E+02  0.10789301633E+02  0.16335875481E+03  0.16636537872E+03  0.00000000000E+00 0. -1.
         11    1    1    2    0    0 -0.21408925072E+02 -0.24564078032E+02  0.68586476449E+01  0.33298304008E+02  0.00000000000E+00 0.  1.
</event>
<event>
 7    1  0.2688177E-009  0.6065872E+02  0.7561462E-02  0.1395088E+00
          3   -1    0    0  501    0  0.00000000000E+00  0.00000000000E+00  0.47570229828E+02  0.47570229828E+02  0.00000000000E+00 0. -1.
         -3   -1    0    0    0  501 -0.00000000000E+00 -0.00000000000E+00 -0.30870054114E+03  0.30870054114E+03  0.00000000000E+00 0.  1.
         25    2    1    2    0    0 -0.41954090325E+01 -0.12588119636E+02 -0.22666754258E+03  0.25923260773E+03  0.12508919953E+03 0.  0.
          5    1    3    3  502    0  0.10799960248E+02  0.40388022899E+01  0.13354712905E+02  0.18132066128E+02  0.41800000000E+01 0. -1.
         -5    1    3    3    0  502 -0.14995369281E+02 -0.16626921926E+02 -0.24002225548E+03  0.24110054160E+03  0.41800000000E+01 0. -1.
        -11    1    1    2    0    0  0.34745724047E+02 -0.21216971091E+02 -0.31321033029E+02  0.51365672505E+02  0.00000000000E+00 0.  1.
         11    1    1    2    0    0 -0.30550315015E+02  0.33805090727E+02 -0.31417357040E+01  0.45672490734E+02  0.00000000000E+00 0. -1.
</event>
<event>
 7    1  0.2688177E-009  0.1204425E+03  0.7561462E-02  0.1242369E+00
          2   -1    0    0  501    0  0.00000000000E+00  0.00000000000E+00  0.59454245303E+02  0.59454245303E+02  0.00000000000E+00 0. -1.
         -2   -1    0    0    0  501 -0.00000000000E+00 -0.00000000000E+00 -0.31594827027E+03  0.31594827027E+03  0.00000000000E+00 0.  1.
         25    2    1    2    0    0  0.38203017695E+02 -0.72259911037E+02 -0.15937004648E+03  0.21846551826E+03  0.12508959050E+03 0.  0.
          5    1    3    3  502    0  0.82348067460E+02 -0.29772482689E+02 -0.10100963549E+03  0.13374611696E+03  0.41800000000E+01 0. -1.
         -5    1    3    3    0  502 -0.44145049765E+02 -0.42487428347E+02 -0.58360410983E+02  0.84719401299E+02  0.41800000000E+01 0. -1.
        -11    1    1    2    0    0 -0.43507372776E+02  0.39952925304E+02 -0.51303886459E+01  0.59291218691E+02  0.00000000000E+00 0. -1.
         11    1    1    2    0    0  0.53043550808E+01  0.32306985733E+02 -0.91993589846E+02  0.97645778622E+02  0.00000000000E+00 0.  1.
</event>
<event>
 7    1  0.2688177E-009  0.1159157E+03  0.7561462E-02  0.1249991E+00
         -4   -1    0    0    0  501 -0.00000000000E+00  0.00000000000E+00  0.10122680344E+02  0.10122680344E+02  0.00000000000E+00 0.  1.
          4   -1    0    0  501    0  0.00000000000E+00 -0.00000000000E+00 -0.14817005165E+04  0.14817005165E+04  0.00000000000E+00 0. -1.
         25    2    1    2    0    0 -0.40945356385E+02 -0.24751201418E+02 -0.10363416174E+04  0.10449594381E+04  0.12508850955E+03 0.  0.
          5    1    3    3  502    0 -0.44812150680E+02 -0.72681441462E+02 -0.68735985376E+03  0.69265558667E+03  0.41800000000E+01 0.  1.
         -5    1    3    3    0  502  0.38667942944E+01  0.47930240044E+02 -0.34898176363E+03  0.35230385147E+03  0.41800000000E+01 0.  1.
        -11    1    1    2    0    0 -0.81423671985E+01  0.44445381602E+02 -0.14603084819E+03  0.15286169799E+03  0.00000000000E+00 0.  1.
         11    1    1    2    0    0  0.49087723584E+02 -0.19694180184E+02 -0.28920537059E+03  0.29400206074E+03  0.00000000000E+00 0. -1.
</event>
<event>
 7    1  0.2688177E-009  0.1459726E+03  0.7561462E-02  0.1205511E+00
          1   -1    0    0  501    0  0.00000000000E+00  0.00000000000E+00  0.49132814055E+03  0.49132814055E+03  0.00000000000E+00 0. -1.
         -1   -1    0    0    0  501 -0.00000000000E+00 -0.00000000000E+00 -0.50109237261E+02  0.50109237261E+02  0.00000000000E+00 0.  1.
         25    2    1    2    0    0  0.59544059239E+02 -0.94718153943E+02  0.20955566064E+03  0.26847363661E+03  0.12508994751E+03 0.  0.
          5    1    3    3  502    0  0.37586038734E+02  0.24068512656E+02  0.76881156439E+02  0.88995439347E+02  0.41800000000E+01 0.  1.
         -5    1    3    3    0  502  0.21958020506E+02 -0.11878666660E+03  0.13267450420E+03  0.17947819726E+03  0.41800000000E+01 0.  1.
        -11    1    1    2    0    0 -0.24772779035E+02  0.87228192978E+02  0.21568454301E+03  0.23397066125E+03  0.00000000000E+00 0. -1.
         11    1    1    2    0    0 -0.34771280204E+02  0.74899609650E+01  0.15978699633E+02  0.38993079953E+02  0.00000000000E+00 0.  1.
</event>
<event>
 7    1  0.2688177E-009  0.2034279E+03  0.7561462E-02  0.1146879E+00
         -1   -1    0    0    0  501 -0.00000000000E+00  0.00000000000E+00  0.98920153685E+02  0.98920153685E+02  0.00000000000E+00 0.  1.
          1   -1    0    0  501    0  0.00000000000E+00 -0.00000000000E+00 -0.54428818463E+03  0.54428818463E+03  0.00000000000E+00 0. -1.
         25    2    1    2    0    0 -0.11647584491E+03  0.16236439556E+03 -0.25432127587E+03  0.34677909628E+03  0.12509041077E+03 0.  0.
          5    1    3    3  502    0 -0.81162611829E+01  0.47055336117E+01 -0.10115765503E+03  0.10167772280E+03  0.41800000000E+01 0. -1.
         -5    1    3    3    0  502 -0.10835958373E+03  0.15765886195E+03 -0.15316362084E+03  0.24510137348E+03  0.41800000000E+01 0. -1.
        -11    1    1    2    0    0  0.52218966444E+01 -0.38044709733E+02  0.53124541811E+01  0.38767129281E+02  0.00000000000E+00 0.  1.
         11    1    1    2    0    0  0.11125394826E+03 -0.12431968582E+03 -0.19635920926E+03  0.25766211275E+03  0.00000000000E+00 0. -1.
</event>
<event>
 7    1  0.2688177E-009  0.3220871E+03  0.7561462E-02  0.1074693E+00
          2   -1    0    0  501    0  0.00000000000E+00  0.00000000000E+00  0.12187275356E+04  0.12187275356E+04  0.00000000000E+00 0. -1.
         -2   -1    0    0    0  501 -0.00000000000E+00 -0.00000000000E+00 -0.90372952881E+02  0.90372952881E+02  0.00000000000E+00 0.  1.
         25    2    1    2    0    0 -0.28740242984E+03 -0.12066427326E+03  0.62935305487E+03  0.71336606257E+03  0.12508336438E+03 0.  0.
          5    1    3    3  502    0 -0.32298563776E+01 -0.14600609868E+02  0.11637894132E+03  0.11741013655E+03  0.41800000000E+01 0.  1.
         -5    1    3    3    0  502 -0.28417257346E+03 -0.10606366339E+03  0.51297411354E+03  0.59595592603E+03  0.41800000000E+01 0.  1.
        -11    1    1    2    0    0  0.70795684563E+02 -0.11250167995E+02  0.10334561541E+03  0.12577325414E+03  0.00000000000E+00 0. -1.
         11    1    1    2    0    0  0.21660674527E+03  0.13191444126E+03  0.39565591239E+03  0.46996117172E+03  0.00000000000E+00 0.  1.
</event>
<event>
 7    1  0.2688177E-009  0.5637939E+02  0.7561462E-02  0.1413686E+00
          4   -1    0    0  501    0  0.00000000000E+00  0.00000000000E+00  0.76448766845E+02  0.76448766845E+02  0.00000000000E+00 0. -1.
         -4   -1    0    0    0  501 -0.00000000000E+00 -0.00000000000E+00 -0.17831708072E+03  0.17831708072E+03  0.00000000000E+00 0.  1.
         25    2    1    2    0    0  0.14939410049E+02 -0.19982896438E+02 -0.99753080628E+02  0.16192808381E+03  0.12509006799E+03 0.  0.
          5    1    3    3  502    0 -0.11917119883E+02 -0.24897154124E+01  0.27644333653E+02  0.30494229163E+02  0.41800000000E+01 0. -1.
         -5    1    3    3    0  502  0.26856529932E+02 -0.17493181026E+02 -0.12739741428E+03  0.13143385465E+03  0.41800000000E+01 0. -1.
        -11    1    1    2    0    0 -0.14243968831E+02  0.42609239935E+02 -0.32137084754E+02  0.55237941601E+02  0.00000000000E+00 0.  1.
         11    1    1    2    0    0 -0.69544121801E+00 -0.22626343496E+02  0.30021851503E+02  0.37599822156E+02  0.00000000000E+00 0. -1.
</event>
<event>
 7    1  0.2688177E-009  0.2519772E+03  0.7561462E-02  0.1112062E+00
          2   -1    0    0  501    0  0.00000000000E+00  0.00000000000E+00  0.32213892919E+03  0.32213892919E+03  0.00000000000E+00 0. -1.
         -2   -1    0    0    0  501 -0.00000000000E+00 -0.00000000000E+00 -0.21893440954E+03  0.21893440954E+03  0.00000000000E+00 0.  1.
         25    2    1    2    0    0  0.20242004105E+03  0.12797520461E+03  0.93525690038E+02  0.28591228649E+03  0.12508898775E+03 0.  0.
          5    1    3    3  502    0  0.14058164981E+03  0.12844225682E+03  0.11235085420E+03  0.22113525372E+03  0.41800000000E+01 0. -1.
         -5    1    3    3    0  502  0.61838391238E+02 -0.46705220845E+00 -0.18825164160E+02  0.64777032769E+02  0.41800000000E+01 0. -1.
        -11    1    1    2    0    0 -0.15043026805E+03 -0.51441187621E+02  0.26342019181E+02  0.16115012660E+03  0.00000000000E+00 0.  1.
         11    1    1    2    0    0 -0.51989773004E+02 -0.76534016987E+02 -0.16663189563E+02  0.94010925639E+02  0.00000000000E+00 0. -1.
</event>
<event>
 7    1  0.2688177E-009  0.1039188E+03  0.7561462E-02  0.1272265E+00
          2   -1    0    0  501    0  0.00000000000E+00  0.00000000000E+00  0.17287877117E+03  0.17287877117E+03  0.00000000000E+00 0.  1.
         -2   -1    0    0    0  501 -0.00000000000E+00 -0.00000000000E+00 -0.10190277088E+03  0.10190277088E+03  0.00000000000E+00 0. -1.
         25    2    1    2    0    0 -0.28080639161E+01  0.63561566420E+02 -0.53962879817E+01  0.14044436850E+03  0.12509013859E+03 0.  0.
          5    1    3    3  502    0  0.43768116138E+02 -0.56501871845E+01  0.25788010811E+02  0.51284174041E+02  0.41800000000E+01 0. -1.
         -5    1    3    3    0  502 -0.46576180054E+02  0.69211753605E+02 -0.31184298793E+02  0.89160194463E+02  0.41800000000E+01 0. -1.
        -11    1    1    2    0    0  0.14661276659E+02  0.65756977038E+00 -0.15677910186E+02  0.21475155391E+02  0.00000000000E+00 0. -1.
         11    1    1    2    0    0 -0.11853212743E+02 -0.64219136190E+02  0.92050198461E+02  0.11286201816E+03  0.00000000000E+00 0.  1.
</event>
<event>
 7    1  0.2688177E-009  0.1182448E+03  0.7561462E-02  0.1246021E+00
          1   -1    0    0  501    0  0.00000000000E+00  0.00000000000E+00  0.21292698831E+03  0.21292698831E+03  0.00000000000E+00 0. -1.
         -1   -1    0    0    0  501 -0.00000000000E+00 -0.00000000000E+00 -0.13930256447E+03  0.13930256447E+03  0.00000000000E+00 0.  1.
         25    2    1    2    0    0  0.25982637007E+02  0.67196337386E+02 -0.75626822282E+02  0.16295995098E+03  0.12508430834E+03 0.  0.
          5    1    3    3  502    0 -0.81670099730E+01  0.96015526777E+02 -0.35566389628E+02  0.10280137113E+03  0.41800000000E+01 0.  1.
         -5    1    3    3    0  502  0.34149646980E+02 -0.28819189390E+02 -0.40060432655E+02  0.60158579857E+02  0.41800000000E+01 0.  1.
        -11    1    1    2    0    0  0.15211065696E+02 -0.46761054804E+02  0.21822330810E+02  0.53797647606E+02  0.00000000000E+00 0.  1.
         11    1    1    2    0    0 -0.41193702703E+02 -0.20435282582E+02  0.12742891531E+03  0.13547195419E+03  0.00000000000E+00 0. -1.
</event>
<event>
 7    1  0.2688177E-009  0.1866647E+03  0.7561462E-02  0.1161504E+00
          1   -1    0    0  501    0  0.00000000000E+00  0.00000000000E+00  0.93916208819E+03  0.93916208819E+03  0.00000000000E+00 0. -1.
         -1   -1    0    0    0  501 -0.00000000000E+00 -0.00000000000E+00 -0.41509326974E+02  0.41509326974E+02  0.00000000000E+00 0.  1.
         25    2    1    2    0    0  0.48296755409E+02  0.14606931130E+03  0.62020444262E+03  0.65112978286E+03  0.12509046006E+03 0.  0.
          5    1    3    3  502    0  0.55653704154E+02  0.16560707954E+03  0.57826833022E+03  0.60409831461E+03  0.41800000000E+01 0.  1.
         -5    1    3    3    0  502 -0.73569487454E+01 -0.19537768242E+02  0.41936112403E+02  0.47031468255E+02  0.41800000000E+01 0.  1.
        -11    1    1    2    0    0 -0.68224312174E+02 -0.66571211163E+02  0.16192325009E+03  0.18789737052E+03  0.00000000000E+00 0.  1.
         11    1    1    2    0    0  0.19927556765E+02 -0.79498100135E+02  0.11552506851E+03  0.14164426179E+03  0.00000000000E+00 0. -1.
</event>
<event>
 7    1  0.2688177E-009  0.2693885E+03  0.7561462E-02  0.1101630E+00
         -1   -1    0    0    0  501 -0.00000000000E+00  0.00000000000E+00  0.11816676495E+03  0.11816676495E+03  0.00000000000E+00 0.  1.
          1   -1    0    0  501    0  0.00000000000E+00 -0.00000000000E+00 -0.73773809846E+03  0.73773809846E+03  0.00000000000E+00 0. -1.
         25    2    1    2    0    0 -0.49186590795E+02  0.25820078573E+03 -0.38465464281E+03  0.48238432740E+03  0.12509387925E+03 0.  0.
          5    1    3    3  502    0  0.19790427565E+02  0.11012078033E+03 -0.23712923099E+03  0.26223270558E+03  0.41800000000E+01 0. -1.
         -5    1    3    3    0  502 -0.68977018360E+02  0.14808000540E+03 -0.14752541182E+03  0.22015162183E+03  0.41800000000E+01 0. -1.
        -11    1    1    2    0    0  0.43217805041E+02 -0.18593404013E+03 -0.23269265794E+03  0.30097361846E+03  0.00000000000E+00 0. -1.
         11    1    1    2    0    0  0.59687857542E+01 -0.72266745603E+02 -0.22240327527E+01  0.72546917543E+02  0.00000000000E+00 0.  1.
</event>
<event>
 7    1  0.2688177E-009  0.8944270E+02  0.7561462E-02  0.1304207E+00
          2   -1    0    0  501    0  0.00000000000E+00  0.00000000000E+00  0.10215980344E+04  0.10215980344E+04  0.00000000000E+00 0. -1.
         -2   -1    0    0    0  501 -0.00000000000E+00 -0.00000000000E+00 -0.12277390594E+02  0.12277390594E+02  0.00000000000E+00 0.  1.
         25    2    1    2    0    0  0.12951016511E+01 -0.31675651036E+02  0.61402079886E+03  0.62743604601E+03  0.12509766682E+03 0.  0.
          5    1    3    3  502    0  0.35946034734E+02 -0.38036769914E+02  0.10710811318E+03  0.11928341707E+03  0.41800000000E+01 0. -1.
         -5    1    3    3    0  502 -0.34650933083E+02  0.63611188784E+01  0.50691268568E+03  0.50815262894E+03  0.41800000000E+01 0. -1.
        -11    1    1    2    0    0 -0.23799229036E+01 -0.29563063598E+02  0.81758019188E+02  0.86971331276E+02  0.00000000000E+00 0.  1.
         11    1    1    2    0    0  0.10848212525E+01  0.61238714634E+02  0.31354182575E+03  0.31946804770E+03  0.00000000000E+00 0. -1.
</event>
<event>
 7    1  0.2688177E-009  0.1430591E+03  0.7561462E-02  0.1209271E+00
          2   -1    0    0  501    0  0.00000000000E+00  0.00000000000E+00  0.31745922255E+03  0.31745922255E+03  0.00000000000E+00 0. -1.
         -2   -1    0    0    0  501 -0.00000000000E+00 -0.00000000000E+00 -0.15726746741E+03  0.15726746741E+03  0.00000000000E+00 0.  1.
         25    2    1    2    0    0  0.11347248690E+03 -0.47107783900E+02  0.24392238968E+03  0.30039433522E+03  0.12507388161E+03 0.  0.
          5    1    3    3  502    0  0.26933156130E+01  0.15115622651E+02 -0.82987688487E+01  0.17946530626E+02  0.41800000000E+01 0.  1.
         -5    1    3    3    0  502  0.11077917129E+03 -0.62223406551E+02  0.25222115852E+03  0.28244780460E+03  0.41800000000E+01 0.  1.
        -11    1    1    2    0    0  0.83425775297E+01 -0.59123957056E+01 -0.28816651977E+02  0.30577024937E+02  0.00000000000E+00 0.  1.
         11    1    1    2    0    0 -0.12181506443E+03  0.53020179605E+02 -0.54913982558E+02  0.14375532981E+03  0.00000000000E+00 0. -1.
</event>
<event>
 7    1  0.2688177E-009  0.7576682E+02  0.7561462E-02  0.1341513E+00
          1   -1    0    0  501    0  0.00000000000E+00  0.00000000000E+00  0.25166011841E+03  0.25166011841E+03  0.00000000000E+00 0. -1.
         -1   -1    0    0    0  501 -0.00000000000E+00 -0.00000000000E+00 -0.48858924463E+02  0.48858924463E+02  0.00000000000E+00 0.  1.
         25    2    1    2    0    0  0.39884952237E+01  0.18744301756E+02  0.10576924795E+03  0.16492697965E+03  0.12508604183E+03 0.  0.
          5    1    3    3  502    0 -0.33796515880E+02  0.62580135638E+01 -0.14976083996E+02  0.37724298684E+02  0.41800000000E+01 0. -1.
         -5    1    3    3    0  502  0.37785011104E+02  0.12486288192E+02  0.12074533195E+03  0.12720268096E+03  0.41800000000E+01 0. -1.
        -11    1    1    2    0    0  0.68498480854E+01  0.28044071760E+02  0.17875294557E+01  0.28923790230E+02  0.00000000000E+00 0.  1.
         11    1    1    2    0    0 -0.10838343309E+02 -0.46788373516E+02  0.95244416539E+02  0.10666827300E+03  0.00000000000E+00 0. -1.
</event>
<event>
 7    1  0.2688177E-009  0.1379373E+03  0.7561462E-02  0.1216132E+00
         -1   -1    0    0    0  501 -0.00000000000E+00  0.00000000000E+00  0.24188942531E+02  0.24188942531E+02  0.00000000000E+00 0.  1.
          1   -1    0    0  501    0  0.00000000000E+00 -0.00000000000E+00 -0.13079324711E+04  0.13079324711E+04  0.00000000000E+00 0. -1.
         25    2    1    2    0    0  0.15890192216E+02  0.12024786125E+03 -0.10269679853E+04  0.10416433053E+04  0.12508191826E+03 0.  0.
          5    1    3    3  502    0  0.30766232179E+02  0.19276814651E-01 -0.64632888170E+02  0.71703863545E+02  0.41800000000E+01 0. -1.
         -5    1    3    3    0  502 -0.14876039962E+02  0.12022858443E+03 -0.96233509710E+03  0.96993944171E+03  0.41800000000E+01 0. -1.
        -11    1    1    2    0    0 -0.21533297010E+02 -0.75657041299E+02 -0.99117403389E+02  0.12653825680E+03  0.00000000000E+00 0.  1.
         11    1    1    2    0    0  0.56431047934E+01 -0.44590819948E+02 -0.15765813990E+03  0.16393985157E+03  0.00000000000E+00 0. -1.
</event>
<event>
 7    1  0.2688177E-009  0.1296734E+03  0.7561462E-02  0.1227941E+00
         -2   -1    0    0    0  501 -0.00000000000E+00  0.00000000000E+00  0.41232519833E+02  0.41232519833E+02  0.00000000000E+00 0.  1.
          2   -1    0    0  501    0  0.00000000000E+00 -0.00000000000E+00 -0.45887214657E+03  0.45887214657E+03  0.00000000000E+00 0. -1.
         25    2    1    2    0    0  0.40850125479E+02 -0.63436387301E+02 -0.27152754628E+03  0.30833217704E+03  0.12509442443E+03 0.  0.
          5    1    3    3  502    0  0.83080200915E+02 -0.20461130401E+02 -0.16211975694E+03  0.18336102539E+03  0.41800000000E+01 0.  1.
         -5    1    3    3    0  502 -0.42230075436E+02 -0.42975256900E+02 -0.10940778934E+03  0.12497115166E+03  0.41800000000E+01 0.  1.
        -11    1    1    2    0    0 -0.44644571885E+02 -0.48380396921E+01 -0.21852416716E+02  0.49940690256E+02  0.00000000000E+00 0.  1.
         11    1    1    2    0    0  0.37944464060E+01  0.68274426993E+02 -0.12425966374E+03  0.14183179911E+03  0.00000000000E+00 0. -1.
</event>
<event>
 7    1  0.2688177E-009  0.9332122E+02  0.7561462E-02  0.1295003E+00
         -1   -1    0    0    0  501 -0.00000000000E+00  0.00000000000E+00  0.22648607622E+02  0.22648607622E+02  0.00000000000E+00 0.  1.
          1   -1    0    0  501    0  0.00000000000E+00 -0.00000000000E+00 -0.59966009160E+03  0.59966009160E+03  0.00000000000E+00 0. -1.
         25    2    1    2    0    0 -0.15634712992E+02 -0.20147335998E+02 -0.42307270084E+03  0.44191393070E+03  0.12508817912E+03 0.  0.
          5    1    3    3  502    0 -0.56791599753E+02 -0.19058186466E+02 -0.36883665930E+03  0.37369299420E+03  0.41800000000E+01 0. -1.
         -5    1    3    3    0  502  0.41156886762E+02 -0.10891495320E+01 -0.54236041538E+02  0.68220936495E+02  0.41800000000E+01 0. -1.
        -11    1    1    2    0    0  0.46580855608E+02 -0.28288332647E+01 -0.12102513599E+03  0.12971068556E+03  0.00000000000E+00 0. -1.
         11    1    1    2    0    0 -0.30946142616E+02  0.22976169263E+02 -0.32913647144E+02  0.50684082956E+02  0.00000000000E+00 0.  1.
</event>
<event>
 7    1  0.2688177E-009  0.9423429E+02  0.7561462E-02  0.1292910E+00
          1   -1    0    0  501    0  0.00000000000E+00  0.00000000000E+00  0.17996922457E+03  0.17996922457E+03  0.00000000000E+00 0. -1.
         -1   -1    0    0    0  501 -0.00000000000E+00 -0.00000000000E+00 -0.76964646628E+02  0.76964646628E+02  0.00000000000E+00 0.  1.
         25    2    1    2    0    0 -0.17405314644E+00  0.39352221486E+02  0.68997342839E+02  0.14817745228E+03  0.12508915386E+03 0.  0.
          5    1    3    3  502    0 -0.27493453984E+02  0.51264104127E+02  0.92937804474E+02  0.10972149418E+03  0.41800000000E+01 0.  1.
         -5    1    3    3    0  502  0.27319400837E+02 -0.11911882640E+02 -0.23940461635E+02  0.38455958101E+02  0.41800000000E+01 0.  1.
        -11    1    1    2    0    0  0.37754322880E+02 -0.48414180717E+02  0.74265050210E+01  0.61842337985E+02  0.00000000000E+00 0. -1.
         11    1    1    2    0    0 -0.37580269734E+02  0.90619592303E+01  0.26580730081E+02  0.46914080935E+02  0.00000000000E+00 0.  1.
</event>
<event>
 7    1  0.2688177E-009  0.1053850E+03  0.7561462E-02  0.1269363E+00
         -1   -1    0    0    0  501 -0.00000000000E+00  0.00000000000E+00  0.42383546614E+03  0.42383546614E+03  0.00000000000E+00 0.  1.
          1   -1    0    0  501    0  0.00000000000E+00 -0.00000000000E+00 -0.48740268816E+02  0.48740268816E+02  0.00000000000E+00 0. -1.
         25    2    1    2    0    0  0.80059432086E+02  0.46173775367E+02  0.17451944521E+03  0.23376423709E+03  0.12508857496E+03 0.  0.
          5    1    3    3  502    0  0.13476403314E+02  0.49216212999E+02  0.48541412650E+01  0.51428437228E+02  0.41800000000E+01 0. -1.
         -5    1    3    3    0  502  0.66583028772E+02 -0.30424376325E+01  0.16966530394E+03  0.18233579986E+03  0.41800000000E+01 0. -1.
        -11    1    1    2    0    0 -0.13376870153E+02 -0.11438201062E+02 -0.63018531925E+01  0.18694556755E+02  0.00000000000E+00 0. -1.
         11    1    1    2    0    0 -0.66682561933E+02 -0.34735574305E+02  0.20687760530E+03  0.22011694111E+03  0.00000000000E+00 0.  1.
</event>
<event>
 7    1  0.2688177E-009  0.1722483E+03  0.7561462E-02  0.1175523E+00
          4   -1    0    0  501    0  0.00000000000E+00  0.00000000000E+00  0.71180785231E+02  0.71180785231E+02  0.00000000000E+00 0. -1.
         -4   -1    0    0    0  501 -0.00000000000E+00 -0.00000000000E+00 -0.63154764780E+03  0.63154764780E+03  0.00000000000E+00 0.  1.
         25    2    1    2    0    0 -0.64161149415E+02 -0.13299437431E+03 -0.11472708825E+03  0.22497696648E+03  0.12509266156E+03 0.  0.
          5    1    3    3  502    0  0.27832631066E+02 -0.74131000365E+02 -0.73641237948E+02  0.10821536348E+03  0.41800000000E+01 0.  1.
         -5    1    3    3    0  502 -0.91993780481E+02 -0.58863373949E+02 -0.41085850302E+02  0.11676160300E+03  0.41800000000E+01 0.  1.
        -11    1    1    2    0    0 -0.40575567077E+01  0.41929106529E+02 -0.23107960020E+03  0.23488783572E+03  0.00000000000E+00 0.  1.
         11    1    1    2    0    0  0.68218706122E+02  0.91065267785E+02 -0.21456017412E+03  0.24286363083E+03  0.00000000000E+00 0. -1.
</event>
<event>
 7    1  0.2688177E-009  0.1161396E+03  0.7561462E-02  0.1249605E+00
         -2   -1    0    0    0  501 -0.00000000000E+00  0.00000000000E+00  0.14921673585E+03  0.14921673585E+03  0.00000000000E+00 0.  1.
          2   -1    0    0  501    0  0.00000000000E+00 -0.00000000000E+00 -0.12977454418E+03  0.12977454418E+03  0.00000000000E+00 0. -1.
         25    2    1    2    0    0 -0.58720303046E+02  0.57100856374E+02  0.41994937224E+02  0.15528736914E+03  0.12506802338E+03 0.  0.
          5    1    3    3  502    0  0.27551425975E+02  0.41672545120E+02 -0.12932275844E+02  0.51772562701E+02  0.41800000000E+01 0.  1.
         -5    1    3    3    0  502 -0.86271729021E+02  0.15428311254E+02  0.54927213068E+02  0.10351480644E+03  0.41800000000E+01 0.  1.
        -11    1    1    2    0    0  0.12453243922E+02  0.78068283465E+01 -0.39558063238E+02  0.42200358057E+02  0.00000000000E+00 0. -1.
         11    1    1    2    0    0  0.46267059124E+02 -0.64907684721E+02  0.17005317684E+02  0.81503552838E+02  0.00000000000E+00 0.  1.
</event>
<event>
 7    1  0.2688177E-009  0.1074187E+03  0.7561462E-02  0.1265426E+00
          3   -1    0    0  501    0  0.00000000000E+00  0.00000000000E+00  0.18834158837E+02  0.18834158837E+02  0.00000000000E+00 0. -1.
         -3   -1    0    0    0  501 -0.00000000000E+00 -0.00000000000E+00 -0.13448766646E+04  0.13448766646E+04  0.00000000000E+00 0.  1.
         25    2    1    2    0    0 -0.44015426319E+02  0.39565257225E+02 -0.11619818848E+04  0.11701927938E+04  0.12508599769E+03 0.  0.
          5    1    3    3  502    0 -0.62276135188E+02  0.62326733537E+02 -0.10693865236E+04  0.10730181490E+04  0.41800000000E+01 0.  1.
         -5    1    3    3    0  502  0.18260708868E+02 -0.22761476312E+02 -0.92595361130E+02  0.97174644816E+02  0.41800000000E+01 0.  1.
        -11    1    1    2    0    0  0.16330378009E+02  0.23304325050E+02 -0.80283761383E+02  0.85177785565E+02  0.00000000000E+00 0.  1.
         11    1    1    2    0    0  0.27685048311E+02 -0.62869582275E+02 -0.83776859571E+02  0.10834024402E+03  0.00000000000E+00 0. -1.
</event>
<event>
 7    1  0.2688177E-009  0.1591915E+03  0.7561462E-02  0.1189613E+00
         -1   -1    0    0    0  501 -0.00000000000E+00  0.00000000000E+00  0.42661669908E+02  0.42661669908E+02  0.00000000000E+00 0.  1.
          1   -1    0    0  501    0  0.00000000000E+00 -0.00000000000E+00 -0.87789827273E+03  0.87789827273E+03  0.00000000000E+00 0. -1.
         25    2    1    2    0    0 -0.18426341675E+02 -0.14815117013E+03 -0.56848472196E+03  0.60092406531E+03  0.12508618583E+03 0.  0.
          5    1    3    3  502    0  0.10714012917E+02 -0.24565665548E+00 -0.23089768121E+03  0.23118404358E+03  0.41800000000E+01 0.  1.
         -5    1    3    3    0  502 -0.29140354592E+02 -0.14790551348E+03 -0.33758704075E+03  0.36974002173E+03  0.41800000000E+01 0.  1.
        -11    1    1    2    0    0 -0.47997109323E+01  0.11758924329E+03 -0.25269651216E+03  0.27875759114E+03  0.00000000000E+00 0. -1.
         11    1    1    2    0    0  0.23226052607E+02  0.30561926842E+02 -0.14055368704E+02  0.40878286185E+02  0.00000000000E+00 0.  1.
</event>
<event>
 7    1  0.2688177E-009  0.1170341E+03  0.7561462E-02  0.1248072E+00
         -2   -1    0    0    0  501 -0.00000000000E+00  0.00000000000E+00  0.14491171064E+02  0.14491171064E+02  0.00000000000E+00 0. -1.
          2   -1    0    0  501    0  0.00000000000E+00 -0.00000000000E+00 -0.15675898855E+04  0.15675898855E+04  0.00000000000E+00 0.  1.
         25    2    1    2    0    0  0.30479097552E+02 -0.81697124549E+02 -0.11525738667E+04  0.11626168530E+04  0.12509209793E+03 0.  0.
          5    1    3    3  502    0 -0.22857110565E+02 -0.44159727173E+01 -0.69931776276E+03  0.69971762450E+03  0.41800000000E+01 0. -1.
         -5    1    3    3    0  502  0.53336208117E+02 -0.77281151831E+02 -0.45325610398E+03  0.46289922847E+03  0.41800000000E+01 0. -1.
        -11    1    1    2    0    0 -0.55506788302E+02  0.42462602467E+02 -0.30879584620E+03  0.31660535495E+03  0.00000000000E+00 0.  1.
         11    1    1    2    0    0  0.25027690750E+02  0.39234522081E+02 -0.91729001452E+02  0.10285884860E+03  0.00000000000E+00 0. -1.
</event>
<event>
 7    1  0.2688177E-009  0.8526413E+02  0.7561462E-02  0.1314743E+00
          1   -1    0    0  501    0  0.00000000000E+00  0.00000000000E+00  0.39734441970E+02  0.39734441970E+02  0.00000000000E+00 0. -1.
         -1   -1    0    0    0  501 -0.00000000000E+00 -0.00000000000E+00 -0.41388614432E+03  0.41388614432E+03  0.00000000000E+00 0.  1.
         25    2    1    2    0    0 -0.31305754783E+02  0.56475466682E+02 -0.17033503446E+03  0.22097808669E+03  0.12509101571E+03 0.  0.
          5    1    3    3  502    0 -0.41359449156E+02  0.34485017237E+02 -0.54602286275E+01  0.54287263193E+02  0.41800000000E+01 0.  1.
         -5    1    3    3    0  502  0.10053694373E+02  0.21990449445E+02 -0.16487480583E+03  0.16669082349E+03  0.41800000000E+01 0.  1.
        -11    1    1    2    0    0 -0.19634724575E+02 -0.66737313179E+01 -0.48373173111E+01  0.21294617574E+02  0.00000000000E+00 0. -1.
         11    1    1    2    0    0  0.50940479358E+02 -0.49801735365E+02 -0.19897935057E+03  0.21134788203E+03  0.00000000000E+00 0.  1.
</event>
<event>
 7    1  0.2688177E-009  0.1238181E+03  0.7561462E-02  0.1236928E+00
         -3   -1    0    0    0  501 -0.00000000000E+00  0.00000000000E+00  0.47613914372E+03  0.47613914372E+03  0.00000000000E+00 0.  1.
          3   -1    0    0  501    0  0.00000000000E+00 -0.00000000000E+00 -0.39807510521E+02  0.39807510521E+02  0.00000000000E+00 0. -1.
         25    2    1    2    0    0  0.58829750450E+02 -0.56708483042E+02  0.19385073636E+03  0.24474902354E+03  0.12508870833E+03 0.  0.
          5    1    3    3  502    0 -0.15671665829E+02  0.24726572008E+02  0.83653600362E+02  0.88726555927E+02  0.41800000000E+01 0.  1.
         -5    1    3    3    0  502  0.74501416278E+02 -0.81435055050E+02  0.11019713599E+03  0.15602246761E+03  0.41800000000E+01 0.  1.
        -11    1    1    2    0    0 -0.37266686959E+02  0.72071745807E+02  0.22572568023E+03  0.23986501457E+03  0.00000000000E+00 0.  1.
         11    1    1    2    0    0 -0.21563063490E+02 -0.15363262765E+02  0.16755216617E+02  0.31332616134E+02  0.00000000000E+00 0. -1.
</event>
<event>
 7    1  0.2688177E-009  0.1334839E+03  0.7561462E-02  0.1222376E+00
          2   -1    0    0  501    0  0.00000000000E+00  0.00000000000E+00  0.22318519285E+03  0.22318519285E+03  0.00000000000E+00 0. -1.
         -2   -1    0    0    0  501 -0.00000000000E+00 -0.00000000000E+00 -0.13878954987E+03  0.13878954987E+03  0.00000000000E+00 0.  1.
         25    2    1    2    0    0  0.62542632374E+02 -0.77301400080E+02  0.14314162761E+03  0.21453970963E+03  0.12510265439E+03 0.  0.
          5    1    3    3  502    0  0.88970200687E+02 -0.79683504871E+02  0.14465262688E+03  0.18763531763E+03  0.41800000000E+01 0. -1.
         -5    1    3    3    0  502 -0.26427568314E+02  0.23821047906E+01 -0.15109992662E+01  0.26904392002E+02  0.41800000000E+01 0. -1.
        -11    1    1    2    0    0 -0.54104793521E+02  0.90200039134E+02 -0.21821012329E+02  0.10742221521E+03  0.00000000000E+00 0. -1.
         11    1    1    2    0    0 -0.84378388527E+01 -0.12898639054E+02 -0.36924972310E+02  0.40012817872E+02  0.00000000000E+00 0.  1.
</event>
<event>
 7    1  0.2688177E-009  0.1957169E+03  0.7561462E-02  0.1153404E+00
         -1   -1    0    0    0  501 -0.00000000000E+00  0.00000000000E+00  0.45198065999E+03  0.45198065999E+03  0.00000000000E+00 0.  1.
          1   -1    0    0  501    0  0.00000000000E+00 -0.00000000000E+00 -0.91250572576E+02  0.91250572576E+02  0.00000000000E+00 0. -1.
         25    2    1    2    0    0 -0.13743246363E+03  0.10311626186E+03  0.18194141933E+03  0.27976978894E+03  0.12509120358E+03 0.  0.
          5    1    3    3  502    0 -0.15429116056E+03  0.11373097346E+03  0.15879141787E+03  0.24894313275E+03  0.41800000000E+01 0. -1.
         -5    1    3    3    0  502  0.16858696926E+02 -0.10614711600E+02  0.23150001456E+02  0.30826656190E+02  0.41800000000E+01 0. -1.
        -11    1    1    2    0    0  0.67915156844E+02 -0.19590793202E+02  0.12162646574E+03  0.14067432202E+03  0.00000000000E+00 0. -1.
         11    1    1    2    0    0  0.69517306791E+02 -0.83525468655E+02  0.57162202351E+02  0.12278712162E+03  0.00000000000E+00 0.  1.
</event>
<event>
 7    1  0.2688177E-009  0.1160391E+03  0.7561462E-02  0.1249778E+00
         -2   -1    0    0    0  501 -0.00000000000E+00  0.00000000000E+00  0.29206024202E+02  0.29206024202E+02  0.00000000000E+00 0. -1.
          2   -1    0    0  501    0  0.00000000000E+00 -0.00000000000E+00 -0.71699355156E+03  0.71699355156E+03  0.00000000000E+00 0.  1.
         25    2    1    2    0    0  0.43232736290E+01 -0.64755416616E+02 -0.55198165784E+03  0.56969769011E+03  0.12513893420E+03 0.  0.
          5    1    3    3  502    0 -0.38726052007E+02 -0.75052469181E+02 -0.23781323585E+03  0.25239886644E+03  0.41800000000E+01 0.  1.
         -5    1    3    3    0  502  0.43049325636E+02  0.10297052564E+02 -0.31416842199E+03  0.31729882367E+03  0.41800000000E+01 0.  1.
        -11    1    1    2    0    0 -0.23990490856E+02  0.76485657842E+02 -0.68615219770E+02  0.10551610252E+03  0.00000000000E+00 0. -1.
         11    1    1    2    0    0  0.19667217227E+02 -0.11730241226E+02 -0.67190649754E+02  0.70985783134E+02  0.00000000000E+00 0.  1.
</event>
<event>
 7    1  0.2688177E-009  0.9960856E+02  0.7561462E-02  0.1281121E+00
          1   -1    0    0  501    0  0.00000000000E+00  0.00000000000E+00  0.10381252931E+03  0.10381252931E+03  0.00000000000E+00 0. -1.
         -1   -1    0    0    0  501 -0.00000000000E+00 -0.00000000000E+00 -0.11466678157E+03  0.11466678157E+03  0.00000000000E+00 0.  1.
         25    2    1    2    0    0  0.57809776133E+01  0.12721817150E+02 -0.90659043163E+01  0.12619605904E+03  0.12509192765E+03 0.  0.
          5    1    3    3  502    0 -0.29119900610E+00  0.59502682265E+02 -0.37974322723E+02  0.70711919645E+02  0.41800000000E+01 0.  1.
         -5    1    3    3    0  502  0.60721766194E+01 -0.46780865115E+02  0.28908418407E+02  0.55484139397E+02  0.41800000000E+01 0.  1.
        -11    1    1    2    0    0  0.37731093091E+02 -0.27019692098E+02 -0.25213921093E+01  0.46476408693E+02  0.00000000000E+00 0. -1.
         11    1    1    2    0    0 -0.43512070704E+02  0.14297874948E+02  0.73304417235E+00  0.45806843143E+02  0.00000000000E+00 0.  1.
</event>
<event>
 7    1  0.2688177E-009  0.1042869E+03  0.7561462E-02  0.1271531E+00
         -2   -1    0    0    0  501 -0.00000000000E+00  0.00000000000E+00  0.26829011578E+03  0.26829011578E+03  0.00000000000E+00 0.  1.
          2   -1    0    0  501    0  0.00000000000E+00 -0.00000000000E+00 -0.45331589222E+02  0.45331589222E+02  0.00000000000E+00 0. -1.
         25    2    1    2    0    0 -0.33761155056E+01 -0.10295660466E+02  0.11135146164E+03  0.16784631484E+03  0.12512329366E+03 0.  0.
          5    1    3    3  502    0  0.39584757850E+01  0.51975360624E+02  0.84798265857E+02  0.99625930033E+02  0.41800000000E+01 0. -1.
         -5    1    3    3    0  502 -0.73345912906E+01 -0.62271021091E+02  0.26553195778E+02  0.68220384806E+02  0.41800000000E+01 0. -1.
        -11    1    1    2    0    0 -0.29775348175E+02 -0.29316714091E+02  0.56102481431E+02  0.69953766923E+02  0.00000000000E+00 0.  1.
         11    1    1    2    0    0  0.33151463681E+02  0.39612374557E+02  0.55504583496E+02  0.75821623243E+02  0.00000000000E+00 0. -1.
</event>
<event>
 7    1  0.2688177E-009  0.9161040E+02  0.7561462E-02  0.1298998E+00
         -2   -1    0    0    0  501 -0.00000000000E+00  0.00000000000E+00  0.33067496389E+02  0.33067496389E+02  0.00000000000E+00 0.  1.
          2   -1    0    0  501    0  0.00000000000E+00 -0.00000000000E+00 -0.40246302393E+03  0.40246302393E+03  0.00000000000E+00 0. -1.
         25    2    1    2    0    0 -0.19390050447E+02 -0.42247898501E+01 -0.14949888097E+03  0.19593827210E+03  0.12509223860E+03 0.  0.
          5    1    3    3  502    0  0.31535692445E+02  0.12873930231E+02  0.27580020438E+01  0.34428432332E+02  0.41800000000E+01 0.  1.
         -5    1    3    3    0  502 -0.50925742892E+02 -0.17098720081E+02 -0.15225688301E+03  0.16150983977E+03  0.41800000000E+01 0.  1.
        -11    1    1    2    0    0  0.54937039171E+02 -0.11538495597E+02 -0.13552606665E+03  0.14669195580E+03  0.00000000000E+00 0.  1.
         11    1    1    2    0    0 -0.35546988724E+02  0.15763285447E+02 -0.84370579919E+02  0.92900292418E+02  0.00000000000E+00 0. -1.
</event>
<event>
 7    1  0.2688177E-009  0.1105221E+03  0.7561462E-02  0.1259606E+00
         -2   -1    0    0    0  501 -0.00000000000E+00  0.00000000000E+00  0.28755812852E+02  0.28755812852E+02  0.00000000000E+00 0.  1.
          2   -1    0    0  501    0  0.00000000000E+00 -0.00000000000E+00 -0.69367222696E+03  0.69367222696E+03  0.00000000000E+00 0. -1.
         25    2    1    2    0    0 -0.13276479645E+02  0.80464440244E+02 -0.46542750832E+03  0.48879727836E+03  0.12509685357E+03 0.  0.
          5    1    3    3  502    0 -0.17426932093E+02 -0.23568134788E+02 -0.22255909233E+03  0.22451988090E+03  0.41800000000E+01 0. -1.
         -5    1    3    3    0  502  0.41504524487E+01  0.10403257503E+03 -0.24286841599E+03  0.26427739747E+03  0.41800000000E+01 0. -1.
        -11    1    1    2    0    0  0.19173042769E+02 -0.25228164026E+02 -0.16550260635E+03  0.16850868980E+03  0.00000000000E+00 0. -1.
         11    1    1    2    0    0 -0.58965631248E+01 -0.55236276217E+02 -0.33986299438E+02  0.65122071654E+02  0.00000000000E+00 0.  1.
</event>
<event>
 7    1  0.2688177E-009  0.1318311E+03  0.7561462E-02  0.1224764E+00
         -2   -1    0    0    0  501 -0.00000000000E+00  0.00000000000E+00  0.21404632811E+02  0.21404632811E+02  0.00000000000E+00 0.  1.
          2   -1    0    0  501    0  0.00000000000E+00 -0.00000000000E+00 -0.95259824683E+03  0.95259824683E+03  0.00000000000E+00 0. -1.
         25    2    1    2    0    0  0.70395036222E+01  0.88125055158E+02 -0.55257409275E+03  0.57341225451E+03  0.12509158917E+03 0.  0.
          5    1    3    3  502    0  0.38387746592E+02 -0.68265394757E+01 -0.66999218593E+02  0.77631104731E+02  0.41800000000E+01 0. -1.
         -5    1    3    3    0  502 -0.31348242969E+02  0.94951594634E+02 -0.48557487416E+03  0.49578114978E+03  0.41800000000E+01 0. -1.
        -11    1    1    2    0    0 -0.41528050259E+02 -0.78097438971E+02 -0.20456695681E+03  0.22287087910E+03  0.00000000000E+00 0.  1.
         11    1    1    2    0    0  0.34488546637E+02 -0.10027616187E+02 -0.17405256446E+03  0.17771974604E+03  0.00000000000E+00 0. -1.
</event>
<event>
 7    1  0.2688177E-009  0.1099837E+03  0.7561462E-02  0.1260600E+00
         -2   -1    0    0    0  501 -0.00000000000E+00  0.00000000000E+00  0.31143096346E+02  0.31143096346E+02  0.00000000000E+00 0.  1.
          2   -1    0    0  501    0  0.00000000000E+00 -0.00000000000E+00 -0.42772300050E+03  0.42772300050E+03  0.00000000000E+00 0. -1.
         25    2    1    2    0    0 -0.25680373508E+02 -0.62898677183E+01 -0.16554742390E+03  0.20916967849E+03  0.12508781244E+03 0.  0.
          5    1    3    3  502    0  0.13336398689E+01 -0.63829355101E+02 -0.88327286216E+02  0.10906487546E+03  0.41800000000E+01 0.  1.
         -5    1    3    3    0  502 -0.27014013377E+02  0.57539487383E+02 -0.77220137685E+02  0.10010480304E+03  0.41800000000E+01 0.  1.
        -11    1    1    2    0    0 -0.28964470711E+02 -0.16206680028E+02 -0.11180575839E+03  0.11662814691E+03  0.00000000000E+00 0. -1.
         11    1    1    2    0    0  0.54644844219E+02  0.22496547747E+02 -0.11922672186E+03  0.13306827144E+03  0.00000000000E+00 0.  1.
</event>
<event>
 7    1  0.2688177E-009  0.1171875E+03  0.7561462E-02  0.1247810E+00
          2   -1    0    0  501    0  0.00000000000E+00  0.00000000000E+00  0.91774837531E+03  0.91774837531E+03  0.00000000000E+00 0. -1.
         -2   -1    0    0    0  501 -0.00000000000E+00 -0.00000000000E+00 -0.18813424219E+02  0.18813424219E+02  0.00000000000E+00 0.  1.
         25    2    1    2    0    0 -0.58535627188E+02 -0.41609766231E+02  0.56145780285E+03  0.57969010205E+03  0.12509179724E+03 0.  0.
          5    1    3    3  502    0 -0.90226772764E+02 -0.15188959586E+02  0.47562460763E+03  0.48436330869E+03  0.41800000000E+01 0. -1.
         -5    1    3    3    0  502  0.31691145576E+02 -0.26420806645E+02  0.85833195223E+02  0.95326793368E+02  0.41800000000E+01 0. -1.
        -11    1    1    2    0    0  0.32630430317E+01  0.45767123531E+02  0.69900736120E+02  0.83614531968E+02  0.00000000000E+00 0.  1.
         11    1    1    2    0    0  0.55272584157E+02 -0.41573573002E+01  0.26757641212E+03  0.27325716551E+03  0.00000000000E+00 0. -1.
</event>
<event>
 7    1  0.2688177E-009  0.2078577E+03  0.7561462E-02  0.1143274E+00
          1   -1    0    0  501    0  0.00000000000E+00  0.00000000000E+00  0.98353875913E+03  0.98353875913E+03  0.00000000000E+00 0. -1.
         -1   -1    0    0    0  501 -0.00000000000E+00 -0.00000000000E+00 -0.52238771210E+02  0.52238771210E+02  0.00000000000E+00 0.  1.
         25    2    1    2    0    0 -0.16031741128E+03  0.11615908379E+03  0.53283557347E+03  0.58202681292E+03  0.12508739945E+03 0.  0.
          5    1    3    3  502    0 -0.16848935301E+03  0.96812445279E+02  0.52395464565E+03  0.55884457118E+03  0.41800000000E+01 0. -1.
         -5    1    3    3    0  502  0.81719417334E+01  0.19346638506E+02  0.88809278149E+01  0.23182241739E+02  0.41800000000E+01 0. -1.
        -11    1    1    2    0    0  0.24330264685E+02 -0.31291751592E+02  0.17065083753E+03  0.17519373233E+03  0.00000000000E+00 0. -1.
         11    1    1    2    0    0  0.13598714660E+03 -0.84867332193E+02  0.22781357693E+03  0.27855698509E+03  0.00000000000E+00 0.  1.
</event>
<event>
 7    1  0.2688177E-009  0.1205486E+03  0.7561462E-02  0.1242195E+00
          1   -1    0    0  501    0  0.00000000000E+00  0.00000000000E+00  0.35276216553E+03  0.35276216553E+03  0.00000000000E+00 0. -1.
         -1   -1    0    0    0  501 -0.00000000000E+00 -0.00000000000E+00 -0.44926054418E+02  0.44926054418E+02  0.00000000000E+00 0.  1.
         25    2    1    2    0    0  0.53147212487E+02 -0.30381985723E+02  0.19935563892E+03  0.24318265700E+03  0.12508973837E+03 0.  0.
          5    1    3    3  502    0  0.74341340803E+02 -0.64040472783E+02  0.15463947038E+03  0.18319021618E+03  0.41800000000E+01 0.  1.
         -5    1    3    3    0  502 -0.21194128316E+02  0.33658487060E+02  0.44716168539E+02  0.59992440816E+02  0.41800000000E+01 0.  1.
        -11    1    1    2    0    0 -0.71414367212E+02  0.49580465410E+01  0.47361392264E+02  0.85835281481E+02  0.00000000000E+00 0.  1.
         11    1    1    2    0    0  0.18267154724E+02  0.25423939182E+02  0.61119079931E+02  0.68670281468E+02  0.00000000000E+00 0. -1.
</event>
<event>
 7    1  0.2688177E-009  0.9090819E+02  0.7561462E-02  0.1300667E+00
         -2   -1    0    0    0  501 -0.00000000000E+00  0.00000000000E+00  0.86123155390E+02  0.86123155390E+02  0.00000000000E+00 0.  1.
          2   -1    0    0  501    0  0.00000000000E+00 -0.00000000000E+00 -0.19197950424E+03  0.19197950424E+03  0.00000000000E+00 0. -1.
         25    2    1    2    0    0 -0.13651439160E+02 -0.36547046683E+00  0.15095805378E+02  0.12673956924E+03  0.12509412341E+03 0.  0.
          5    1    3    3  502    0 -0.65424135765E+02  0.18629155028E+02  0.20503657088E+02  0.71170466569E+02  0.41800000000E+01 0. -1.
         -5    1    3    3    0  502  0.51772696604E+02 -0.18994625495E+02 -0.54078517094E+01  0.55569102669E+02  0.41800000000E+01 0. -1.
        -11    1    1    2    0    0 -0.43746647637E+01 -0.26029738503E+02 -0.14100281031E+00  0.26395167363E+02  0.00000000000E+00 0.  1.
         11    1    1    2    0    0  0.18026103924E+02  0.26395208970E+02 -0.12081115141E+03  0.12496792303E+03  0.00000000000E+00 0. -1.
</event>
<event>
 7    1  0.2688177E-009  0.1004828E+03  0.7561462E-02  0.1279284E+00
          2   -1    0    0  501    0  0.00000000000E+00  0.00000000000E+00  0.20367540734E+02  0.20367540734E+02  0.00000000000E+00 0.  1.
         -2   -1    0    0    0  501 -0.00000000000E+00 -0.00000000000E+00 -0.67308657804E+03  0.67308657804E+03  0.00000000000E+00 0. -1.
         25    2    1    2    0    0  0.23441062837E+02 -0.67643000430E+01 -0.54309552382E+03  0.55784889706E+03  0.12508958700E+03 0.  0.
          5    1    3    3  502    0 -0.18907067420E+02  0.51553193677E+02 -0.22025928715E+03  0.22703928064E+03  0.41800000000E+01 0.  1.
         -5    1    3    3    0  502  0.42348130258E+02 -0.58317493720E+02 -0.32283623667E+03  0.33080961642E+03  0.41800000000E+01 0.  1.
        -11    1    1    2    0    0  0.23914943081E+02 -0.60021871230E+01 -0.64135334709E+02  0.68711657752E+02  0.00000000000E+00 0. -1.
         11    1    1    2    0    0 -0.47356005919E+02  0.12766487166E+02 -0.45488178777E+02  0.66893563963E+02  0.00000000000E+00 0.  1.
</event>
<event>
 7    1  0.2688177E-009  0.1197882E+03  0.7561462E-02  0.1243447E+00
         -2   -1    0    0    0  501 -0.00000000000E+00  0.00000000000E+00  0.26628994557E+02  0.26628994557E+02  0.00000000000E+00 0.  1.
          2   -1    0    0  501    0  0.00000000000E+00 -0.00000000000E+00 -0.84205610287E+03  0.84205610287E+03  0.00000000000E+00 0. -1.
         25    2    1    2    0    0 -0.52668405712E+02 -0.22270143562E+02 -0.68746788280E+03  0.70109253702E+03  0.12509490526E+03 0.  0.
          5    1    3    3  502    0  0.40056684858E+02 -0.19343167678E+02 -0.22193879075E+03  0.22639124404E+03  0.41800000000E+01 0. -1.
         -5    1    3    3    0  502 -0.92725090569E+02 -0.29269758837E+01 -0.46552909205E+03  0.47470129298E+03  0.41800000000E+01 0. -1.
        -11    1    1    2    0    0  0.19360106548E+02 -0.32558282938E+02 -0.22224676754E+02  0.43918011911E+02  0.00000000000E+00 0. -1.
         11    1    1    2    0    0  0.33308299164E+02  0.54828426500E+02 -0.10573454876E+03  0.12367454850E+03  0.00000000000E+00 0.  1.
</event>
<event>
 7    1  0.2688177E-009  0.1365438E+03  0.7561462E-02  0.1218057E+00
         -3   -1    0    0    0  501 -0.00000000000E+00  0.00000000000E+00  0.18116284189E+03  0.18116284189E+03  0.00000000000E+00 0.  1.
          3   -1    0    0  501    0  0.00000000000E+00 -0.00000000000E+00 -0.14457301768E+03  0.14457301768E+03  0.00000000000E+00 0. -1.
         25    2    1    2    0    0 -0.21203433264E+02  0.11410443451E+03  0.44133786243E+02  0.17625163369E+03  0.12508972672E+03 0.  0.
          5    1    3    3  502    0 -0.52327559227E+02  0.11333910700E+03  0.62703001035E+02  0.13976074330E+03  0.41800000000E+01 0. -1.
         -5    1    3    3    0  502  0.31124125963E+02  0.76532751543E+00 -0.18569214792E+02  0.36490890386E+02  0.41800000000E+01 0. -1.
        -11    1    1    2    0    0  0.21260176997E+02 -0.83482055718E+02 -0.48100220289E+02  0.98665495209E+02  0.00000000000E+00 0. -1.
         11    1    1    2    0    0 -0.56743733302E-01 -0.30622378794E+02  0.40556258264E+02  0.50818730673E+02  0.00000000000E+00 0.  1.
</event>
<event>
 7    1  0.2688177E-009  0.1358135E+03  0.7561462E-02  0.1219076E+00
          2   -1    0    0  501    0  0.00000000000E+00  0.00000000000E+00  0.76444103929E+02  0.76444103929E+02  0.00000000000E+00 0.  1.
         -2   -1    0    0    0  501 -0.00000000000E+00 -0.00000000000E+00 -0.28178777270E+03  0.28178777270E+03  0.00000000000E+00 0. -1.
         25    2    1    2    0    0 -0.87939574393E+02 -0.23948182421E+02 -0.66770632640E+02  0.16856124509E+03  0.12509073418E+03 0.  0.
          5    1    3    3  502    0 -0.73059180617E+02  0.42831699064E+02 -0.48246151072E+02  0.97556967001E+02  0.41800000000E+01 0. -1.
         -5    1    3    3    0  502 -0.14880393776E+02 -0.66779881486E+02 -0.18524481568E+02  0.71004278093E+02  0.41800000000E+01 0. -1.
        -11    1    1    2    0    0  0.86746972036E+02  0.44643120856E+02 -0.13791146086E+03  0.16893080369E+03  0.00000000000E+00 0. -1.
         11    1    1    2    0    0  0.11926023564E+01 -0.20694938435E+02 -0.66157526612E+00  0.20739827845E+02  0.00000000000E+00 0.  1.
</event>
<event>
 7    1  0.2688177E-009  0.1057064E+03  0.7561462E-02  0.1268734E+00
         -2   -1    0    0    0  501 -0.00000000000E+00  0.00000000000E+00  0.93043235317E+02  0.93043235317E+02  0.00000000000E+00 0. -1.
          2   -1    0    0  501    0  0.00000000000E+00 -0.00000000000E+00 -0.15906851598E+03  0.15906851598E+03  0.00000000000E+00 0.  1.
         25    2    1    2    0    0  0.15179661282E+02 -0.46837241103E+02 -0.21064916148E+02  0.13607141085E+03  0.12509016303E+03 0.  0.
          5    1    3    3  502    0  0.56145381025E+02  0.33776392389E+01  0.19295472312E+02  0.59611239788E+02  0.41800000000E+01 0.  1.
         -5    1    3    3    0  502 -0.40965719743E+02 -0.50214880342E+02 -0.40360388460E+02  0.76460171060E+02  0.41800000000E+01 0.  1.
        -11    1    1    2    0    0  0.29111666124E+02  0.57861505350E+01 -0.47032670515E+02  0.55615112499E+02  0.00000000000E+00 0.  1.
         11    1    1    2    0    0 -0.44291327407E+02  0.41051090568E+02  0.20723060042E+01  0.60425227947E+02  0.00000000000E+00 0. -1.
</event>
<event>
 7    1  0.2688177E-009  0.1696917E+03  0.7561462E-02  0.1178170E+00
         -1   -1    0    0    0  501 -0.00000000000E+00  0.00000000000E+00  0.95424198089E+02  0.95424198089E+02  0.00000000000E+00 0.  1.
          1   -1    0    0  501    0  0.00000000000E+00 -0.00000000000E+00 -0.56395478179E+03  0.56395478179E+03  0.00000000000E+00 0. -1.
         25    2    1    2    0    0 -0.10349210871E+03 -0.10807858381E+03 -0.44067940560E+03  0.48191049458E+03  0.12509112446E+03 0.  0.
          5    1    3    3  502    0 -0.11342869239E+03 -0.39558172468E+02 -0.33087966284E+03  0.35203656195E+03  0.41800000000E+01 0.  1.
         -5    1    3    3    0  502  0.99365836780E+01 -0.68520411347E+02 -0.10979974276E+03  0.12987393263E+03  0.41800000000E+01 0.  1.
        -11    1    1    2    0    0  0.86233828434E+02  0.85909067378E+02  0.18644939724E+02  0.12314331001E+03  0.00000000000E+00 0.  1.
         11    1    1    2    0    0  0.17258280278E+02  0.22169516437E+02 -0.46496117820E+02  0.54325175283E+02  0.00000000000E+00 0. -1.
</event>
<event>
 7    1  0.2688177E-009  0.1154868E+03  0.7561462E-02  0.1250734E+00
         -2   -1    0    0    0  501 -0.00000000000E+00  0.00000000000E+00  0.10849023904E+03  0.10849023904E+03  0.00000000000E+00 0.  1.
          2   -1    0    0  501    0  0.00000000000E+00 -0.00000000000E+00 -0.16335981956E+03  0.16335981956E+03  0.00000000000E+00 0. -1.
         25    2    1    2    0    0 -0.39941451842E+02 -0.41414399777E+01 -0.97088146486E+02  0.16335894984E+03  0.12509023624E+03 0.  0.
          5    1    3    3  502    0 -0.26912437212E+02 -0.64145754202E+02 -0.55375110822E+02  0.89010293547E+02  0.41800000000E+01 0. -1.
         -5    1    3    3    0  502 -0.13029014630E+02  0.60004314224E+02 -0.41713035665E+02  0.74348656290E+02  0.41800000000E+01 0. -1.
        -11    1    1    2    0    0  0.13498925532E+02 -0.43339688148E+02  0.15816979105E+02  0.48070015470E+02  0.00000000000E+00 0.  1.
         11    1    1    2    0    0  0.26442526310E+02  0.47481128125E+02  0.26401586861E+02  0.60421093291E+02  0.00000000000E+00 0. -1.
</event>
<event>
 7    1  0.2688177E-009  0.2920375E+03  0.7561462E-02  0.1089290E+00
         -2   -1    0    0    0  501 -0.00000000000E+00  0.00000000000E+00  0.36314248244E+02  0.36314248244E+02  0.00000000000E+00 0.  1.
          2   -1    0    0  501    0  0.00000000000E+00 -0.00000000000E+00 -0.24561620202E+04  0.24561620202E+04  0.00000000000E+00 0. -1.
         25    2    1    2    0    0  0.15851412817E+03 -0.22253673617E+03 -0.14321669129E+04  0.14633521507E+04  0.12509245647E+03 0.  0.
          5    1    3    3  502    0  0.56903119149E+02 -0.18084736520E+03 -0.84939579465E+03  0.87030708537E+03  0.41800000000E+01 0. -1.
         -5    1    3    3    0  502  0.10161100902E+03 -0.41689370971E+02 -0.58277111827E+03  0.59304506532E+03  0.41800000000E+01 0. -1.
        -11    1    1    2    0    0 -0.16773408423E+03  0.21452743317E+03 -0.97091770665E+03  0.10083838236E+04  0.00000000000E+00 0. -1.
         11    1    1    2    0    0  0.92199560576E+01  0.80093029918E+01 -0.16763152351E+02  0.20740294136E+02  0.00000000000E+00 0.  1.
</event>
<event>
 7    1  0.2688177E-009  0.1475672E+03  0.7561462E-02  0.1203495E+00
         -2   -1    0    0    0  501 -0.00000000000E+00  0.00000000000E+00  0.41301808097E+02  0.41301808097E+02  0.00000000000E+00 0.  1.
          2   -1    0    0  501    0  0.00000000000E+00 -0.00000000000E+00 -0.77896196634E+03  0.77896196634E+03  0.00000000000E+00 0. -1.
         25    2    1    2    0    0 -0.12729082472E+03  0.13057748070E+02 -0.53768429083E+03  0.56667956747E+03  0.12509147350E+03 0.  0.
          5    1    3    3  502    0 -0.11192529906E+03  0.30290674094E+02 -0.52913530399E+03  0.54170696861E+03  0.41800000000E+01 0.  1.
         -5    1    3    3    0  502 -0.15365525655E+02 -0.17232926024E+02 -0.85489868379E+01  0.24972598863E+02  0.41800000000E+01 0.  1.
        -11    1    1    2    0    0  0.42223292147E+01 -0.30989275686E+02 -0.46581836029E+02  0.56107314312E+02  0.00000000000E+00 0.  1.
         11    1    1    2    0    0  0.12306849550E+03  0.17931527615E+02 -0.15339403138E+03  0.19747689265E+03  0.00000000000E+00 0. -1.
</event>
<event>
 7    1  0.2688177E-009  0.8923588E+02  0.7561462E-02  0.1304713E+00
         -3   -1    0    0    0  501 -0.00000000000E+00  0.00000000000E+00  0.60723692322E+03  0.60723692322E+03  0.00000000000E+00 0.  1.
          3   -1    0    0  501    0  0.00000000000E+00 -0.00000000000E+00 -0.24762603400E+02  0.24762603400E+02  0.00000000000E+00 0. -1.
         25    2    1    2    0    0 -0.52246137519E+02  0.25049882135E+02  0.35015143673E+03  0.37631313200E+03  0.12509352177E+03 0.  0.
          5    1    3    3  502    0 -0.84916472932E+01  0.26411950483E+02  0.32387062172E+03  0.32508360650E+03  0.41800000000E+01 0. -1.
         -5    1    3    3    0  502 -0.43754490226E+02 -0.13620683480E+01  0.26280815008E+02  0.51229525496E+02  0.41800000000E+01 0. -1.
        -11    1    1    2    0    0  0.54135306880E+02 -0.54565902711E+02  0.17655374999E+03  0.19255984998E+03  0.00000000000E+00 0. -1.
         11    1    1    2    0    0 -0.18891693610E+01  0.29516020576E+02  0.55769133108E+02  0.63126544648E+02  0.00000000000E+00 0.  1.
</event>
<event>
 7    1  0.2688177E-009  0.1094760E+03  0.7561462E-02  0.1261543E+00
          3   -1    0    0  501    0  0.00000000000E+00  0.00000000000E+00  0.35361499190E+03  0.35361499190E+03  0.00000000000E+00 0.  1.
         -3   -1    0    0    0  501 -0.00000000000E+00 -0.00000000000E+00 -0.71131835846E+02  0.71131835846E+02  0.00000000000E+00 0. -1.
         25    2    1    2    0    0 -0.58693861059E+02 -0.23467732601E+02  0.21719254574E+02  0.14182689830E+03  0.12508972485E+03 0.  0.
          5    1    3    3  502    0  0.19275788834E+02  0.13503670530E+02 -0.32114883779E+02  0.40034276728E+02  0.41800000000E+01 0. -1.
         -5    1    3    3    0  502 -0.77969649893E+02 -0.36971403131E+02  0.53834138354E+02  0.10179262157E+03  0.41800000000E+01 0. -1.
        -11    1    1    2    0    0  0.28223034093E+02  0.56842747608E+02  0.13219339648E+03  0.14663809765E+03  0.00000000000E+00 0. -1.
         11    1    1    2    0    0  0.30470826966E+02 -0.33375015007E+02  0.12857050500E+03  0.13628183180E+03  0.00000000000E+00 0.  1.
</event>
<event>
 7    1  0.2688177E-009  0.1132107E+03  0.7561462E-02  0.1254737E+00
         -3   -1    0    0    0  501 -0.00000000000E+00  0.00000000000E+00  0.15879131969E+03  0.15879131969E+03  0.00000000000E+00 0. -1.
          3   -1    0    0  501    0  0.00000000000E+00 -0.00000000000E+00 -0.16735719198E+03  0.16735719198E+03  0.00000000000E+00 0.  1.
         25    2    1    2    0    0 -0.56743961106E+02  0.75124646105E+00 -0.11152857032E+03  0.17693775909E+03  0.12509159484E+03 0.  0.
          5    1    3    3  502    0 -0.94131890284E+02  0.20652207929E+01 -0.55305020715E+02  0.10927577784E+03  0.41800000000E+01 0.  1.
         -5    1    3    3    0  502  0.37387929178E+02 -0.13139743318E+01 -0.56223549602E+02  0.67661981250E+02  0.41800000000E+01 0.  1.
        -11    1    1    2    0    0 -0.11049883001E+02 -0.21040446588E+02  0.64346956940E+02  0.68595416570E+02  0.00000000000E+00 0.  1.
         11    1    1    2    0    0  0.67793844107E+02  0.20289200127E+02  0.38615741093E+02  0.80615336015E+02  0.00000000000E+00 0. -1.
</event>
<event>
 7    1  0.2688177E-009  0.1488019E+03  0.7561462E-02  0.1201953E+00
          2   -1    0    0  501    0  0.00000000000E+00  0.00000000000E+00  0.20451339416E+03  0.20451339416E+03  0.00000000000E+00 0. -1.
         -2   -1    0    0    0  501 -0.00000000000E+00 -0.00000000000E+00 -0.12014125634E+03  0.12014125634E+03  0.00000000000E+00 0.  1.
         25    2    1    2    0    0 -0.29473386398E+02 -0.10903347695E+03  0.47604919311E+02  0.17513369363E+03  0.12509437517E+03 0.  0.
          5    1    3    3  502    0  0.49106264393E+02 -0.47892471084E+02  0.23267305488E+02  0.72553110848E+02  0.41800000000E+01 0. -1.
         -5    1    3    3    0  502 -0.78579650791E+02 -0.61141005864E+02  0.24337613823E+02  0.10258058278E+03  0.41800000000E+01 0. -1.
        -11    1    1    2    0    0 -0.35593084004E+01  0.91993213811E+02 -0.67280943943E+01  0.92307569125E+02  0.00000000000E+00 0.  1.
         11    1    1    2    0    0  0.33032694799E+02  0.17040263137E+02  0.43495312906E+02  0.57213387753E+02  0.00000000000E+00 0. -1.
</event>
<event>
 7    1  0.2688177E-009  0.8257650E+02  0.7561462E-02  0.1321895E+00
         -1   -1    0    0    0  501 -0.00000000000E+00  0.00000000000E+00  0.12944661776E+04  0.12944661776E+04  0.00000000000E+00 0.  1.
          1   -1    0    0  501    0  0.00000000000E+00 -0.00000000000E+00 -0.15451859639E+02  0.15451859639E+02  0.00000000000E+00 0. -1.
         25    2    1    2    0    0 -0.45436915850E+02  0.59562913224E+02  0.92016714431E+03  0.93164654166E+03  0.12508177791E+03 0.  0.
          5    1    3    3  502    0 -0.15063877601E+02  0.21757451701E+02  0.81839437344E+03  0.81883278512E+03  0.41800000000E+01 0.  1.
         -5    1    3    3    0  502 -0.30373038249E+02  0.37805461523E+02  0.10177277087E+03  0.11281375654E+03  0.41800000000E+01 0.  1.
        -11    1    1    2    0    0  0.55472886984E+02 -0.56532144125E+02  0.35915386430E+03  0.36778339107E+03  0.00000000000E+00 0.  1.
         11    1    1    2    0    0 -0.10035971134E+02 -0.30307690994E+01 -0.30669060135E+00  0.10488104550E+02  0.00000000000E+00 0. -1.
</event>
<event>
 7    1  0.2688177E-009  0.1292255E+03  0.7561462E-02  0.1228609E+00
          1   -1    0    0  501    0  0.00000000000E+00  0.00000000000E+00  0.49139240395E+03  0.49139240395E+03  0.00000000000E+00 0. -1.
         -1   -1    0    0    0  501 -0.00000000000E+00 -0.00000000000E+00 -0.38487813426E+02  0.38487813426E+02  0.00000000000E+00 0.  1.
         25    2    1    2    0    0 -0.80872106388E+02  0.15186897442E+02  0.27460623286E+03  0.31277122185E+03  0.12508522954E+03 0.  0.
          5    1    3    3  502    0  0.15111473666E+02  0.46104383942E+02  0.84090897513E+02  0.97173670814E+02  0.41800000000E+01 0.  1.
         -5    1    3    3    0  502 -0.95983580055E+02 -0.30917486500E+02  0.19051533535E+03  0.21559755104E+03  0.41800000000E+01 0.  1.
        -11    1    1    2    0    0 -0.37466649493E+01  0.17662583863E+02  0.11903984342E+01  0.18094789731E+02  0.00000000000E+00 0.  1.
         11    1    1    2    0    0  0.84618771338E+02 -0.32849481305E+02  0.17710795923E+03  0.19901420580E+03  0.00000000000E+00 0. -1.
</event>
<event>
 7    1  0.2688177E-009  0.1149901E+03  0.7561462E-02  0.1251598E+00
         -2   -1    0    0    0  501 -0.00000000000E+00  0.00000000000E+00  0.95591928383E+02  0.95591928383E+02  0.00000000000E+00 0. -1.
          2   -1    0    0  501    0  0.00000000000E+00 -0.00000000000E+00 -0.23784449250E+03  0.23784449250E+03  0.00000000000E+00 0.  1.
         25    2    1    2    0    0 -0.83669059013E+02  0.52081932003E+02 -0.62318504264E+02  0.17100948069E+03  0.12509039705E+03 0.  0.
          5    1    3    3  502    0 -0.35999296875E+02  0.39586881944E+02  0.33438208941E+02  0.63234933500E+02  0.41800000000E+01 0.  1.
         -5    1    3    3    0  502 -0.47669762138E+02  0.12495050059E+02 -0.95756713205E+02  0.10777454719E+03  0.41800000000E+01 0.  1.
        -11    1    1    2    0    0 -0.55908723246E+01 -0.35658441586E+02  0.69816182462E+01  0.36763097027E+02  0.00000000000E+00 0. -1.
         11    1    1    2    0    0  0.89259931338E+02 -0.16423490417E+02 -0.86915678104E+02  0.12566384317E+03  0.00000000000E+00 0.  1.
</event>
<event>
 7    1  0.2688177E-009  0.1106044E+03  0.7561462E-02  0.1259455E+00
         -1   -1    0    0    0  501 -0.00000000000E+00  0.00000000000E+00  0.34324043962E+03  0.34324043962E+03  0.00000000000E+00 0.  1.
          1   -1    0    0  501    0  0.00000000000E+00 -0.00000000000E+00 -0.68356898685E+02  0.68356898685E+02  0.00000000000E+00 0. -1.
         25    2    1    2    0    0 -0.38334460227E+02  0.58382051077E+02  0.37435066436E+02  0.14805769122E+03  0.12506678617E+03 0.  0.
          5    1    3    3  502    0  0.26035159328E+02 -0.24151708463E+02  0.22499810812E+02  0.42247466545E+02  0.41800000000E+01 0.  1.
         -5    1    3    3    0  502 -0.64369619554E+02  0.82533759540E+02  0.14935255624E+02  0.10581022468E+03  0.41800000000E+01 0.  1.
        -11    1    1    2    0    0  0.20943783676E+02 -0.12511409492E+01  0.25109161192E+01  0.21130833587E+02  0.00000000000E+00 0. -1.
         11    1    1    2    0    0  0.17390676551E+02 -0.57130910128E+02  0.23493755838E+03  0.24240881349E+03  0.00000000000E+00 0.  1.
</event>
<event>
 7    1  0.2688177E-009  0.9491517E+02  0.7561462E-02  0.1291367E+00
         -2   -1    0    0    0  501 -0.00000000000E+00  0.00000000000E+00  0.19575012587E+02  0.19575012587E+02  0.00000000000E+00 0.  1.
          2   -1    0    0  501    0  0.00000000000E+00 -0.00000000000E+00 -0.56177999885E+03  0.56177999885E+03  0.00000000000E+00 0. -1.
         25    2    1    2    0    0 -0.13496243937E+02 -0.16479131220E+02 -0.31127889345E+03  0.33614896183E+03  0.12509142523E+03 0.  0.
          5    1    3    3  502    0  0.76011246906E+01  0.43733675259E+02 -0.49258151942E+02  0.66439817737E+02  0.41800000000E+01 0. -1.
         -5    1    3    3    0  502 -0.21097368627E+02 -0.60212806479E+02 -0.26202074151E+03  0.26970914409E+03  0.41800000000E+01 0. -1.
        -11    1    1    2    0    0  0.46532147212E+02  0.82098022706E+01 -0.11353270488E+03  0.12297282893E+03  0.00000000000E+00 0. -1.
         11    1    1    2    0    0 -0.33035903275E+02  0.82693289497E+01 -0.11739338794E+03  0.12223322068E+03  0.00000000000E+00 0.  1.
</event>
<event>
 7    1  0.2688177E-009  0.1579134E+03  0.7561462E-02  0.1191073E+00
          2   -1    0    0  501    0  0.00000000000E+00  0.00000000000E+00  0.17123390227E+03  0.17123390227E+03  0.00000000000E+00 0.  1.
         -2   -1    0    0    0  501 -0.00000000000E+00 -0.00000000000E+00 -0.15492013790E+03  0.15492013790E+03  0.00000000000E+00 0. -1.
         25    2    1    2    0    0  0.11985535148E+03 -0.10473883260E+02  0.48640562641E+01  0.17362571816E+03  0.12508886223E+03 0.  0.
          5    1    3    3  502    0  0.16233385095E+02  0.48099665626E+02 -0.14492975459E+02  0.52958657108E+02  0.41800000000E+01 0.  1.
         -5    1    3    3    0  502  0.10362196638E+03 -0.58573548886E+02  0.19357031723E+02  0.12066706105E+03  0.41800000000E+01 0.  1.
        -11    1    1    2    0    0 -0.11047623250E+03 -0.21426578876E+02 -0.99700549555E+01  0.11297565324E+03  0.00000000000E+00 0. -1.
         11    1    1    2    0    0 -0.93791189750E+01  0.31900462136E+02  0.21419763057E+02  0.39552668768E+02  0.00000000000E+00 0.  1.
</event>
<event>
 7    1  0.2688177E-009  0.1039177E+03  0.7561462E-02  0.1272267E+00
          2   -1    0    0  501    0  0.00000000000E+00  0.00000000000E+00  0.37314803333E+03  0.37314803333E+03  0.00000000000E+00 0.  1.
         -2   -1    0    0    0  501 -0.00000000000E+00 -0.00000000000E+00 -0.44762421558E+02  0.44762421558E+02  0.00000000000E+00 0. -1.
         25    2    1    2    0    0  0.40060810717E+02  0.21652308635E+01  0.13233988119E+03  0.18646798804E+03  0.12508760782E+03 0.  0.
          5    1    3    3  502    0  0.57779374643E+02 -0.47657253816E+02  0.56467936590E+02  0.93892333224E+02  0.41800000000E+01 0. -1.
         -5    1    3    3    0  502 -0.17718563926E+02  0.49822484680E+02  0.75871944599E+02  0.92575654816E+02  0.41800000000E+01 0. -1.
        -11    1    1    2    0    0  0.43307522848E+00 -0.30405198054E+02  0.17525703496E+03  0.17787549557E+03  0.00000000000E+00 0.  1.
         11    1    1    2    0    0 -0.40493885946E+02  0.28239967190E+02  0.20788695626E+02  0.53566971276E+02  0.00000000000E+00 0. -1.
</event>
<event>
 7    1  0.2688177E-009  0.1580736E+03  0.7561462E-02  0.1190889E+00
         -2   -1    0    0    0  501 -0.00000000000E+00  0.00000000000E+00  0.97467494939E+03  0.97467494939E+03  0.00000000000E+00 0.  1.
          2   -1    0    0  501    0  0.00000000000E+00 -0.00000000000E+00 -0.34696861336E+02  0.34696861336E+02  0.00000000000E+00 0. -1.
         25    2    1    2    0    0 -0.24414742439E+02 -0.12479848006E+03  0.28760750185E+03  0.33843235621E+03  0.12509054456E+03 0.  0.
          5    1    3    3  502    0  0.34972244237E+02 -0.71173679515E+02  0.21898271637E+03  0.23293701507E+03  0.41800000000E+01 0.  1.
         -5    1    3    3    0  502 -0.59386986675E+02 -0.53624800540E+02  0.68624785479E+02  0.10549534114E+03  0.41800000000E+01 0.  1.
        -11    1    1    2    0    0  0.48657950519E+02  0.12303103845E+03  0.54025795224E+03  0.55622197685E+03  0.00000000000E+00 0. -1.
         11    1    1    2    0    0 -0.24243208081E+02  0.17674416083E+01  0.11211263396E+03  0.11471747767E+03  0.00000000000E+00 0.  1.
</event>
<event>
 7    1  0.2688177E-009  0.9565777E+02  0.7561462E-02  0.1289701E+00
         -4   -1    0    0    0  501 -0.00000000000E+00  0.00000000000E+00  0.12246029629E+03  0.12246029629E+03  0.00000000000E+00 0.  1.
          4   -1    0    0  501    0  0.00000000000E+00 -0.00000000000E+00 -0.81611540617E+02  0.81611540617E+02  0.00000000000E+00 0. -1.
         25    2    1    2    0    0 -0.68229160824E+00  0.24600642595E+02  0.99433027660E+01  0.12787450191E+03  0.12508941535E+03 0.  0.
          5    1    3    3  502    0  0.99363052010E+01  0.72071462826E+02 -0.12842184936E+02  0.73996081172E+02  0.41800000000E+01 0. -1.
         -5    1    3    3    0  502 -0.10618596809E+02 -0.47470820231E+02  0.22785487702E+02  0.53878420740E+02  0.41800000000E+01 0. -1.
        -11    1    1    2    0    0  0.31058587500E+02 -0.23976317553E+02  0.18509272942E+02  0.43383094008E+02  0.00000000000E+00 0. -1.
         11    1    1    2    0    0 -0.30376295892E+02 -0.62432504195E+00  0.12396179967E+02  0.32814240988E+02  0.00000000000E+00 0.  1.
</event>
<event>
 7    1  0.2688177E-009  0.7853431E+02  0.7561462E-02  0.1333263E+00
         -3   -1    0    0    0  501 -0.00000000000E+00  0.00000000000E+00  0.10629979841E+03  0.10629979841E+03  0.00000000000E+00 0.  1.
          3   -1    0    0  501    0  0.00000000000E+00 -0.00000000000E+00 -0.14457033324E+03  0.14457033324E+03  0.00000000000E+00 0. -1.
         25    2    1    2    0    0 -0.38956285742E+02  0.41050887142E+02 -0.19923513825E+02  0.13872069216E+03  0.12507484357E+03 0.  0.
          5    1    3    3  502    0  0.25918834683E+01 -0.77344342463E+01  0.45873729444E+02  0.46780453035E+02  0.41800000000E+01 0. -1.
         -5    1    3    3    0  502 -0.41548169210E+02  0.48785321389E+02 -0.65797243269E+02  0.91940239120E+02  0.41800000000E+01 0. -1.
        -11    1    1    2    0    0  0.41698408196E+02  0.83916320853E+00  0.27522738464E+02  0.49969616503E+02  0.00000000000E+00 0.  1.
         11    1    1    2    0    0 -0.27421224534E+01 -0.41890050351E+02 -0.45869759464E+02  0.62179822991E+02  0.00000000000E+00 0. -1.
</event>
<event>
 7    1  0.3394957E-009  0.1291249E+03  0.7561462E-02  0.1228760E+00
         -1   -1    0    0    0  501 -0.00000000000E+00  0.00000000000E+00  0.30558508995E+02  0.30558508995E+02  0.00000000000E+00 0.  1.
          1   -1    0    0  501    0  0.00000000000E+00 -0.00000000000E+00 -0.72767542610E+03  0.72767542610E+03  0.00000000000E+00 0. -1.
         25    2    1    2    0    0 -0.68662999901E+02 -0.66802309441E+02 -0.28949904990E+03  0.32959341667E+03  0.12507983179E+03 0.  0.
          5    1    3    3  502    0 -0.26617773806E+02 -0.10015366077E+03 -0.19199629874E+03  0.21821849779E+03  0.41800000000E+01 0.  1.
         -5    1    3    3    0  502 -0.42045226095E+02  0.33351351330E+02 -0.97502751159E+02  0.11137491888E+03  0.41800000000E+01 0.  1.
        -11    1    1    2    0    0  0.14328878624E+02 -0.34011318470E+00 -0.26647389366E+01  0.14578520954E+02  0.00000000000E+00 0.  1.
         11    1    1    2    0    0  0.54334121278E+02  0.67142422626E+02 -0.40495312827E+03  0.41406199747E+03  0.00000000000E+00 0. -1.
</event>
<event>
 7    1  0.2688177E-009  0.9325025E+02  0.7561462E-02  0.1295166E+00
          2   -1    0    0  501    0  0.00000000000E+00  0.00000000000E+00  0.21987629520E+02  0.21987629520E+02  0.00000000000E+00 0. -1.
         -2   -1    0    0    0  501 -0.00000000000E+00 -0.00000000000E+00 -0.54869948607E+03  0.54869948607E+03  0.00000000000E+00 0.  1.
         25    2    1    2    0    0  0.23415303200E+01 -0.10935762993E+02 -0.35077162128E+03  0.37256651880E+03  0.12506001343E+03 0.  0.
          5    1    3    3  502    0 -0.39296635767E+02 -0.36255911759E+02 -0.28819551931E+03  0.29314304780E+03  0.41800000000E+01 0. -1.
         -5    1    3    3    0  502  0.41638166087E+02  0.25320148766E+02 -0.62576101966E+02  0.79423471002E+02  0.41800000000E+01 0. -1.
        -11    1    1    2    0    0 -0.22359709801E+02 -0.30572069014E+02 -0.11892286805E+03  0.12480888018E+03  0.00000000000E+00 0.  1.
         11    1    1    2    0    0  0.20018179481E+02  0.41507832007E+02 -0.57017367214E+02  0.73311716606E+02  0.00000000000E+00 0. -1.
</event>
<event>
 7    1  0.2688177E-009  0.6794862E+02  0.7561462E-02  0.1367211E+00
         -1   -1    0    0    0  501 -0.00000000000E+00  0.00000000000E+00  0.16565907674E+02  0.16565907674E+02  0.00000000000E+00 0.  1.
          1   -1    0    0  501    0  0.00000000000E+00 -0.00000000000E+00 -0.78917928468E+03  0.78917928468E+03  0.00000000000E+00 0. -1.
         25    2    1    2    0    0 -0.27476329779E+02  0.51924280699E+00 -0.53948343102E+03  0.55447801772E+03  0.12509309126E+03 0.  0.
          5    1    3    3  502    0 -0.35377955518E+02 -0.21152386332E+02 -0.52560442156E+03  0.52723477081E+03  0.41800000000E+01 0.  1.
         -5    1    3    3    0  502  0.79016257388E+01  0.21671629139E+02 -0.13879009456E+02  0.27243246912E+02  0.41800000000E+01 0.  1.
        -11    1    1    2    0    0  0.49236672515E+02 -0.12263109363E+01 -0.22084125466E+03  0.22626668672E+03  0.00000000000E+00 0. -1.
         11    1    1    2    0    0 -0.21760342736E+02  0.70706812933E+00 -0.12288691327E+02  0.25000487912E+02  0.00000000000E+00 0.  1.
</event>
<event>
 7    1  0.2688177E-009  0.3173787E+03  0.7561462E-02  0.1076862E+00
          2   -1    0    0  501    0  0.00000000000E+00  0.00000000000E+00  0.76577802920E+03  0.76577802920E+03  0.00000000000E+00 0. -1.
         -2   -1    0    0    0  501 -0.00000000000E+00 -0.00000000000E+00 -0.14139474023E+03  0.14139474023E+03  0.00000000000E+00 0.  1.
         25    2    1    2    0    0  0.19059092079E+03 -0.25120436537E+03  0.31649513785E+03  0.46394492751E+03  0.12508873332E+03 0.  0.
          5    1    3    3  502    0  0.16584465413E+03 -0.18777756750E+03  0.30507780562E+03  0.39478450330E+03  0.41800000000E+01 0.  1.
         -5    1    3    3    0  502  0.24746266653E+02 -0.63426797869E+02  0.11417332234E+02  0.69160424208E+02  0.41800000000E+01 0.  1.
        -11    1    1    2    0    0 -0.17238581358E+03  0.21606994300E+03  0.28707903692E+03  0.39851908666E+03  0.00000000000E+00 0.  1.
         11    1    1    2    0    0 -0.18205107204E+02  0.35134422377E+02  0.20809114191E+02  0.44708755267E+02  0.00000000000E+00 0. -1.
</event>
<event>
 7    1  0.2688177E-009  0.2096241E+03  0.7561462E-02  0.1141864E+00
         -2   -1    0    0    0  501 -0.00000000000E+00  0.00000000000E+00  0.35948271078E+03  0.35948271078E+03  0.00000000000E+00 0.  1.
          2   -1    0    0  501    0  0.00000000000E+00 -0.00000000000E+00 -0.15038526536E+03  0.15038526536E+03  0.00000000000E+00 0. -1.
         25    2    1    2    0    0 -0.32818833860E+02 -0.19748951386E+03  0.16827214161E+03  0.28989568459E+03  0.12507921634E+03 0.  0.
          5    1    3    3  502    0 -0.20671606792E+01 -0.11287435266E+03  0.16467075974E+03  0.19969683060E+03  0.41800000000E+01 0.  1.
         -5    1    3    3    0  502 -0.30751673180E+02 -0.84615161202E+02  0.36013818733E+01  0.90198853984E+02  0.41800000000E+01 0.  1.
        -11    1    1    2    0    0  0.54580770542E+02  0.81178638667E+02  0.18514281890E+02  0.99558076130E+02  0.00000000000E+00 0.  1.
         11    1    1    2    0    0 -0.21761936682E+02  0.11631087519E+03  0.22311021928E+02  0.12041421542E+03  0.00000000000E+00 0. -1.
</event>
<event>
 7    1  0.2688177E-009  0.1315020E+03  0.7561462E-02  0.1225244E+00
         -1   -1    0    0    0  501 -0.00000000000E+00  0.00000000000E+00  0.15358764463E+03  0.15358764463E+03  0.00000000000E+00 0.  1.
          1   -1    0    0  501    0  0.00000000000E+00 -0.00000000000E+00 -0.14761833058E+03  0.14761833058E+03  0.00000000000E+00 0. -1.
         25    2    1    2    0    0 -0.65571315817E+01  0.97799822910E+02  0.39519048881E+02  0.16376059500E+03  0.12509186990E+03 0.  0.
          5    1    3    3  502    0  0.14313411814E+02 -0.24517497371E+02 -0.95747642427E+01  0.30251114780E+02  0.41800000000E+01 0.  1.
         -5    1    3    3    0  502 -0.20870543396E+02  0.12231732028E+03  0.49093813123E+02  0.13350948022E+03  0.41800000000E+01 0.  1.
        -11    1    1    2    0    0 -0.19286986824E+02 -0.68119712702E+02  0.17556728716E+02  0.72941907314E+02  0.00000000000E+00 0.  1.
         11    1    1    2    0    0  0.25844118406E+02 -0.29680110208E+02 -0.51106463548E+02  0.64503472887E+02  0.00000000000E+00 0. -1.
</event>
<event>
 7    1  0.2688177E-009  0.1281099E+03  0.7561462E-02  0.1230287E+00
         -4   -1    0    0    0  501 -0.00000000000E+00  0.00000000000E+00  0.27121985740E+02  0.27121985740E+02  0.00000000000E+00 0.  1.
          4   -1    0    0  501    0  0.00000000000E+00 -0.00000000000E+00 -0.93936528968E+03  0.93936528968E+03  0.00000000000E+00 0. -1.
         25    2    1    2    0    0  0.51856555332E+02  0.59231048663E+02 -0.75528215975E+03  0.76960821802E+03  0.12509296124E+03 0.  0.
          5    1    3    3  502    0  0.38681837899E+02 -0.29613143502E+02 -0.40621637120E+03  0.40914842720E+03  0.41800000000E+01 0. -1.
         -5    1    3    3    0  502  0.13174717433E+02  0.88844192165E+02 -0.34906578855E+03  0.36045979082E+03  0.41800000000E+01 0. -1.
        -11    1    1    2    0    0 -0.46028944605E+02 -0.81931480258E+02 -0.13677140968E+03  0.16594532143E+03  0.00000000000E+00 0.  1.
         11    1    1    2    0    0 -0.58276107275E+01  0.22700431595E+02 -0.20189734509E+02  0.30933735968E+02  0.00000000000E+00 0. -1.
</event>
<event>
 7    1  0.2688177E-009  0.7668164E+02  0.7561462E-02  0.1338741E+00
         -2   -1    0    0    0  501 -0.00000000000E+00  0.00000000000E+00  0.54946803859E+02  0.54946803859E+02  0.00000000000E+00 0.  1.
          2   -1    0    0  501    0  0.00000000000E+00 -0.00000000000E+00 -0.25317952286E+03  0.25317952286E+03  0.00000000000E+00 0. -1.
         25    2    1    2    0    0 -0.40880676040E+02  0.64238289865E+01 -0.84154442421E+02  0.15633592734E+03  0.12508579754E+03 0.  0.
          5    1    3    3  502    0  0.12943483553E+02 -0.42065312657E+01 -0.98459800798E+02  0.99483835093E+02  0.41800000000E+01 0.  1.
         -5    1    3    3    0  502 -0.53824159593E+02  0.10630360252E+02  0.14305358376E+02  0.56852092251E+02  0.41800000000E+01 0.  1.
        -11    1    1    2    0    0  0.28358279412E+02  0.32547880637E+02 -0.16929505104E+02  0.46369868322E+02  0.00000000000E+00 0.  1.
         11    1    1    2    0    0  0.12522396629E+02 -0.38971709624E+02 -0.97148771480E+02  0.10542053106E+03  0.00000000000E+00 0. -1.
</event>
<event>
 7    1  0.2688177E-009  0.1111890E+03  0.7561462E-02  0.1258384E+00
          2   -1    0    0  501    0  0.00000000000E+00  0.00000000000E+00  0.88091769595E+03  0.88091769595E+03  0.00000000000E+00 0. -1.
         -2   -1    0    0    0  501 -0.00000000000E+00 -0.00000000000E+00 -0.17234177282E+02  0.17234177282E+02  0.00000000000E+00 0.  1.
         25    2    1    2    0    0  0.52194858014E+02 -0.13390281047E+02  0.57426409178E+03  0.59019522588E+03  0.12509018633E+03 0.  0.
          5    1    3    3  502    0 -0.13379440426E+02  0.37918608132E+02  0.32164419092E+03  0.32417478036E+03  0.41800000000E+01 0.  1.
         -5    1    3    3    0  502  0.65574298440E+02 -0.51308889178E+02  0.25261990085E+03  0.26602044552E+03  0.41800000000E+01 0.  1.
        -11    1    1    2    0    0 -0.39060494027E+02  0.47813741106E+02  0.12445441593E+03  0.13892723878E+03  0.00000000000E+00 0.  1.
         11    1    1    2    0    0 -0.13134363987E+02 -0.34423460059E+02  0.16496501097E+03  0.16902940858E+03  0.00000000000E+00 0. -1.
</event>
<event>
 7    1  0.2688177E-009  0.2228162E+03  0.7561462E-02  0.1131801E+00
          2   -1    0    0  501    0  0.00000000000E+00  0.00000000000E+00  0.14178728471E+04  0.14178728471E+04  0.00000000000E+00 0.  1.
         -2   -1    0    0    0  501 -0.00000000000E+00 -0.00000000000E+00 -0.36860462473E+02  0.36860462473E+02  0.00000000000E+00 0. -1.
         25    2    1    2    0    0 -0.16012243458E+03 -0.12358006023E+03  0.68052737645E+03  0.72088525653E+03  0.12508724014E+03 0.  0.
          5    1    3    3  502    0  0.16362958341E+02 -0.24357741482E+01  0.18828392862E+02  0.25409844138E+02  0.41800000000E+01 0. -1.
         -5    1    3    3    0  502 -0.17648539292E+03 -0.12114428608E+03  0.66169898359E+03  0.69547541239E+03  0.41800000000E+01 0. -1.
        -11    1    1    2    0    0  0.15921723684E+03  0.94048146084E+02  0.54322822234E+03  0.57383977192E+03  0.00000000000E+00 0. -1.
         11    1    1    2    0    0  0.90519774086E+00  0.29531914144E+02  0.15725678588E+03  0.16000828117E+03  0.00000000000E+00 0.  1.
</event>
<event>
 7    1  0.2688177E-009  0.1216967E+03  0.7561462E-02  0.1240324E+00
          1   -1    0    0  501    0  0.00000000000E+00  0.00000000000E+00  0.74839290542E+03  0.74839290542E+03  0.00000000000E+00 0. -1.
         -1   -1    0    0    0  501 -0.00000000000E+00 -0.00000000000E+00 -0.21564356412E+02  0.21564356412E+02  0.00000000000E+00 0.  1.
         25    2    1    2    0    0  0.15052709234E+02 -0.58688324726E+02  0.31703285239E+03  0.34616244341E+03  0.12509078392E+03 0.  0.
          5    1    3    3  502    0 -0.48316710743E+02 -0.54156527341E+02  0.20203011901E+03  0.21471160979E+03  0.41800000000E+01 0. -1.
         -5    1    3    3    0  502  0.63369419977E+02 -0.45317973855E+01  0.11500273337E+03  0.13145083362E+03  0.41800000000E+01 0. -1.
        -11    1    1    2    0    0  0.11329460973E+02  0.75104917345E+02  0.26310016619E+03  0.27384448642E+03  0.00000000000E+00 0. -1.
         11    1    1    2    0    0 -0.26382170207E+02 -0.16416592619E+02  0.14669553044E+03  0.14995033201E+03  0.00000000000E+00 0.  1.
</event>
<event>
 7    1  0.2688177E-009  0.7541153E+02  0.7561462E-02  0.1342601E+00
         -1   -1    0    0    0  501 -0.00000000000E+00  0.00000000000E+00  0.13087390114E+03  0.13087390114E+03  0.00000000000E+00 0.  1.
          1   -1    0    0  501    0  0.00000000000E+00 -0.00000000000E+00 -0.14412358302E+03  0.14412358302E+03  0.00000000000E+00 0. -1.
         25    2    1    2    0    0  0.52871126717E+02  0.19834463082E+01 -0.73054976530E+02  0.15421843338E+03  0.12508799102E+03 0.  0.
          5    1    3    3  502    0  0.31728492061E+02 -0.11270188894E+01  0.32981178447E+02  0.45969532429E+02  0.41800000000E+01 0.  1.
         -5    1    3    3    0  502  0.21142634656E+02  0.31104651976E+01 -0.10603615498E+03  0.10824890095E+03  0.41800000000E+01 0.  1.
        -11    1    1    2    0    0  0.13480313095E+02  0.22559558064E+02 -0.26452268307E+01  0.26413059766E+02  0.00000000000E+00 0. -1.
         11    1    1    2    0    0 -0.66351439812E+02 -0.24543004372E+02  0.62450521475E+02  0.94365991021E+02  0.00000000000E+00 0.  1.
</event>
<event>
 7    1  0.2688177E-009  0.1643605E+03  0.7561462E-02  0.1183860E+00
         -2   -1    0    0    0  501 -0.00000000000E+00  0.00000000000E+00  0.74983689944E+02  0.74983689944E+02  0.00000000000E+00 0.  1.
          2   -1    0    0  501    0  0.00000000000E+00 -0.00000000000E+00 -0.58541586534E+03  0.58541586534E+03  0.00000000000E+00 0. -1.
         25    2    1    2    0    0  0.87732013585E+02 -0.11576670064E+03 -0.42951469267E+03  0.47034773446E+03  0.12508111332E+03 0.  0.
          5    1    3    3  502    0  0.97271989411E+02 -0.41263236511E+02 -0.32357226738E+03  0.34041295396E+03  0.41800000000E+01 0.  1.
         -5    1    3    3    0  502 -0.95399758259E+01 -0.74503464128E+02 -0.10594242530E+03  0.12993478050E+03  0.41800000000E+01 0.  1.
        -11    1    1    2    0    0 -0.54498042954E+02  0.91857070973E+02 -0.88577629453E+01  0.10717377542E+03  0.00000000000E+00 0.  1.
         11    1    1    2    0    0 -0.33233970631E+02  0.23909629666E+02 -0.72059719775E+02  0.82878045396E+02  0.00000000000E+00 0. -1.
</event>
<event>
 7    1  0.3127644E-009  0.1246005E+03  0.7561462E-02  0.1235695E+00
         -1   -1    0    0    0  501 -0.00000000000E+00  0.00000000000E+00  0.63915704501E+02  0.63915704501E+02  0.00000000000E+00 0.  1.
          1   -1    0    0  501    0  0.00000000000E+00 -0.00000000000E+00 -0.37648938169E+03  0.37648938169E+03  0.00000000000E+00 0. -1.
         25    2    1    2    0    0  0.10970885861E+03  0.79899290900E+01 -0.18513181244E+03  0.24903905341E+03  0.12508712773E+03 0.  0.
          5    1    3    3  502    0  0.16343680213E+02 -0.32391201396E+02 -0.12625513491E+03  0.13143111239E+03  0.41800000000E+01 0. -1.
         -5    1    3    3    0  502  0.93365178394E+02  0.40381130486E+02 -0.58876677524E+02  0.11760794103E+03  0.41800000000E+01 0. -1.
        -11    1    1    2    0    0 -0.63555919469E+02 -0.11485937426E+02 -0.10287148841E+02  0.65399595483E+02  0.00000000000E+00 0.  1.
         11    1    1    2    0    0 -0.46152939138E+02  0.34960083355E+01 -0.11715471591E+03  0.12596643730E+03  0.00000000000E+00 0. -1.
</event>
<event>
 7    1  0.2688177E-009  0.1027066E+03  0.7561462E-02  0.1274705E+00
          1   -1    0    0  501    0  0.00000000000E+00  0.00000000000E+00  0.81658330669E+03  0.81658330669E+03  0.00000000000E+00 0. -1.
         -1   -1    0    0    0  501 -0.00000000000E+00 -0.00000000000E+00 -0.15637227343E+02  0.15637227343E+02  0.00000000000E+00 0.  1.
         25    2    1    2    0    0  0.17433363898E+02  0.19152232187E+02  0.50589583154E+03  0.52177454416E+03  0.12508937760E+03 0.  0.
          5    1    3    3  502    0  0.27463792107E+02  0.60380355218E+02  0.15992404679E+03  0.17318550838E+03  0.41800000000E+01 0. -1.
         -5    1    3    3    0  502 -0.10030428209E+02 -0.41228123031E+02  0.34597178475E+03  0.34858903578E+03  0.41800000000E+01 0. -1.
        -11    1    1    2    0    0 -0.42754493176E+02 -0.43635880511E+02  0.17645536847E+03  0.18673118062E+03  0.00000000000E+00 0. -1.
         11    1    1    2    0    0  0.25321129278E+02  0.24483648324E+02  0.11859487934E+03  0.12371480926E+03  0.00000000000E+00 0.  1.
</event>
<event>
 7    1  0.2688177E-009  0.1699547E+03  0.7561462E-02  0.1177895E+00
          2   -1    0    0  501    0  0.00000000000E+00  0.00000000000E+00  0.26717400134E+03  0.26717400134E+03  0.00000000000E+00 0. -1.
         -2   -1    0    0    0  501 -0.00000000000E+00 -0.00000000000E+00 -0.12846015517E+03  0.12846015517E+03  0.00000000000E+00 0.  1.
         25    2    1    2    0    0  0.55122929602E+02  0.13778093908E+03  0.95047336984E+02  0.21613098222E+03  0.12512585931E+03 0.  0.
          5    1    3    3  502    0  0.55096515889E+02  0.15910487721E+03  0.68497324431E+02  0.18182228651E+03  0.41800000000E+01 0. -1.
         -5    1    3    3    0  502  0.26413712812E-01 -0.21323938136E+02  0.26550012553E+02  0.34308695718E+02  0.41800000000E+01 0. -1.
        -11    1    1    2    0    0  0.57096011624E+00 -0.14093580115E+02  0.41506821904E+02  0.43838011594E+02  0.00000000000E+00 0. -1.
         11    1    1    2    0    0 -0.55693889718E+02 -0.12368735896E+03  0.21596872836E+01  0.13566516269E+03  0.00000000000E+00 0.  1.
</event>
<event>
 7    1  0.2688177E-009  0.9685692E+02  0.7561462E-02  0.1287048E+00
          2   -1    0    0  501    0  0.00000000000E+00  0.00000000000E+00  0.24094206242E+03  0.24094206242E+03  0.00000000000E+00 0.  1.
         -2   -1    0    0    0  501 -0.00000000000E+00 -0.00000000000E+00 -0.56493104703E+02  0.56493104703E+02  0.00000000000E+00 0. -1.
         25    2    1    2    0    0  0.22577432269E+02 -0.25605778109E+02  0.71415769512E+02  0.14802980868E+03  0.12508883164E+03 0.  0.
          5    1    3    3  502    0  0.66503553066E+02 -0.44288317011E+02  0.32731018490E+02  0.86446339225E+02  0.41800000000E+01 0. -1.
         -5    1    3    3    0  502 -0.43926120796E+02  0.18682538902E+02  0.38684751022E+02  0.61583469451E+02  0.41800000000E+01 0. -1.
        -11    1    1    2    0    0  0.18707924353E+02  0.37752427183E+01  0.98736822182E+02  0.10056440198E+03  0.00000000000E+00 0.  1.
         11    1    1    2    0    0 -0.41285356622E+02  0.21830535390E+02  0.14296366019E+02  0.48840956463E+02  0.00000000000E+00 0. -1.
</event>
<event>
 7    1  0.2688177E-009  0.1519853E+03  0.7561462E-02  0.1198054E+00
          1   -1    0    0  501    0  0.00000000000E+00  0.00000000000E+00  0.94988636620E+02  0.94988636620E+02  0.00000000000E+00 0. -1.
         -1   -1    0    0    0  501 -0.00000000000E+00 -0.00000000000E+00 -0.25101837173E+03  0.25101837173E+03  0.00000000000E+00 0.  1.
         25    2    1    2    0    0  0.66638735678E+02 -0.83750809811E+02 -0.10436618468E+03  0.19492445949E+03  0.12509326588E+03 0.  0.
          5    1    3    3  502    0 -0.35881595852E+02 -0.15163530630E+02 -0.38934913791E+02  0.55234242042E+02  0.41800000000E+01 0.  1.
         -5    1    3    3    0  502  0.10252033153E+03 -0.68587279180E+02 -0.65431270885E+02  0.13969021745E+03  0.41800000000E+01 0.  1.
        -11    1    1    2    0    0 -0.80615952827E+02  0.94153617418E+02 -0.40545187646E+02  0.13041375604E+03  0.00000000000E+00 0. -1.
         11    1    1    2    0    0  0.13977217149E+02 -0.10402807608E+02 -0.11118362785E+02  0.20668792814E+02  0.00000000000E+00 0.  1.
</event>
<event>
 6    1  0.2688177E-009  0.1257374E+03  0.7561462E-02  0.1233921E+00
         -1   -1    0    0    0  501 -0.00000000000E+00  0.00000000000E+00  0.32614336595E+03  0.32614336595E+03  0.00000000000E+00 0.  1.
          1   -1    0    0  501    0  0.00000000000E+00 -0.00000000000E+00 -0.84533970640E+02  0.84533970640E+02  0.00000000000E+00 0. -1.
          5    1    1    2  502    0  0.19211299566E+02 -0.65730575653E+02  0.50430499327E+01  0.68793076391E+02  0.41800000000E+01 0. -1.
         -5    1    1    2    0  502  0.42710009370E+02 -0.38257647152E+02  0.16442911549E+03  0.17419012281E+03  0.41800000000E+01 0. -1.
        -11    1    1    2    0    0 -0.19870064012E+02  0.65221779609E+02 -0.86317522192E+01  0.68725592944E+02  0.00000000000E+00 0. -1.
         11    1    1    2    0    0 -0.42051244924E+02  0.38766443197E+02  0.80768982112E+02  0.98968544443E+02  0.00000000000E+00 0.  1.
</event>
<event>
 7    1  0.2688177E-009  0.1231405E+03  0.7561462E-02  0.1238004E+00
          1   -1    0    0  501    0  0.00000000000E+00  0.00000000000E+00  0.82442490854E+02  0.82442490854E+02  0.00000000000E+00 0. -1.
         -1   -1    0    0    0  501 -0.00000000000E+00 -0.00000000000E+00 -0.22451222454E+03  0.22451222454E+03  0.00000000000E+00 0.  1.
         25    2    1    2    0    0  0.24821109147E+02  0.74700427078E+02 -0.66207089929E+02  0.16194704022E+03  0.12508886367E+03 0.  0.
          5    1    3    3  502    0 -0.34542311380E+02  0.58556596144E+02  0.43382457372E+01  0.68252025637E+02  0.41800000000E+01 0. -1.
         -5    1    3    3    0  502  0.59363420526E+02  0.16143830934E+02 -0.70545335666E+02  0.93695014584E+02  0.41800000000E+01 0. -1.
        -11    1    1    2    0    0 -0.10553386704E+02 -0.92834098811E+02 -0.38412643398E+02  0.10102017148E+03  0.00000000000E+00 0. -1.
         11    1    1    2    0    0 -0.14267722442E+02  0.18133671732E+02 -0.37450000356E+02  0.43987503689E+02  0.00000000000E+00 0.  1.
</event>
<event>
 7    1  0.2688177E-009  0.1476263E+03  0.7561462E-02  0.1203420E+00
         -1   -1    0    0    0  501 -0.00000000000E+00  0.00000000000E+00  0.47311523608E+03  0.47311523608E+03  0.00000000000E+00 0.  1.
          1   -1    0    0  501    0  0.00000000000E+00 -0.00000000000E+00 -0.68516654284E+02  0.68516654284E+02  0.00000000000E+00 0. -1.
         25    2    1    2    0    0 -0.91494172105E+02  0.43770098024E+02  0.69635158540E+02  0.17545209208E+03  0.12508947318E+03 0.  0.
          5    1    3    3  502    0 -0.11882989491E+03  0.13708659909E+02  0.45761154501E+02  0.12814065296E+03  0.41800000000E+01 0. -1.
         -5    1    3    3    0  502  0.27335722800E+02  0.30061438115E+02  0.23874004040E+02  0.47311439118E+02  0.41800000000E+01 0. -1.
        -11    1    1    2    0    0  0.36122821656E+02 -0.65847635465E+02  0.25871116098E+03  0.26939234243E+03  0.00000000000E+00 0.  1.
         11    1    1    2    0    0  0.55371350449E+02  0.22077537441E+02  0.76252262272E+02  0.96787455859E+02  0.00000000000E+00 0. -1.
</event>
<event>
 7    1  0.2688177E-009  0.1702519E+03  0.7561462E-02  0.1177585E+00
         -2   -1    0    0    0  501 -0.00000000000E+00  0.00000000000E+00  0.20710054887E+03  0.20710054887E+03  0.00000000000E+00 0.  1.
          2   -1    0    0  501    0  0.00000000000E+00 -0.00000000000E+00 -0.16706944000E+03  0.16706944000E+03  0.00000000000E+00 0. -1.
         25    2    1    2    0    0 -0.78755329695E+02 -0.10584309278E+03 -0.48833628784E+02  0.18824891266E+03  0.12509103714E+03 0.  0.
          5    1    3    3  502    0 -0.88437721772E+02 -0.19645289156E+02 -0.46363106900E+01  0.90808236384E+02  0.41800000000E+01 0.  1.
         -5    1    3    3    0  502  0.96823920771E+01 -0.86197803623E+02 -0.44197318094E+02  0.97440676273E+02  0.41800000000E+01 0.  1.
        -11    1    1    2    0    0  0.86344868771E+02  0.11945189058E+03  0.76705852776E+02  0.16615648761E+03  0.00000000000E+00 0. -1.
         11    1    1    2    0    0 -0.75895390755E+01 -0.13608797799E+02  0.12158884875E+02  0.19764588595E+02  0.00000000000E+00 0.  1.
</event>
<event>
 7    1  0.2688177E-009  0.1727599E+03  0.7561462E-02  0.1175000E+00
          2   -1    0    0  501    0  0.00000000000E+00  0.00000000000E+00  0.86712900261E+03  0.86712900261E+03  0.00000000000E+00 0. -1.
         -2   -1    0    0    0  501 -0.00000000000E+00 -0.00000000000E+00 -0.40171369612E+02  0.40171369612E+02  0.00000000000E+00 0.  1.
         25    2    1    2    0    0 -0.10515484995E+03 -0.10704536989E+03  0.48041644236E+03  0.51861655195E+03  0.12508763400E+03 0.  0.
          5    1    3    3  502    0 -0.12655689472E+03 -0.53397255228E+02  0.33464589088E+03  0.36176409323E+03  0.41800000000E+01 0.  1.
         -5    1    3    3    0  502  0.21402044769E+02 -0.53648114666E+02  0.14577055148E+03  0.15685245872E+03  0.41800000000E+01 0.  1.
        -11    1    1    2    0    0  0.87218311650E+02  0.85296152490E+02  0.33782305531E+03  0.35917528341E+03  0.00000000000E+00 0. -1.
         11    1    1    2    0    0  0.17936538299E+02  0.21749217404E+02  0.87181353224E+01  0.29508536855E+02  0.00000000000E+00 0.  1.
</event>
<event>
 7    1  0.2688177E-009  0.1092115E+03  0.7561462E-02  0.1262037E+00
         -2   -1    0    0    0  501 -0.00000000000E+00  0.00000000000E+00  0.21267681876E+03  0.21267681876E+03  0.00000000000E+00 0.  1.
          2   -1    0    0  501    0  0.00000000000E+00 -0.00000000000E+00 -0.90132855889E+02  0.90132855889E+02  0.00000000000E+00 0. -1.
         25    2    1    2    0    0 -0.77104930079E+02 -0.21809136239E+02  0.10217565348E+03  0.18029916282E+03  0.12508842985E+03 0.  0.
          5    1    3    3  502    0 -0.69686413571E+02 -0.62362503620E+02  0.32234056904E+02  0.99003964156E+02  0.41800000000E+01 0.  1.
         -5    1    3    3    0  502 -0.74185165082E+01  0.40553367382E+02  0.69941596579E+02  0.81295198660E+02  0.41800000000E+01 0.  1.
        -11    1    1    2    0    0  0.57636440238E+02  0.53539118186E+01 -0.30635271048E+02  0.65491552488E+02  0.00000000000E+00 0. -1.
         11    1    1    2    0    0  0.19468489841E+02  0.16455224420E+02  0.51003580434E+02  0.57018959342E+02  0.00000000000E+00 0.  1.
</event>
<event>
 7    1  0.2688177E-009  0.1210995E+03  0.7561462E-02  0.1241294E+00
         -1   -1    0    0    0  501 -0.00000000000E+00  0.00000000000E+00  0.10497918434E+03  0.10497918434E+03  0.00000000000E+00 0.  1.
          1   -1    0    0  501    0  0.00000000000E+00 -0.00000000000E+00 -0.24410268173E+03  0.24410268173E+03  0.00000000000E+00 0. -1.
         25    2    1    2    0    0 -0.78633695289E+02 -0.50843326441E+02 -0.14913110252E+03  0.21599835344E+03  0.12508757362E+03 0.  0.
          5    1    3    3  502    0 -0.92391993073E+02  0.22126199446E+01 -0.12610509896E+03  0.15640058969E+03  0.41800000000E+01 0.  1.
         -5    1    3    3    0  502  0.13758297784E+02 -0.53055946386E+02 -0.23026003560E+02  0.59597763756E+02  0.41800000000E+01 0.  1.
        -11    1    1    2    0    0  0.19995393586E+02  0.59378016260E+01 -0.39151814897E+02  0.44361445677E+02  0.00000000000E+00 0. -1.
         11    1    1    2    0    0  0.58638301703E+02  0.44905524815E+02  0.49159420028E+02  0.88722066945E+02  0.00000000000E+00 0.  1.
</event>
<event>
 7    1  0.2688177E-009  0.1940532E+03  0.7561462E-02  0.1154856E+00
          2   -1    0    0  501    0  0.00000000000E+00  0.00000000000E+00  0.45317823978E+03  0.45317823978E+03  0.00000000000E+00 0. -1.
         -2   -1    0    0    0  501 -0.00000000000E+00 -0.00000000000E+00 -0.10544064965E+03  0.10544064965E+03  0.00000000000E+00 0.  1.
         25    2    1    2    0    0  0.13503674864E+03 -0.13093189649E+03  0.19844628300E+03  0.30067801563E+03  0.12509299278E+03 0.  0.
          5    1    3    3  502    0  0.96435475579E+02 -0.67921549848E+02  0.38017608354E+02  0.12399979366E+03  0.41800000000E+01 0.  1.
         -5    1    3    3    0  502  0.38601273063E+02 -0.63010346638E+02  0.16042867465E+03  0.17667822196E+03  0.41800000000E+01 0.  1.
        -11    1    1    2    0    0 -0.39507121246E+02  0.76546072084E+02  0.11318789266E+03  0.14223787409E+03  0.00000000000E+00 0.  1.
         11    1    1    2    0    0 -0.95529627395E+02  0.54385824402E+02  0.36103414471E+02  0.11570299971E+03  0.00000000000E+00 0. -1.
</event>
<event>
 7    1  0.2688177E-009  0.1195642E+03  0.7561462E-02  0.1243818E+00
         -1   -1    0    0    0  501 -0.00000000000E+00  0.00000000000E+00  0.25920008473E+02  0.25920008473E+02  0.00000000000E+00 0.  1.
          1   -1    0    0  501    0  0.00000000000E+00 -0.00000000000E+00 -0.59213420404E+03  0.59213420404E+03  0.00000000000E+00 0. -1.
         25    2    1    2    0    0 -0.12294381853E+02  0.49474327734E+02 -0.39053602761E+03  0.41323680208E+03  0.12508958710E+03 0.  0.
          5    1    3    3  502    0  0.50195227209E+02 -0.57625911864E+01 -0.12538821928E+03  0.13524957015E+03  0.41800000000E+01 0.  1.
         -5    1    3    3    0  502 -0.62489609062E+02  0.55236918920E+02 -0.26514780833E+03  0.27798723193E+03  0.41800000000E+01 0.  1.
        -11    1    1    2    0    0 -0.34341167530E+02 -0.47016986856E+02 -0.10598120621E+03  0.12092116816E+03  0.00000000000E+00 0.  1.
         11    1    1    2    0    0  0.46635549383E+02 -0.24573408784E+01 -0.69696961754E+02  0.83896242277E+02  0.00000000000E+00 0. -1.
</event>
<event>
 7    1  0.2688177E-009  0.1260701E+03  0.7561462E-02  0.1233406E+00
          1   -1    0    0  501    0  0.00000000000E+00  0.00000000000E+00  0.13674303110E+03  0.13674303110E+03  0.00000000000E+00 0. -1.
         -1   -1    0    0    0  501 -0.00000000000E+00 -0.00000000000E+00 -0.12637205905E+03  0.12637205905E+03  0.00000000000E+00 0.  1.
         25    2    1    2    0    0  0.70325417615E+02  0.12040792546E+02  0.27053445258E+02  0.14652491662E+03  0.12508803797E+03 0.  0.
          5    1    3    3  502    0 -0.11326724629E+02 -0.41851818916E+02 -0.41364568666E+01  0.43754452492E+02  0.41800000000E+01 0. -1.
         -5    1    3    3    0  502  0.81652142244E+02  0.53892611463E+02  0.31189902124E+02  0.10277046413E+03  0.41800000000E+01 0. -1.
        -11    1    1    2    0    0  0.15557766096E+02  0.13983991240E+02 -0.16832884542E+02  0.26850364968E+02  0.00000000000E+00 0. -1.
         11    1    1    2    0    0 -0.85883183711E+02 -0.26024783787E+02  0.15041133407E+00  0.89739808552E+02  0.00000000000E+00 0.  1.
</event>
<event>
 7    1  0.2688177E-009  0.5048464E+02  0.7561462E-02  0.1442745E+00
         -1   -1    0    0    0  501 -0.00000000000E+00  0.00000000000E+00  0.29145014028E+02  0.29145014028E+02  0.00000000000E+00 0. -1.
          1   -1    0    0  501    0  0.00000000000E+00 -0.00000000000E+00 -0.42948778667E+03  0.42948778667E+03  0.00000000000E+00 0.  1.
         25    2    1    2    0    0  0.16021339959E+02 -0.24886073690E+02 -0.21315775932E+03  0.24891782766E+03  0.12509138488E+03 0.  0.
          5    1    3    3  502    0  0.34061431545E+01  0.48532010543E+01 -0.21609070437E+03  0.21621244248E+03  0.41800000000E+01 0. -1.
         -5    1    3    3    0  502  0.12615196805E+02 -0.29739274745E+02  0.29329450479E+01  0.32705385174E+02  0.41800000000E+01 0. -1.
        -11    1    1    2    0    0 -0.22575382046E+02 -0.10681458751E+02 -0.70015159211E+01  0.25937668761E+02  0.00000000000E+00 0. -1.
         11    1    1    2    0    0  0.65540420867E+01  0.35567532442E+02 -0.18018349740E+03  0.18377730428E+03  0.00000000000E+00 0.  1.
</event>
<event>
 7    1  0.2688177E-009  0.2139447E+03  0.7561462E-02  0.1138480E+00
          2   -1    0    0  501    0  0.00000000000E+00  0.00000000000E+00  0.13902769186E+04  0.13902769186E+04  0.00000000000E+00 0. -1.
         -2   -1    0    0    0  501 -0.00000000000E+00 -0.00000000000E+00 -0.52433519375E+02  0.52433519375E+02  0.00000000000E+00 0.  1.
         25    2    1    2    0    0  0.16805254524E+03  0.11358975802E+03  0.10690561813E+04  0.10952956054E+04  0.12508818244E+03 0.  0.
          5    1    3    3  502    0  0.66200144515E+02  0.89557075797E+02  0.31781319607E+03  0.33678721614E+03  0.41800000000E+01 0.  1.
         -5    1    3    3    0  502  0.10185240072E+03  0.24032682220E+02  0.75124298524E+03  0.75850838929E+03  0.41800000000E+01 0.  1.
        -11    1    1    2    0    0 -0.12568139497E+03 -0.49925275137E+02  0.12308155828E+03  0.18285900614E+03  0.00000000000E+00 0.  1.
         11    1    1    2    0    0 -0.42371150271E+02 -0.63664482880E+02  0.14570565969E+03  0.16455582646E+03  0.00000000000E+00 0. -1.
</event>
<event>
 7    1  0.2688177E-009  0.1999450E+03  0.7561462E-02  0.1149785E+00
         -2   -1    0    0    0  501 -0.00000000000E+00  0.00000000000E+00  0.21630984118E+02  0.21630984118E+02  0.00000000000E+00 0.  1.
          2   -1    0    0  501    0  0.00000000000E+00 -0.00000000000E+00 -0.19111853147E+04  0.19111853147E+04  0.00000000000E+00 0. -1.
         25    2    1    2    0    0 -0.15589809011E+03 -0.71063870452E+02 -0.10796786610E+04  0.11003220995E+04  0.12509365865E+03 0.  0.
          5    1    3    3  502    0 -0.11068705337E+03  0.17528664087E+02 -0.53629393566E+03  0.54789372663E+03  0.41800000000E+01 0.  1.
         -5    1    3    3    0  502 -0.45211036736E+02 -0.88592534539E+02 -0.54338472538E+03  0.55242837290E+03  0.41800000000E+01 0.  1.
        -11    1    1    2    0    0  0.10747227378E+03  0.67430454016E+01 -0.54961625213E+03  0.56006587371E+03  0.00000000000E+00 0. -1.
         11    1    1    2    0    0  0.48425816332E+02  0.64320825051E+02 -0.26025941742E+03  0.27242832558E+03  0.00000000000E+00 0.  1.
</event>
<event>
 7    1  0.2688177E-009  0.1104280E+03  0.7561462E-02  0.1259779E+00
          2   -1    0    0  501    0  0.00000000000E+00  0.00000000000E+00  0.82607155556E+03  0.82607155556E+03  0.00000000000E+00 0. -1.
         -2   -1    0    0    0  501 -0.00000000000E+00 -0.00000000000E+00 -0.19429769903E+02  0.19429769903E+02  0.00000000000E+00 0.  1.
         25    2    1    2    0    0 -0.10454024581E+02  0.30948775696E+02  0.63538398660E+03  0.64840057104E+03  0.12507348542E+03 0.  0.
          5    1    3    3  502    0  0.42777939042E+02 -0.26771310720E+02  0.24734479471E+03  0.25247489978E+03  0.41800000000E+01 0.  1.
         -5    1    3    3    0  502 -0.53231963623E+02  0.57720086416E+02  0.38803919189E+03  0.39592567127E+03  0.41800000000E+01 0.  1.
        -11    1    1    2    0    0  0.35135057429E+02 -0.49507830175E+02  0.77859981180E+02  0.98730310333E+02  0.00000000000E+00 0. -1.
         11    1    1    2    0    0 -0.24681032848E+02  0.18559054478E+02  0.93397817881E+02  0.98370444090E+02  0.00000000000E+00 0.  1.
</event>
<event>
 7    1  0.2688177E-009  0.1011180E+03  0.7561462E-02  0.1277962E+00
          1   -1    0    0  501    0  0.00000000000E+00  0.00000000000E+00  0.53284634758E+03  0.53284634758E+03  0.00000000000E+00 0. -1.
         -1   -1    0    0    0  501 -0.00000000000E+00 -0.00000000000E+00 -0.26501165913E+02  0.26501165913E+02  0.00000000000E+00 0.  1.
         25    2    1    2    0    0  0.15941327287E+02 -0.30150671868E+02  0.20804443278E+03  0.24515222708E+03  0.12511570446E+03 0.  0.
          5    1    3    3  502    0  0.46560396182E+02  0.34414341718E+02  0.89713568421E+02  0.10685604413E+03  0.41800000000E+01 0. -1.
         -5    1    3    3    0  502 -0.30619068894E+02 -0.64565013586E+02  0.11833086436E+03  0.13829618295E+03  0.41800000000E+01 0. -1.
        -11    1    1    2    0    0  0.20988087487E+02 -0.50521995419E+01  0.14880149510E+02  0.26219141595E+02  0.00000000000E+00 0.  1.
         11    1    1    2    0    0 -0.36929414774E+02  0.35202871410E+02  0.28342059938E+03  0.28797614481E+03  0.00000000000E+00 0. -1.
</event>
<event>
 7    1  0.2688177E-009  0.1103033E+03  0.7561462E-02  0.1260009E+00
          2   -1    0    0  501    0  0.00000000000E+00  0.00000000000E+00  0.18645392099E+03  0.18645392099E+03  0.00000000000E+00 0.  1.
         -2   -1    0    0    0  501 -0.00000000000E+00 -0.00000000000E+00 -0.10472653260E+03  0.10472653260E+03  0.00000000000E+00 0. -1.
         25    2    1    2    0    0  0.57737404655E+02 -0.13872191146E+01  0.10191736812E+03  0.17137661323E+03  0.12508901376E+03 0.  0.
          5    1    3    3  502    0  0.79389878334E+02  0.95733875520E+01  0.15553936906E+02  0.81570827410E+02  0.41800000000E+01 0.  1.
         -5    1    3    3    0  502 -0.21652473679E+02 -0.10960606667E+02  0.86363431218E+02  0.89805785820E+02  0.41800000000E+01 0.  1.
        -11    1    1    2    0    0 -0.41937986898E+02 -0.48183723092E+02  0.31981005064E+00  0.63879325251E+02  0.00000000000E+00 0.  1.
         11    1    1    2    0    0 -0.15799417757E+02  0.49570942206E+02 -0.20509789790E+02  0.55924515107E+02  0.00000000000E+00 0. -1.
</event>
<event>
 7    1  0.2688177E-009  0.1088804E+03  0.7561462E-02  0.1262657E+00
         -3   -1    0    0    0  501 -0.00000000000E+00  0.00000000000E+00  0.24010499638E+02  0.24010499638E+02  0.00000000000E+00 0.  1.
          3   -1    0    0  501    0  0.00000000000E+00 -0.00000000000E+00 -0.73280891563E+03  0.73280891563E+03  0.00000000000E+00 0. -1.
         25    2    1    2    0    0 -0.41530416185E+02  0.50311927789E+01 -0.57993179583E+03  0.59474202039E+03  0.12508834731E+03 0.  0.
          5    1    3    3  502    0 -0.36962412138E+02 -0.55060291050E+02 -0.22139423357E+03  0.23115089145E+03  0.41800000000E+01 0. -1.
         -5    1    3    3    0  502 -0.45680040466E+01  0.60091483829E+02 -0.35853756226E+03  0.36359112893E+03  0.41800000000E+01 0. -1.
        -11    1    1    2    0    0 -0.24567111096E+02 -0.32544258367E+01 -0.11396683607E+02  0.27276704940E+02  0.00000000000E+00 0.  1.
         11    1    1    2    0    0  0.66097527281E+02 -0.17767669421E+01 -0.11746993655E+03  0.13480068994E+03  0.00000000000E+00 0. -1.
</event>
<event>
 7    1  0.2688177E-009  0.1321483E+03  0.7561462E-02  0.1224302E+00
         -1   -1    0    0    0  501 -0.00000000000E+00  0.00000000000E+00  0.39876519039E+03  0.39876519039E+03  0.00000000000E+00 0.  1.
          1   -1    0    0  501    0  0.00000000000E+00 -0.00000000000E+00 -0.51027190586E+02  0.51027190586E+02  0.00000000000E+00 0. -1.
         25    2    1    2    0    0 -0.87801447225E+02  0.26831997037E+02  0.23177651000E+03  0.27892001866E+03  0.12508787319E+03 0.  0.
          5    1    3    3  502    0 -0.74283710654E+02  0.69368842204E+02  0.19864930638E+03  0.22317958075E+03  0.41800000000E+01 0.  1.
         -5    1    3    3    0  502 -0.13517736571E+02 -0.42536845166E+02  0.33127203624E+02  0.55740437912E+02  0.41800000000E+01 0.  1.
        -11    1    1    2    0    0  0.45698510055E+02 -0.51576400214E+02  0.95868268089E+02  0.11806440491E+03  0.00000000000E+00 0.  1.
         11    1    1    2    0    0  0.42102937170E+02  0.24744403177E+02  0.20093221714E+02  0.52807957410E+02  0.00000000000E+00 0. -1.
</event>
<event>
 7    1  0.2688177E-009  0.1048924E+03  0.7561462E-02  0.1270332E+00
          2   -1    0    0  501    0  0.00000000000E+00  0.00000000000E+00  0.10173984545E+04  0.10173984545E+04  0.00000000000E+00 0. -1.
         -2   -1    0    0    0  501 -0.00000000000E+00 -0.00000000000E+00 -0.16333845930E+02  0.16333845930E+02  0.00000000000E+00 0.  1.
         25    2    1    2    0    0 -0.33339990815E+02 -0.88574441538E+00  0.79196437173E+03  0.80247383018E+03  0.12507734611E+03 0.  0.
          5    1    3    3  502    0 -0.59077501071E+02 -0.40595300118E+02  0.61739110251E+03  0.62155239150E+03  0.41800000000E+01 0. -1.
         -5    1    3    3    0  502  0.25737510256E+02  0.39709555702E+02  0.17457326922E+03  0.18092143868E+03  0.41800000000E+01 0. -1.
        -11    1    1    2    0    0 -0.19205948439E+02  0.25929970466E+02  0.12417650633E+03  0.12830057111E+03  0.00000000000E+00 0. -1.
         11    1    1    2    0    0  0.52545939254E+02 -0.25044226051E+02  0.84923730521E+02  0.10295789914E+03  0.00000000000E+00 0.  1.
</event>
<event>
 7    1  0.2688177E-009  0.3219296E+03  0.7561462E-02  0.1074765E+00
          2   -1    0    0  501    0  0.00000000000E+00  0.00000000000E+00  0.15078689547E+03  0.15078689547E+03  0.00000000000E+00 0. -1.
         -2   -1    0    0    0  501 -0.00000000000E+00 -0.00000000000E+00 -0.75473004074E+03  0.75473004074E+03  0.00000000000E+00 0.  1.
         25    2    1    2    0    0 -0.23052081395E+03 -0.19742869553E+03 -0.44000344180E+03  0.54896947953E+03  0.12508607106E+03 0.  0.
          5    1    3    3  502    0 -0.38753741991E+02 -0.11110732152E+03 -0.14908295266E+03  0.18997338916E+03  0.41800000000E+01 0.  1.
         -5    1    3    3    0  502 -0.19176707196E+03 -0.86321374007E+02 -0.29092048913E+03  0.35899609037E+03  0.41800000000E+01 0.  1.
        -11    1    1    2    0    0  0.90140151195E+02  0.13454652149E+03 -0.97125948664E+02  0.18884242957E+03  0.00000000000E+00 0.  1.
         11    1    1    2    0    0  0.14038066276E+03  0.62882174035E+02 -0.66813754805E+02  0.16770502711E+03  0.00000000000E+00 0. -1.
</event>
<event>
 7    1  0.2688177E-009  0.8387244E+02  0.7561462E-02  0.1318408E+00
         -1   -1    0    0    0  501 -0.00000000000E+00  0.00000000000E+00  0.13954944539E+03  0.13954944539E+03  0.00000000000E+00 0.  1.
          1   -1    0    0  501    0  0.00000000000E+00 -0.00000000000E+00 -0.10529848799E+03  0.10529848799E+03  0.00000000000E+00 0. -1.
         25    2    1    2    0    0  0.26939704570E+02 -0.34376711315E+02 -0.27022514442E+02  0.13526371513E+03  0.12513412956E+03 0.  0.
          5    1    3    3  502    0  0.45144730482E+02  0.18708861008E+02  0.28069310950E+02  0.56510413091E+02  0.41800000000E+01 0.  1.
         -5    1    3    3    0  502 -0.18205025912E+02 -0.53085572323E+02 -0.55091825393E+02  0.78753302042E+02  0.41800000000E+01 0.  1.
        -11    1    1    2    0    0 -0.18549791821E+02 -0.72817119748E+01 -0.13155394635E+02  0.23878494800E+02  0.00000000000E+00 0. -1.
         11    1    1    2    0    0 -0.83899127489E+01  0.41658423290E+02  0.74428866478E+02  0.85705723450E+02  0.00000000000E+00 0.  1.
</event>
<event>
 7    1  0.2688177E-009  0.1090497E+03  0.7561462E-02  0.1262340E+00
         -2   -1    0    0    0  501 -0.00000000000E+00  0.00000000000E+00  0.77887265693E+02  0.77887265693E+02  0.00000000000E+00 0.  1.
          2   -1    0    0  501    0  0.00000000000E+00 -0.00000000000E+00 -0.19072400103E+03  0.19072400103E+03  0.00000000000E+00 0. -1.
         25    2    1    2    0    0 -0.38258774526E+02  0.18158507188E+02 -0.58148281077E+02  0.14429984639E+03  0.12509099834E+03 0.  0.
          5    1    3    3  502    0  0.36593950811E+02  0.39183712106E+02 -0.29485812649E+02  0.61329976992E+02  0.41800000000E+01 0.  1.
         -5    1    3    3    0  502 -0.74852725337E+02 -0.21025204918E+02 -0.28662468428E+02  0.82969869402E+02  0.41800000000E+01 0.  1.
        -11    1    1    2    0    0 -0.22355478290E+02 -0.12424102331E+02  0.16654325506E+02  0.30520358556E+02  0.00000000000E+00 0.  1.
         11    1    1    2    0    0  0.60614252816E+02 -0.57344048566E+01 -0.71342779762E+02  0.93791061769E+02  0.00000000000E+00 0. -1.
</event>
<event>
 7    1  0.2688177E-009  0.9638888E+02  0.7561462E-02  0.1288078E+00
         -1   -1    0    0    0  501 -0.00000000000E+00  0.00000000000E+00  0.12002300100E+03  0.12002300100E+03  0.00000000000E+00 0.  1.
          1   -1    0    0  501    0  0.00000000000E+00 -0.00000000000E+00 -0.14923233938E+03  0.14923233938E+03  0.00000000000E+00 0. -1.
         25    2    1    2    0    0  0.34372131850E+02 -0.54673118367E+02  0.29036397915E+02  0.14373952870E+03  0.12508935361E+03 0.  0.
          5    1    3    3  502    0  0.17064330015E+02 -0.68668651993E+02  0.68287255531E+02  0.98423558121E+02  0.41800000000E+01 0.  1.
         -5    1    3    3    0  502  0.17307801835E+02  0.13995533626E+02 -0.39250857616E+02  0.45315970578E+02  0.41800000000E+01 0.  1.
        -11    1    1    2    0    0 -0.58602710960E+02  0.38608223327E+02 -0.65015677282E+02  0.95665620432E+02  0.00000000000E+00 0. -1.
         11    1    1    2    0    0  0.24230579110E+02  0.16064895040E+02  0.67699409925E+01  0.29850191251E+02  0.00000000000E+00 0.  1.
</event>
<event>
 7    1  0.2688177E-009  0.1100120E+03  0.7561462E-02  0.1260548E+00
          1   -1    0    0  501    0  0.00000000000E+00  0.00000000000E+00  0.47457184007E+03  0.47457184007E+03  0.00000000000E+00 0. -1.
         -1   -1    0    0    0  501 -0.00000000000E+00 -0.00000000000E+00 -0.41366728933E+02  0.41366728933E+02  0.00000000000E+00 0.  1.
         25    2    1    2    0    0 -0.77476135756E+02  0.42725851438E+02  0.22831037210E+03  0.27495882719E+03  0.12509468674E+03 0.  0.
          5    1    3    3  502    0 -0.63037231396E+02  0.61375906229E+02  0.63913502362E+02  0.10882601983E+03  0.41800000000E+01 0.  1.
         -5    1    3    3    0  502 -0.14438904360E+02 -0.18650054791E+02  0.16439686974E+03  0.16613280737E+03  0.41800000000E+01 0.  1.
        -11    1    1    2    0    0  0.20107546587E+02  0.16146585759E+02  0.12026824720E+03  0.12300193879E+03  0.00000000000E+00 0. -1.
         11    1    1    2    0    0  0.57368589169E+02 -0.58872437197E+02  0.84626491833E+02  0.11797780302E+03  0.00000000000E+00 0.  1.
</event>
<event>
 7    1  0.2688177E-009  0.1048987E+03  0.7561462E-02  0.1270319E+00
          2   -1    0    0  501    0  0.00000000000E+00  0.00000000000E+00  0.14462713487E+04  0.14462713487E+04  0.00000000000E+00 0. -1.
         -2   -1    0    0    0  501 -0.00000000000E+00 -0.00000000000E+00 -0.10135993699E+02  0.10135993699E+02  0.00000000000E+00 0.  1.
         25    2    1    2    0    0  0.26318288590E+02  0.58296658509E+01  0.11107374999E+04  0.11180840728E+04  0.12509021840E+03 0.  0.
          5    1    3    3  502    0 -0.42841779921E+02 -0.22619496865E+02  0.30248545696E+03  0.30636903208E+03  0.41800000000E+01 0. -1.
         -5    1    3    3    0  502  0.69160068512E+02  0.28449162716E+02  0.80825204296E+03  0.81171504069E+03  0.41800000000E+01 0. -1.
        -11    1    1    2    0    0 -0.48698932419E+02  0.19511463915E+02  0.13291948346E+03  0.14289811870E+03  0.00000000000E+00 0.  1.
         11    1    1    2    0    0  0.22380643829E+02 -0.25341129766E+02  0.19247837162E+03  0.19542515093E+03  0.00000000000E+00 0. -1.
</event>
<event>
 6    1  0.2688177E-009  0.1132140E+03  0.7561462E-02  0.1254731E+00
         -2   -1    0    0    0  501 -0.00000000000E+00  0.00000000000E+00  0.41579862762E+02  0.41579862762E+02  0.00000000000E+00 0.  1.
          2   -1    0    0  501    0  0.00000000000E+00 -0.00000000000E+00 -0.49830710476E+03  0.49830710476E+03  0.00000000000E+00 0. -1.
          5    1    1    2  502    0 -0.25285956701E+02  0.28395398677E+01 -0.24074981235E+03  0.24212679971E+03  0.41800000000E+01 0. -1.
         -5    1    1    2    0  502 -0.14675879602E+02  0.71877473712E+02 -0.61895530774E+02  0.96074355575E+02  0.41800000000E+01 0. -1.
        -11    1    1    2    0    0  0.70855447228E+02 -0.60430992674E+02 -0.92117792359E+02  0.13098888100E+03  0.00000000000E+00 0.  1.
         11    1    1    2    0    0 -0.30893610924E+02 -0.14286020906E+02 -0.61964106515E+02  0.70696931230E+02  0.00000000000E+00 0. -1.
</event>
<event>
 7    1  0.2688177E-009  0.1217353E+03  0.7561462E-02  0.1240262E+00
         -2   -1    0    0    0  501 -0.00000000000E+00  0.00000000000E+00  0.12031212202E+03  0.12031212202E+03  0.00000000000E+00 0.  1.
          2   -1    0    0  501    0  0.00000000000E+00 -0.00000000000E+00 -0.19284004786E+03  0.19284004786E+03  0.00000000000E+00 0. -1.
         25    2    1    2    0    0 -0.78311924143E+02  0.68571118424E+02 -0.48751388772E+02  0.16987685683E+03  0.12508674125E+03 0.  0.
          5    1    3    3  502    0 -0.33437330955E+02  0.22985854678E+02 -0.86393310508E+02  0.95538898451E+02  0.41800000000E+01 0. -1.
         -5    1    3    3    0  502 -0.44874593188E+02  0.45585263746E+02  0.37641921736E+02  0.74337958383E+02  0.41800000000E+01 0. -1.
        -11    1    1    2    0    0 -0.19736283740E+02 -0.23434001308E+02 -0.17201372656E+02  0.35136313615E+02  0.00000000000E+00 0. -1.
         11    1    1    2    0    0  0.98048207883E+02 -0.45137117116E+02 -0.65751644080E+01  0.10813899943E+03  0.00000000000E+00 0.  1.
</event>
<event>
 7    1  0.2688177E-009  0.1111376E+03  0.7561462E-02  0.1258478E+00
         -3   -1    0    0    0  501 -0.00000000000E+00  0.00000000000E+00  0.23087676107E+03  0.23087676107E+03  0.00000000000E+00 0.  1.
          3   -1    0    0  501    0  0.00000000000E+00 -0.00000000000E+00 -0.84603169469E+02  0.84603169469E+02  0.00000000000E+00 0. -1.
         25    2    1    2    0    0 -0.13786594737E+02 -0.61800934563E+02  0.14845867106E+03  0.20419651613E+03  0.12508722748E+03 0.  0.
          5    1    3    3  502    0 -0.45636188387E+02  0.88077593356E+01  0.10587818368E+03  0.11570609532E+03  0.41800000000E+01 0. -1.
         -5    1    3    3    0  502  0.31849593650E+02 -0.70608693899E+02  0.42580487385E+02  0.88490420813E+02  0.41800000000E+01 0. -1.
        -11    1    1    2    0    0 -0.23894678200E+02 -0.19589568883E+01 -0.24153174250E+02  0.34031881886E+02  0.00000000000E+00 0. -1.
         11    1    1    2    0    0  0.37681272936E+02  0.63759891452E+02  0.21968094785E+02  0.77251532519E+02  0.00000000000E+00 0.  1.
</event>
<event>
 7    1  0.2688177E-009  0.1249301E+03  0.7561462E-02  0.1235179E+00
          2   -1    0    0  501    0  0.00000000000E+00  0.00000000000E+00  0.48112903000E+02  0.48112903000E+02  0.00000000000E+00 0. -1.
         -2   -1    0    0    0  501 -0.00000000000E+00 -0.00000000000E+00 -0.63224917800E+03  0.63224917800E+03  0.00000000000E+00 0.  1.
         25    2    1    2    0    0 -0.92879929602E+02 -0.25790164364E+02 -0.46347269360E+03  0.48964764798E+03  0.12512420853E+03 0.  0.
          5    1    3    3  502    0 -0.37530977698E+02 -0.31354135355E+02 -0.42295743227E+02  0.64792425375E+02  0.41800000000E+01 0.  1.
         -5    1    3    3    0  502 -0.55348951905E+02  0.55639709910E+01 -0.42117695037E+03  0.42485522261E+03  0.41800000000E+01 0.  1.
        -11    1    1    2    0    0  0.11492125395E+03  0.36376154939E+02 -0.85091232940E+02  0.14754876205E+03  0.00000000000E+00 0. -1.
         11    1    1    2    0    0 -0.22041324350E+02 -0.10585990575E+02 -0.35572348463E+02  0.43165670976E+02  0.00000000000E+00 0.  1.
</event>
<event>
 7    1  0.2688177E-009  0.9563321E+02  0.7561462E-02  0.1289756E+00
          3   -1    0    0  501    0  0.00000000000E+00  0.00000000000E+00  0.22678274894E+03  0.22678274894E+03  0.00000000000E+00 0. -1.
         -3   -1    0    0    0  501 -0.00000000000E+00 -0.00000000000E+00 -0.86863213489E+02  0.86863213489E+02  0.00000000000E+00 0.  1.
         25    2    1    2    0    0  0.63413128563E+02 -0.30801067774E+02  0.17629424935E+02  0.14466521187E+03  0.12508915322E+03 0.  0.
          5    1    3    3  502    0  0.37991833429E+02 -0.43099808104E+01  0.70412288022E+02  0.80232898779E+02  0.41800000000E+01 0. -1.
         -5    1    3    3    0  502  0.25421295133E+02 -0.26491086963E+02 -0.52782863087E+02  0.64432313092E+02  0.41800000000E+01 0. -1.
        -11    1    1    2    0    0 -0.75488060874E+02 -0.73396640681E+01  0.89017476162E+02  0.11694626572E+03  0.00000000000E+00 0. -1.
         11    1    1    2    0    0  0.12074932311E+02  0.38140731842E+02  0.33272634355E+02  0.52034484841E+02  0.00000000000E+00 0.  1.
</event>
<event>
 7    1  0.2688177E-009  0.1811269E+03  0.7561462E-02  0.1166717E+00
         -2   -1    0    0    0  501 -0.00000000000E+00  0.00000000000E+00  0.12009511775E+03  0.12009511775E+03  0.00000000000E+00 0.  1.
          2   -1    0    0  501    0  0.00000000000E+00 -0.00000000000E+00 -0.34284622831E+03  0.34284622831E+03  0.00000000000E+00 0. -1.
         25    2    1    2    0    0  0.14231705368E+03  0.73973744910E+02 -0.46121956534E+02  0.20856608265E+03  0.12508523996E+03 0.  0.
          5    1    3    3  502    0  0.63383992910E+02  0.80103423007E+02 -0.72142375299E+02  0.12512427282E+03  0.41800000000E+01 0.  1.
         -5    1    3    3    0  502  0.78933060768E+02 -0.61296780963E+01  0.26020418765E+02  0.83441809834E+02  0.41800000000E+01 0.  1.
        -11    1    1    2    0    0 -0.83565483010E+02 -0.86924459358E+02 -0.98062434332E+02  0.15541973045E+03  0.00000000000E+00 0. -1.
         11    1    1    2    0    0 -0.58751570668E+02  0.12950714447E+02 -0.78566719692E+02  0.98955532962E+02  0.00000000000E+00 0.  1.
</event>
<event>
 7    1  0.2688177E-009  0.1163318E+03  0.7561462E-02  0.1249274E+00
          2   -1    0    0  501    0  0.00000000000E+00  0.00000000000E+00  0.37651758013E+03  0.37651758013E+03  0.00000000000E+00 0. -1.
         -2   -1    0    0    0  501 -0.00000000000E+00 -0.00000000000E+00 -0.46760446473E+02  0.46760446473E+02  0.00000000000E+00 0.  1.
         25    2    1    2    0    0  0.43807324529E+02  0.56545058391E+02  0.22278366939E+03  0.26532358663E+03  0.12509043514E+03 0.  0.
          5    1    3    3  502    0  0.63732371352E+02 -0.59362644023E+01  0.52802722746E+02  0.83082214238E+02  0.41800000000E+01 0. -1.
         -5    1    3    3    0  502 -0.19925046823E+02  0.62481322793E+02  0.16998094665E+03  0.18224137239E+03  0.41800000000E+01 0. -1.
        -11    1    1    2    0    0  0.21006064066E+02 -0.15161468824E+02  0.65823739795E+02  0.70738176292E+02  0.00000000000E+00 0. -1.
         11    1    1    2    0    0 -0.64813388595E+02 -0.41383589567E+02  0.41149724469E+02  0.87216263681E+02  0.00000000000E+00 0.  1.
</event>
<event>
 7    1  0.2688177E-009  0.1049723E+03  0.7561462E-02  0.1270174E+00
         -1   -1    0    0    0  501 -0.00000000000E+00  0.00000000000E+00  0.51709835213E+02  0.51709835213E+02  0.00000000000E+00 0.  1.
          1   -1    0    0  501    0  0.00000000000E+00 -0.00000000000E+00 -0.23109820709E+03  0.23109820709E+03  0.00000000000E+00 0. -1.
         25    2    1    2    0    0  0.36845691427E+01  0.13958693217E+02 -0.11516189064E+03  0.17065650751E+03  0.12511179535E+03 0.  0.
          5    1    3    3  502    0 -0.21038886961E+02  0.64769414588E+02 -0.73786157924E+02  0.10049667324E+03  0.41800000000E+01 0. -1.
         -5    1    3    3    0  502  0.24723456104E+02 -0.50810721371E+02 -0.41375732712E+02  0.70159834275E+02  0.41800000000E+01 0. -1.
        -11    1    1    2    0    0  0.30193632870E+02 -0.34175655182E+02 -0.55344260566E+02  0.71712049550E+02  0.00000000000E+00 0. -1.
         11    1    1    2    0    0 -0.33878202013E+02  0.20216961964E+02 -0.88822206770E+01  0.40439485244E+02  0.00000000000E+00 0.  1.
</event>
<event>
 7    1  0.2688177E-009  0.2249011E+03  0.7561462E-02  0.1130281E+00
         -2   -1    0    0    0  501 -0.00000000000E+00  0.00000000000E+00  0.17027003246E+03  0.17027003246E+03  0.00000000000E+00 0. -1.
          2   -1    0    0  501    0  0.00000000000E+00 -0.00000000000E+00 -0.35619751600E+03  0.35619751600E+03  0.00000000000E+00 0.  1.
         25    2    1    2    0    0  0.52646914581E+02 -0.20871669972E+03 -0.41116217971E+02  0.25234010031E+03  0.12510245596E+03 0.  0.
          5    1    3    3  502    0  0.36631533154E+02 -0.76204338165E+02  0.42556926257E+02  0.94749853556E+02  0.41800000000E+01 0. -1.
         -5    1    3    3    0  502  0.16015381427E+02 -0.13251236155E+03 -0.83673144227E+02  0.15759024675E+03  0.41800000000E+01 0. -1.
        -11    1    1    2    0    0 -0.76368653667E+02  0.16654411060E+03 -0.12523991046E+03  0.22193275380E+03  0.00000000000E+00 0.  1.
         11    1    1    2    0    0  0.23721739086E+02  0.42172589119E+02 -0.19571355108E+02  0.52194694357E+02  0.00000000000E+00 0. -1.
</event>
<event>
 7    1  0.2688177E-009  0.1458551E+03  0.7561462E-02  0.1205661E+00
         -4   -1    0    0    0  501 -0.00000000000E+00  0.00000000000E+00  0.10175305738E+03  0.10175305738E+03  0.00000000000E+00 0.  1.
          4   -1    0    0  501    0  0.00000000000E+00 -0.00000000000E+00 -0.39523419761E+03  0.39523419761E+03  0.00000000000E+00 0. -1.
         25    2    1    2    0    0  0.11502345636E+03 -0.71988647396E+02 -0.30829167577E+02  0.18711198984E+03  0.12509076026E+03 0.  0.
          5    1    3    3  502    0  0.46624058039E+02 -0.37736102734E+02  0.48187275099E+02  0.77053891005E+02  0.41800000000E+01 0.  1.
         -5    1    3    3    0  502  0.68399398320E+02 -0.34252544663E+02 -0.79016442675E+02  0.11005809884E+03  0.41800000000E+01 0.  1.
        -11    1    1    2    0    0 -0.62468852990E+02 -0.39814986588E+01 -0.15983623457E+03  0.17165614410E+03  0.00000000000E+00 0.  1.
         11    1    1    2    0    0 -0.52554603368E+02  0.75970146055E+02 -0.10281573808E+03  0.13821912105E+03  0.00000000000E+00 0. -1.
</event>
<event>
 7    1  0.2688177E-009  0.1138052E+03  0.7561462E-02  0.1253681E+00
         -2   -1    0    0    0  501 -0.00000000000E+00  0.00000000000E+00  0.84070208319E+02  0.84070208319E+02  0.00000000000E+00 0.  1.
          2   -1    0    0  501    0  0.00000000000E+00 -0.00000000000E+00 -0.30022463307E+03  0.30022463307E+03  0.00000000000E+00 0. -1.
         25    2    1    2    0    0  0.80640385916E+02 -0.26236901243E+02 -0.21131942927E+03  0.25979685403E+03  0.12508899773E+03 0.  0.
          5    1    3    3  502    0 -0.93812782265E+01 -0.48557402586E+02 -0.11868854047E+03  0.12864785955E+03  0.41800000000E+01 0. -1.
         -5    1    3    3    0  502  0.90021664143E+02  0.22320501344E+02 -0.92630888792E+02  0.13114899448E+03  0.41800000000E+01 0. -1.
        -11    1    1    2    0    0 -0.50666244377E+02  0.12616991811E+02  0.42165573664E+02  0.67113280385E+02  0.00000000000E+00 0.  1.
         11    1    1    2    0    0 -0.29974141539E+02  0.13619909432E+02 -0.47000569152E+02  0.57384706974E+02  0.00000000000E+00 0. -1.
</event>
<event>
 7    1  0.2688177E-009  0.1052585E+03  0.7561462E-02  0.1269611E+00
          1   -1    0    0  501    0  0.00000000000E+00  0.00000000000E+00  0.42348726961E+02  0.42348726961E+02  0.00000000000E+00 0. -1.
         -1   -1    0    0    0  501 -0.00000000000E+00 -0.00000000000E+00 -0.10658532867E+04  0.10658532867E+04  0.00000000000E+00 0.  1.
         25    2    1    2    0    0  0.28557041225E+02  0.81612735647E+02 -0.94832611313E+03  0.96044136526E+03  0.12509618709E+03 0.  0.
          5    1    3    3  502    0  0.50656594043E+02  0.86561166301E+02 -0.42831667462E+03  0.43992223425E+03  0.41800000000E+01 0. -1.
         -5    1    3    3    0  502 -0.22099552818E+02 -0.49484306535E+01 -0.52000943852E+03  0.52051913101E+03  0.41800000000E+01 0. -1.
        -11    1    1    2    0    0 -0.49060037302E+01 -0.29136753218E+02  0.20598594202E+02  0.36018347322E+02  0.00000000000E+00 0. -1.
         11    1    1    2    0    0 -0.23651037495E+02 -0.52475982429E+02 -0.95777040844E+02  0.11174230112E+03  0.00000000000E+00 0.  1.
</event>
<event>
 7    1  0.2688177E-009  0.1272247E+03  0.7561462E-02  0.1231633E+00
         -3   -1    0    0    0  501 -0.00000000000E+00  0.00000000000E+00  0.88040966042E+03  0.88040966042E+03  0.00000000000E+00 0.  1.
          3   -1    0    0  501    0  0.00000000000E+00 -0.00000000000E+00 -0.28175220429E+02  0.28175220429E+02  0.00000000000E+00 0. -1.
         25    2    1    2    0    0 -0.10669417563E+03  0.39352860306E+02  0.43017228159E+03  0.46220023797E+03  0.12509425808E+03 0.  0.
          5    1    3    3  502    0 -0.45927312462E+02  0.14841925829E+00  0.35434846580E+03  0.35733688261E+03  0.41800000000E+01 0. -1.
         -5    1    3    3    0  502 -0.60766863165E+02  0.39204441048E+02  0.75823815797E+02  0.10486335537E+03  0.41800000000E+01 0. -1.
        -11    1    1    2    0    0  0.40456571366E+02 -0.54571264739E+02  0.13185600924E+03  0.14832654609E+03  0.00000000000E+00 0. -1.
         11    1    1    2    0    0  0.66237604261E+02  0.15218404432E+02  0.29020614915E+03  0.29805809678E+03  0.00000000000E+00 0.  1.
</event>
<event>
 7    1  0.2688177E-009  0.8876899E+02  0.7561462E-02  0.1305860E+00
         -2   -1    0    0    0  501 -0.00000000000E+00  0.00000000000E+00  0.60378302271E+02  0.60378302271E+02  0.00000000000E+00 0.  1.
          2   -1    0    0  501    0  0.00000000000E+00 -0.00000000000E+00 -0.26611178049E+03  0.26611178049E+03  0.00000000000E+00 0. -1.
         25    2    1    2    0    0 -0.27585187952E+02  0.49062390018E+02 -0.74527605169E+02  0.15610929336E+03  0.12509071442E+03 0.  0.
          5    1    3    3  502    0  0.58074285282E+01  0.63688217702E+02  0.91509019221E+01  0.64738911839E+02  0.41800000000E+01 0. -1.
         -5    1    3    3    0  502 -0.33392616480E+02 -0.14625827684E+02 -0.83678507091E+02  0.91370381524E+02  0.41800000000E+01 0. -1.
        -11    1    1    2    0    0  0.10698122632E+02 -0.57071086920E+02 -0.13860768756E+03  0.15027857412E+03  0.00000000000E+00 0. -1.
         11    1    1    2    0    0  0.16887065319E+02  0.80086969018E+01  0.74018145049E+01  0.20102215279E+02  0.00000000000E+00 0.  1.
</event>
<event>
 7    1  0.2688177E-009  0.1165389E+03  0.7561462E-02  0.1248919E+00
          1   -1    0    0  501    0  0.00000000000E+00  0.00000000000E+00  0.87729152305E+02  0.87729152305E+02  0.00000000000E+00 0. -1.
         -1   -1    0    0    0  501 -0.00000000000E+00 -0.00000000000E+00 -0.19565731318E+03  0.19565731318E+03  0.00000000000E+00 0.  1.
         25    2    1    2    0    0  0.19740887508E+02 -0.62996891854E+02 -0.93990021475E+02  0.16981997874E+03  0.12508553082E+03 0.  0.
          5    1    3    3  502    0 -0.69233993450E+01 -0.97183772644E+02 -0.59271800787E+02  0.11411940191E+03  0.41800000000E+01 0.  1.
         -5    1    3    3    0  502  0.26664286853E+02  0.34186880791E+02 -0.34718220688E+02  0.55700576831E+02  0.41800000000E+01 0.  1.
        -11    1    1    2    0    0 -0.35345453997E+02  0.99681571652E+01 -0.38386421866E+02  0.53124219140E+02  0.00000000000E+00 0.  1.
         11    1    1    2    0    0  0.15604566489E+02  0.53028734688E+02  0.24448282464E+02  0.60442267606E+02  0.00000000000E+00 0. -1.
</event>
<event>
 7    1  0.3077660E-009  0.7715933E+02  0.7561462E-02  0.1337312E+00
          1   -1    0    0  501    0  0.00000000000E+00  0.00000000000E+00  0.11600738223E+03  0.11600738223E+03  0.00000000000E+00 0. -1.
         -1   -1    0    0    0  501 -0.00000000000E+00 -0.00000000000E+00 -0.12632031773E+03  0.12632031773E+03  0.00000000000E+00 0.  1.
         25    2    1    2    0    0 -0.87567113059E+01  0.25081859579E+02  0.40535919374E+02  0.13415287191E+03  0.12509217645E+03 0.  0.
          5    1    3    3  502    0 -0.46970461969E+02 -0.19374369965E+02 -0.15155362861E+02  0.53185974961E+02  0.41800000000E+01 0. -1.
         -5    1    3    3    0  502  0.38213750663E+02  0.44456229544E+02  0.55691282235E+02  0.80966896952E+02  0.41800000000E+01 0. -1.
        -11    1    1    2    0    0  0.32831466576E+01 -0.33969600994E+02 -0.74707082412E+02  0.82133190649E+02  0.00000000000E+00 0.  1.
         11    1    1    2    0    0  0.54735646483E+01  0.88877414150E+01  0.23858227531E+02  0.26041637398E+02  0.00000000000E+00 0. -1.
</event>
<event>
 7    1  0.2688177E-009  0.7242367E+02  0.7561462E-02  0.1352040E+00
         -2   -1    0    0    0  501 -0.00000000000E+00  0.00000000000E+00  0.13312364471E+03  0.13312364471E+03  0.00000000000E+00 0.  1.
          2   -1    0    0  501    0  0.00000000000E+00 -0.00000000000E+00 -0.10700831595E+03  0.10700831595E+03  0.00000000000E+00 0. -1.
         25    2    1    2    0    0  0.26923847698E+02 -0.33048456446E+02 -0.10016767090E+02  0.13253100827E+03  0.12508812287E+03 0.  0.
          5    1    3    3  502    0 -0.28719495538E+01 -0.42000282908E+02 -0.60055923865E+02  0.73460589773E+02  0.41800000000E+01 0. -1.
         -5    1    3    3    0  502  0.29795797252E+02  0.89518264629E+01  0.50039156774E+02  0.59070418498E+02  0.41800000000E+01 0. -1.
        -11    1    1    2    0    0 -0.42018940192E+02  0.36509105131E+02 -0.12082290452E+02  0.56960405852E+02  0.00000000000E+00 0. -1.
         11    1    1    2    0    0  0.15095092494E+02 -0.34606486852E+01  0.48214386302E+02  0.50640546533E+02  0.00000000000E+00 0.  1.
</event>
<event>
 7    1  0.2688177E-009  0.1483168E+03  0.7561462E-02  0.1202557E+00
         -2   -1    0    0    0  501 -0.00000000000E+00  0.00000000000E+00  0.18363335490E+03  0.18363335490E+03  0.00000000000E+00 0.  1.
          2   -1    0    0  501    0  0.00000000000E+00 -0.00000000000E+00 -0.18828867253E+03  0.18828867253E+03  0.00000000000E+00 0. -1.
         25    2    1    2    0    0  0.10191269254E+03 -0.61988848374E+02  0.89831219176E+02  0.19479232665E+03  0.12508232633E+03 0.  0.
          5    1    3    3  502    0 -0.16494194319E+02  0.14736601297E+01  0.52630659990E+02  0.55332530138E+02  0.41800000000E+01 0. -1.
         -5    1    3    3    0  502  0.11840688685E+03 -0.63462508504E+02  0.37200559186E+02  0.13945979651E+03  0.41800000000E+01 0. -1.
        -11    1    1    2    0    0 -0.26717370842E+02 -0.20390783665E+02 -0.42188460749E+02  0.53939486311E+02  0.00000000000E+00 0. -1.
         11    1    1    2    0    0 -0.75195321693E+02  0.82379632039E+02 -0.52298076060E+02  0.12319021446E+03  0.00000000000E+00 0.  1.
</event>
<event>
 7    1  0.2688177E-009  0.8870282E+02  0.7561462E-02  0.1306024E+00
         -2   -1    0    0    0  501 -0.00000000000E+00  0.00000000000E+00  0.17157476541E+02  0.17157476541E+02  0.00000000000E+00 0.  1.
          2   -1    0    0  501    0  0.00000000000E+00 -0.00000000000E+00 -0.94605787679E+03  0.94605787679E+03  0.00000000000E+00 0. -1.
         25    2    1    2    0    0 -0.74011684665E+01  0.63635480160E+02 -0.46384896931E+03  0.48467250264E+03  0.12508923558E+03 0.  0.
          5    1    3    3  502    0 -0.26135526185E+01  0.18036825487E+02 -0.42212648652E+03  0.42254041316E+03  0.41800000000E+01 0. -1.
         -5    1    3    3    0  502 -0.47876158480E+01  0.45598654673E+02 -0.41722482793E+02  0.62132089487E+02  0.41800000000E+01 0. -1.
        -11    1    1    2    0    0  0.46879969605E+02 -0.54976422590E+02 -0.31030988553E+03  0.31861004951E+03  0.00000000000E+00 0.  1.
         11    1    1    2    0    0 -0.39478801138E+02 -0.86590575697E+01 -0.15474154541E+03  0.15993280118E+03  0.00000000000E+00 0. -1.
</event>
<event>
 7    1  0.2688177E-009  0.1267172E+03  0.7561462E-02  0.1232410E+00
          2   -1    0    0  501    0  0.00000000000E+00  0.00000000000E+00  0.10388178094E+03  0.10388178094E+03  0.00000000000E+00 0. -1.
         -2   -1    0    0    0  501 -0.00000000000E+00 -0.00000000000E+00 -0.22219634696E+03  0.22219634696E+03  0.00000000000E+00 0.  1.
         25    2    1    2    0    0 -0.72577465209E+02 -0.71954162621E+02 -0.34944364427E+02  0.16526902684E+03  0.12509137722E+03 0.  0.
          5    1    3    3  502    0 -0.79470596855E+01 -0.65982723688E+02  0.30285296637E+02  0.73154269700E+02  0.41800000000E+01 0.  1.
         -5    1    3    3    0  502 -0.64630405524E+02 -0.59714389333E+01 -0.65229661064E+02  0.92114757144E+02  0.41800000000E+01 0.  1.
        -11    1    1    2    0    0  0.67951881948E+02  0.21694045543E+02 -0.84170487926E+02  0.11033023570E+03  0.00000000000E+00 0.  1.
         11    1    1    2    0    0  0.46255832614E+01  0.50260117078E+02  0.80028633869E+00  0.50478865354E+02  0.00000000000E+00 0. -1.
</event>
<event>
 7    1  0.2688177E-009  0.9328233E+02  0.7561462E-02  0.1295092E+00
          1   -1    0    0  501    0  0.00000000000E+00  0.00000000000E+00  0.28531608659E+02  0.28531608659E+02  0.00000000000E+00 0. -1.
         -1   -1    0    0    0  501 -0.00000000000E+00 -0.00000000000E+00 -0.66403116775E+03  0.66403116775E+03  0.00000000000E+00 0.  1.
         25    2    1    2    0    0 -0.28876140943E+02 -0.58400159287E+02 -0.47893939646E+03  0.49927516925E+03  0.12509332128E+03 0.  0.
          5    1    3    3  502    0 -0.12770592878E+02  0.33766342357E+01  0.20882251714E+01  0.14011523314E+02  0.41800000000E+01 0.  1.
         -5    1    3    3    0  502 -0.16105548065E+02 -0.61776793523E+02 -0.48102762163E+03  0.48526364594E+03  0.41800000000E+01 0.  1.
        -11    1    1    2    0    0  0.48343783557E+02  0.12539175761E+01 -0.97486323606E+02  0.10882222663E+03  0.00000000000E+00 0.  1.
         11    1    1    2    0    0 -0.19467642614E+02  0.57146241711E+02 -0.59073839020E+02  0.84465380525E+02  0.00000000000E+00 0. -1.
</event>
<event>
 7    1  0.2688177E-009  0.1253933E+03  0.7561462E-02  0.1234456E+00
         -3   -1    0    0    0  501 -0.00000000000E+00  0.00000000000E+00  0.62841632128E+03  0.62841632128E+03  0.00000000000E+00 0.  1.
          3   -1    0    0  501    0  0.00000000000E+00 -0.00000000000E+00 -0.34189236341E+02  0.34189236341E+02  0.00000000000E+00 0. -1.
         25    2    1    2    0    0 -0.85671494657E+02 -0.47224654132E+02  0.33867865800E+03  0.37406072689E+03  0.12509364916E+03 0.  0.
          5    1    3    3  502    0 -0.51814215922E+02  0.34987987794E+02  0.87850443342E+02  0.10790757646E+03  0.41800000000E+01 0. -1.
         -5    1    3    3    0  502 -0.33857278735E+02 -0.82212641926E+02  0.25082821466E+03  0.26615315043E+03  0.41800000000E+01 0. -1.
        -11    1    1    2    0    0  0.71393575449E+02  0.31977454698E+02  0.25596484996E+03  0.26765202155E+03  0.00000000000E+00 0.  1.
         11    1    1    2    0    0  0.14277919208E+02  0.15247199434E+02 -0.41642301988E+00  0.20892809185E+02  0.00000000000E+00 0. -1.
</event>
<event>
 7    1  0.2688177E-009  0.1228170E+03  0.7561462E-02  0.1238521E+00
         -2   -1    0    0    0  501 -0.00000000000E+00  0.00000000000E+00  0.54047019194E+02  0.54047019194E+02  0.00000000000E+00 0.  1.
          2   -1    0    0  501    0  0.00000000000E+00 -0.00000000000E+00 -0.70434786226E+03  0.70434786226E+03  0.00000000000E+00 0. -1.
         25    2    1    2    0    0  0.10384871958E+03 -0.22815141595E+02 -0.58254570728E+03  0.60523695485E+03  0.12508870134E+03 0.  0.
          5    1    3    3  502    0  0.99206084312E+02 -0.47352831656E+02 -0.26835491116E+03  0.29002753071E+03  0.41800000000E+01 0. -1.
         -5    1    3    3    0  502  0.46426352629E+01  0.24537690061E+02 -0.31419079613E+03  0.31520942414E+03  0.41800000000E+01 0. -1.
        -11    1    1    2    0    0 -0.45257420424E+02  0.24943830202E+02 -0.78074033895E+02  0.93626831289E+02  0.00000000000E+00 0. -1.
         11    1    1    2    0    0 -0.58591299151E+02 -0.21286886069E+01  0.10318898107E+02  0.59531095316E+02  0.00000000000E+00 0.  1.
</event>
<event>
 7    1  0.2688177E-009  0.1309013E+03  0.7561462E-02  0.1226125E+00
         -2   -1    0    0    0  501 -0.00000000000E+00  0.00000000000E+00  0.35516296790E+02  0.35516296790E+02  0.00000000000E+00 0.  1.
          2   -1    0    0  501    0  0.00000000000E+00 -0.00000000000E+00 -0.72594000568E+03  0.72594000568E+03  0.00000000000E+00 0. -1.
         25    2    1    2    0    0  0.18549496063E+02  0.76853113288E+02 -0.58097894208E+03  0.59952619719E+03  0.12507855591E+03 0.  0.
          5    1    3    3  502    0  0.40891496729E+02 -0.21784711356E+02 -0.19867556705E+03  0.20404936044E+03  0.41800000000E+01 0. -1.
         -5    1    3    3    0  502 -0.22342000666E+02  0.98637824645E+02 -0.38230337503E+03  0.39547683675E+03  0.41800000000E+01 0. -1.
        -11    1    1    2    0    0 -0.47735660561E+02 -0.23412449632E+02 -0.75116657082E+02  0.92029062030E+02  0.00000000000E+00 0. -1.
         11    1    1    2    0    0  0.29186164498E+02 -0.53440663657E+02 -0.34328109726E+02  0.69901043251E+02  0.00000000000E+00 0.  1.
</event>
<event>
 7    1  0.2688177E-009  0.2485011E+03  0.7561462E-02  0.1114256E+00
         -2   -1    0    0    0  501 -0.00000000000E+00  0.00000000000E+00  0.16092549158E+03  0.16092549158E+03  0.00000000000E+00 0.  1.
          2   -1    0    0  501    0  0.00000000000E+00 -0.00000000000E+00 -0.41511893547E+03  0.41511893547E+03  0.00000000000E+00 0. -1.
         25    2    1    2    0    0 -0.25148932186E+02 -0.23031922019E+03 -0.83221105584E+02  0.27613742363E+03  0.12508681919E+03 0.  0.
          5    1    3    3  502    0  0.26181588959E+02 -0.20351026125E+03 -0.63972629049E+02  0.21496946691E+03  0.41800000000E+01 0.  1.
         -5    1    3    3    0  502 -0.51330521145E+02 -0.26808958939E+02 -0.19248476535E+02  0.61167956720E+02  0.41800000000E+01 0.  1.
        -11    1    1    2    0    0 -0.72525604150E+01  0.45263632587E+02  0.65930815760E-01  0.45841034177E+02  0.00000000000E+00 0. -1.
         11    1    1    2    0    0  0.32401492601E+02  0.18505558760E+03 -0.17103826912E+03  0.25406596925E+03  0.00000000000E+00 0.  1.
</event>
<event>
 7    1  0.2688177E-009  0.1289245E+03  0.7561462E-02  0.1229060E+00
          1   -1    0    0  501    0  0.00000000000E+00  0.00000000000E+00  0.14777095914E+03  0.14777095914E+03  0.00000000000E+00 0. -1.
         -1   -1    0    0    0  501 -0.00000000000E+00 -0.00000000000E+00 -0.15870995566E+03  0.15870995566E+03  0.00000000000E+00 0.  1.
         25    2    1    2    0    0 -0.59042664802E+02 -0.85056336860E+02  0.34671218622E+02  0.16604062691E+03  0.12508708837E+03 0.  0.
          5    1    3    3  502    0  0.26077706337E+02 -0.45717032164E+01 -0.23075202481E+02  0.35367847088E+02  0.41800000000E+01 0. -1.
         -5    1    3    3    0  502 -0.85120371140E+02 -0.80484633644E+02  0.57746421103E+02  0.13067277982E+03  0.41800000000E+01 0. -1.
        -11    1    1    2    0    0 -0.82852217542E+01  0.10304464168E+02 -0.37207900209E+02  0.39487399500E+02  0.00000000000E+00 0.  1.
         11    1    1    2    0    0  0.67327886557E+02  0.74751872692E+02 -0.84023149377E+01  0.10095288840E+03  0.00000000000E+00 0. -1.
</event>
<event>
 7    1  0.2688177E-009  0.1319879E+03  0.7561462E-02  0.1224535E+00
         -2   -1    0    0    0  501 -0.00000000000E+00  0.00000000000E+00  0.37589492568E+02  0.37589492568E+02  0.00000000000E+00 0.  1.
          2   -1    0    0  501    0  0.00000000000E+00 -0.00000000000E+00 -0.57952231269E+03  0.57952231269E+03  0.00000000000E+00 0. -1.
         25    2    1    2    0    0  0.53836743946E+02 -0.83233723831E+02 -0.32341115639E+03  0.36065242411E+03  0.12509655133E+03 0.  0.
          5    1    3    3  502    0  0.75855500089E+02 -0.55229363342E+02 -0.30729721836E+03  0.32133065880E+03  0.41800000000E+01 0.  1.
         -5    1    3    3    0  502 -0.22018756143E+02 -0.28004360489E+02 -0.16113938031E+02  0.39321765313E+02  0.41800000000E+01 0.  1.
        -11    1    1    2    0    0 -0.70415019717E+02  0.91661140756E+02 -0.19069705588E+03  0.22299194346E+03  0.00000000000E+00 0.  1.
         11    1    1    2    0    0  0.16578275771E+02 -0.84274169257E+01 -0.27824607845E+02  0.33467437686E+02  0.00000000000E+00 0. -1.
</event>
<event>
 7    1  0.2688177E-009  0.7406020E+02  0.7561462E-02  0.1346806E+00
          1   -1    0    0  501    0  0.00000000000E+00  0.00000000000E+00  0.30339659531E+03  0.30339659531E+03  0.00000000000E+00 0. -1.
         -1   -1    0    0    0  501 -0.00000000000E+00 -0.00000000000E+00 -0.51369583714E+02  0.51369583714E+02  0.00000000000E+00 0.  1.
         25    2    1    2    0    0  0.27027716727E+02 -0.54611349692E+02  0.14502520764E+03  0.20097980962E+03  0.12509067126E+03 0.  0.
          5    1    3    3  502    0 -0.10879139996E+02 -0.21513719296E+02 -0.17959801935E+02  0.30351650541E+02  0.41800000000E+01 0.  1.
         -5    1    3    3    0  502  0.37906856723E+02 -0.33097630397E+02  0.16298500958E+03  0.17062815908E+03  0.41800000000E+01 0.  1.
        -11    1    1    2    0    0 -0.36453561156E+02  0.31429995236E+02  0.11724991357E+03  0.12674481825E+03  0.00000000000E+00 0. -1.
         11    1    1    2    0    0  0.94258444296E+01  0.23181354456E+02 -0.10248109619E+02  0.27041551146E+02  0.00000000000E+00 0.  1.
</event>
<event>
 7    1  0.2688177E-009  0.9169938E+02  0.7561462E-02  0.1298788E+00
         -2   -1    0    0    0  501 -0.00000000000E+00  0.00000000000E+00  0.18867295467E+03  0.18867295467E+03  0.00000000000E+00 0.  1.
          2   -1    0    0  501    0  0.00000000000E+00 -0.00000000000E+00 -0.77014040278E+02  0.77014040278E+02  0.00000000000E+00 0. -1.
         25    2    1    2    0    0  0.43319148045E+02  0.43015783740E+01  0.93331318282E+02  0.16202285244E+03  0.12508244312E+03 0.  0.
          5    1    3    3  502    0  0.45272149735E+02  0.30521496647E+02  0.11521127159E+03  0.12756268577E+03  0.41800000000E+01 0.  1.
         -5    1    3    3    0  502 -0.19530016898E+01 -0.26219918273E+02 -0.21879953311E+02  0.34460166668E+02  0.41800000000E+01 0.  1.
        -11    1    1    2    0    0  0.28732643216E+02  0.56434639828E+01  0.44676448588E+01  0.29620488221E+02  0.00000000000E+00 0. -1.
         11    1    1    2    0    0 -0.72051791261E+02 -0.99450423569E+01  0.13859951251E+02  0.74043654286E+02  0.00000000000E+00 0.  1.
</event>
<event>
 7    1  0.2688177E-009  0.1020543E+03  0.7561462E-02  0.1276034E+00
          2   -1    0    0  501    0  0.00000000000E+00  0.00000000000E+00  0.10796419100E+04  0.10796419100E+04  0.00000000000E+00 0. -1.
         -2   -1    0    0    0  501 -0.00000000000E+00 -0.00000000000E+00 -0.11195895348E+02  0.11195895348E+02  0.00000000000E+00 0.  1.
         25    2    1    2    0    0 -0.14244016417E+02 -0.13359689758E+02  0.63605040819E+03  0.64852785775E+03  0.12508751817E+03 0.  0.
          5    1    3    3  502    0  0.48027739248E+02  0.47647880420E+01  0.13802083908E+03  0.14627573744E+03  0.41800000000E+01 0. -1.
         -5    1    3    3    0  502 -0.62271755664E+02 -0.18124477800E+02  0.49802956912E+03  0.50225212032E+03  0.41800000000E+01 0. -1.
        -11    1    1    2    0    0  0.49004351381E+02 -0.83222032993E+01  0.18577550512E+03  0.19231022808E+03  0.00000000000E+00 0.  1.
         11    1    1    2    0    0 -0.34760334965E+02  0.21681893057E+02  0.24662010137E+03  0.24999971955E+03  0.00000000000E+00 0. -1.
</event>
<event>
 7    1  0.2688177E-009  0.5761321E+02  0.7561462E-02  0.1408130E+00
         -2   -1    0    0    0  501 -0.00000000000E+00  0.00000000000E+00  0.37416396861E+02  0.37416396861E+02  0.00000000000E+00 0.  1.
          2   -1    0    0  501    0  0.00000000000E+00 -0.00000000000E+00 -0.34229721005E+03  0.34229721005E+03  0.00000000000E+00 0. -1.
         25    2    1    2    0    0  0.42942258973E+01 -0.16941718474E+02 -0.12681243188E+03  0.17898066823E+03  0.12508886649E+03 0.  0.
          5    1    3    3  502    0 -0.55691319300E+01 -0.21239629143E+02 -0.15075395217E+03  0.15240198020E+03  0.41800000000E+01 0.  1.
         -5    1    3    3    0  502  0.98633578274E+01  0.42979106684E+01  0.23941520283E+02  0.26578688027E+02  0.41800000000E+01 0.  1.
        -11    1    1    2    0    0 -0.23678648261E+02  0.42860440407E+02 -0.15034139316E+03  0.15811461107E+03  0.00000000000E+00 0.  1.
         11    1    1    2    0    0  0.19384422364E+02 -0.25918721933E+02 -0.27726988152E+02  0.42618327618E+02  0.00000000000E+00 0. -1.
</event>
<event>
 7    1  0.2688177E-009  0.2330260E+03  0.7561462E-02  0.1124528E+00
          2   -1    0    0  501    0  0.00000000000E+00  0.00000000000E+00  0.24397753948E+04  0.24397753948E+04  0.00000000000E+00 0. -1.
         -2   -1    0    0    0  501 -0.00000000000E+00 -0.00000000000E+00 -0.31398262897E+02  0.31398262897E+02  0.00000000000E+00 0.  1.
         25    2    1    2    0    0  0.13145522209E+03 -0.18147992322E+03  0.17727803781E+04  0.17912602423E+04  0.12509016213E+03 0.  0.
          5    1    3    3  502    0  0.82652885350E+02 -0.43553082112E+02  0.40431274869E+03  0.41498751978E+03  0.41800000000E+01 0.  1.
         -5    1    3    3    0  502  0.48802336744E+02 -0.13792684110E+03  0.13684676294E+04  0.13762727225E+04  0.41800000000E+01 0.  1.
        -11    1    1    2    0    0 -0.18514050431E+02  0.47224505078E+02  0.62110706292E+02  0.80191419612E+02  0.00000000000E+00 0.  1.
         11    1    1    2    0    0 -0.11294117166E+03  0.13425541814E+03  0.57348604745E+03  0.59972199574E+03  0.00000000000E+00 0. -1.
</event>
<event>
 7    1  0.2688177E-009  0.1669821E+03  0.7561462E-02  0.1181032E+00
          1   -1    0    0  501    0  0.00000000000E+00  0.00000000000E+00  0.68973140235E+02  0.68973140235E+02  0.00000000000E+00 0. -1.
         -1   -1    0    0    0  501 -0.00000000000E+00 -0.00000000000E+00 -0.52779723328E+03  0.52779723328E+03  0.00000000000E+00 0.  1.
         25    2    1    2    0    0  0.29914821873E+02  0.15202492907E+03 -0.20721663769E+03  0.28739138097E+03  0.12509434557E+03 0.  0.
          5    1    3    3  502    0 -0.92106486057E+01  0.11986811929E+03 -0.65783994295E+02  0.13710655847E+03  0.41800000000E+01 0. -1.
         -5    1    3    3    0  502  0.39125470479E+02  0.32156809772E+02 -0.14143264339E+03  0.15028482249E+03  0.41800000000E+01 0. -1.
        -11    1    1    2    0    0 -0.31454083381E+02 -0.40319493411E+02 -0.14959695601E+03  0.15809576262E+03  0.00000000000E+00 0.  1.
         11    1    1    2    0    0  0.15392615077E+01 -0.11170543565E+03 -0.10201049934E+03  0.15128322993E+03  0.00000000000E+00 0. -1.
</event>
<event>
 7    1  0.2688177E-009  0.1125647E+03  0.7561462E-02  0.1255893E+00
         -2   -1    0    0    0  501 -0.00000000000E+00  0.00000000000E+00  0.18132646848E+03  0.18132646848E+03  0.00000000000E+00 0.  1.
          2   -1    0    0  501    0  0.00000000000E+00 -0.00000000000E+00 -0.14043482157E+03  0.14043482157E+03  0.00000000000E+00 0. -1.
         25    2    1    2    0    0  0.49474738292E+02 -0.79238560440E+02  0.93547979405E+02  0.18200507973E+03  0.12509246742E+03 0.  0.
          5    1    3    3  502    0  0.56001042518E+02 -0.64320477434E+02 -0.15827799536E+01  0.85400340589E+02  0.41800000000E+01 0.  1.
         -5    1    3    3    0  502 -0.65263042260E+01 -0.14918083006E+02  0.95130759359E+02  0.96604739136E+02  0.41800000000E+01 0.  1.
        -11    1    1    2    0    0  0.22035842223E+02  0.23919138123E+02  0.44434781910E+01  0.32824503187E+02  0.00000000000E+00 0.  1.
         11    1    1    2    0    0 -0.71510580515E+02  0.55319422317E+02 -0.57099810687E+02  0.10693170714E+03  0.00000000000E+00 0. -1.
</event>
<event>
 7    1  0.2688177E-009  0.9294582E+02  0.7561462E-02  0.1295871E+00
         -4   -1    0    0    0  501 -0.00000000000E+00  0.00000000000E+00  0.83548670303E+02  0.83548670303E+02  0.00000000000E+00 0.  1.
          4   -1    0    0  501    0  0.00000000000E+00 -0.00000000000E+00 -0.12056825358E+03  0.12056825358E+03  0.00000000000E+00 0. -1.
         25    2    1    2    0    0 -0.24064504948E+02  0.50078198802E+01 -0.21561119726E+02  0.12929944358E+03  0.12509710455E+03 0.  0.
          5    1    3    3  502    0 -0.66812222796E+00  0.63655470302E+02 -0.16021068705E+02  0.65776989359E+02  0.41800000000E+01 0. -1.
         -5    1    3    3    0  502 -0.23396382720E+02 -0.58647650422E+02 -0.55400510217E+01  0.63522454217E+02  0.41800000000E+01 0. -1.
        -11    1    1    2    0    0 -0.15252481799E+02 -0.11320635284E+02 -0.27314178270E+02  0.33269495320E+02  0.00000000000E+00 0. -1.
         11    1    1    2    0    0  0.39316986747E+02  0.63128154041E+01  0.11855714716E+02  0.41547984989E+02  0.00000000000E+00 0.  1.
</event>
<event>
 7    1  0.2688177E-009  0.1131366E+03  0.7561462E-02  0.1254869E+00
         -1   -1    0    0    0  501 -0.00000000000E+00  0.00000000000E+00  0.23449268362E+03  0.23449268362E+03  0.00000000000E+00 0.  1.
          1   -1    0    0  501    0  0.00000000000E+00 -0.00000000000E+00 -0.10308968376E+03  0.10308968376E+03  0.00000000000E+00 0. -1.
         25    2    1    2    0    0  0.48461763811E+02 -0.38567007633E+02 -0.30016185262E+02  0.14278371314E+03  0.12510100212E+03 0.  0.
          5    1    3    3  502    0  0.78426697175E+02 -0.42032265417E+02  0.13059647348E+02  0.90030466814E+02  0.41800000000E+01 0.  1.
         -5    1    3    3    0  502 -0.29964933363E+02  0.34652577850E+01 -0.43075832610E+02  0.52753246327E+02  0.41800000000E+01 0.  1.
        -11    1    1    2    0    0  0.25500938579E+02  0.81821382879E+01  0.24803653544E+02  0.36502965421E+02  0.00000000000E+00 0. -1.
         11    1    1    2    0    0 -0.73962702391E+02  0.30384869345E+02  0.13661553157E+03  0.15829568881E+03  0.00000000000E+00 0.  1.
</event>
<event>
 7    1  0.2688177E-009  0.1385293E+03  0.7561462E-02  0.1215322E+00
          1   -1    0    0  501    0  0.00000000000E+00  0.00000000000E+00  0.85211400829E+03  0.85211400829E+03  0.00000000000E+00 0. -1.
         -1   -1    0    0    0  501 -0.00000000000E+00 -0.00000000000E+00 -0.54042698298E+02  0.54042698298E+02  0.00000000000E+00 0.  1.
         25    2    1    2    0    0 -0.74662598672E+02 -0.79175914237E+02  0.72553811931E+03  0.74424557814E+03  0.12511030723E+03 0.  0.
          5    1    3    3  502    0  0.31989569490E+02 -0.70566131370E+01  0.22437897020E+03  0.22679621472E+03  0.41800000000E+01 0. -1.
         -5    1    3    3    0  502 -0.10665216816E+03 -0.72119301100E+02  0.50115914911E+03  0.51744936342E+03  0.41800000000E+01 0. -1.
        -11    1    1    2    0    0  0.50602419218E+02  0.75486139913E+02  0.60121079113E+01  0.91076383280E+02  0.00000000000E+00 0.  1.
         11    1    1    2    0    0  0.24060179454E+02  0.36897743239E+01  0.66521082778E+02  0.70834745174E+02  0.00000000000E+00 0. -1.
</event>
<event>
 7    1  0.2688177E-009  0.1388991E+03  0.7561462E-02  0.1214818E+00
         -2   -1    0    0    0  501 -0.00000000000E+00  0.00000000000E+00  0.95718827971E+02  0.95718827971E+02  0.00000000000E+00 0.  1.
          2   -1    0    0  501    0  0.00000000000E+00 -0.00000000000E+00 -0.30522946695E+03  0.30522946695E+03  0.00000000000E+00 0. -1.
         25    2    1    2    0    0  0.10074252107E+03  0.83530105774E+02 -0.13422663348E+03  0.22534763504E+03  0.12505372189E+03 0.  0.
          5    1    3    3  502    0  0.68606799671E+02  0.88648242920E+02 -0.15131260664E+03  0.18835705790E+03  0.41800000000E+01 0. -1.
         -5    1    3    3    0  502  0.32135721401E+02 -0.51181371464E+01  0.17085973161E+02  0.36990577134E+02  0.41800000000E+01 0. -1.
        -11    1    1    2    0    0 -0.12380467844E+02 -0.19107245573E+01  0.19004117327E+02  0.22761443885E+02  0.00000000000E+00 0.  1.
         11    1    1    2    0    0 -0.88362053228E+02 -0.81619381216E+02 -0.94288122829E+02  0.15283921600E+03  0.00000000000E+00 0. -1.
</event>
<event>
 7    1  0.2688177E-009  0.7617973E+02  0.7561462E-02  0.1340256E+00
         -1   -1    0    0    0  501 -0.00000000000E+00  0.00000000000E+00  0.61323460146E+02  0.61323460146E+02  0.00000000000E+00 0.  1.
          1   -1    0    0  501    0  0.00000000000E+00 -0.00000000000E+00 -0.54830009568E+03  0.54830009568E+03  0.00000000000E+00 0. -1.
         25    2    1    2    0    0  0.39599630251E+02 -0.25263516007E+02 -0.49027986298E+03  0.50816074135E+03  0.12508644631E+03 0.  0.
          5    1    3    3  502    0  0.20813590199E+02 -0.56683057011E+02 -0.10557308489E+03  0.12169356245E+03  0.41800000000E+01 0. -1.
         -5    1    3    3    0  502  0.18786040052E+02  0.31419541004E+02 -0.38470677809E+03  0.38646717890E+03  0.41800000000E+01 0. -1.
        -11    1    1    2    0    0 -0.14097008116E+02 -0.54066273258E+01  0.42765824598E+02  0.45352761883E+02  0.00000000000E+00 0.  1.
         11    1    1    2    0    0 -0.25502622134E+02  0.30670143333E+02 -0.39462597148E+02  0.56110052588E+02  0.00000000000E+00 0. -1.
</event>
<event>
 7    1  0.2688177E-009  0.5392626E+02  0.7561462E-02  0.1425246E+00
          1   -1    0    0  501    0  0.00000000000E+00  0.00000000000E+00  0.92905289421E+02  0.92905289421E+02  0.00000000000E+00 0. -1.
         -1   -1    0    0    0  501 -0.00000000000E+00 -0.00000000000E+00 -0.13434999756E+03  0.13434999756E+03  0.00000000000E+00 0.  1.
         25    2    1    2    0    0 -0.10388752319E+01 -0.47640592867E+01 -0.41266231883E+02  0.13181216463E+03  0.12509104415E+03 0.  0.
          5    1    3    3  502    0  0.88125957801E+01 -0.36101777826E+02 -0.75456141723E+02  0.84214618270E+02  0.41800000000E+01 0.  1.
         -5    1    3    3    0  502 -0.98514710120E+01  0.31337718539E+02  0.34189909840E+02  0.47597546357E+02  0.41800000000E+01 0.  1.
        -11    1    1    2    0    0 -0.15896255022E+01 -0.16167679303E+02  0.43773256587E+02  0.46690670968E+02  0.00000000000E+00 0. -1.
         11    1    1    2    0    0  0.26285007342E+01  0.20931738589E+02 -0.43951732846E+02  0.48752451391E+02  0.00000000000E+00 0.  1.
</event>
<event>
 7    1  0.2688177E-009  0.8657833E+02  0.7561462E-02  0.1311356E+00
          1   -1    0    0  501    0  0.00000000000E+00  0.00000000000E+00  0.30326591870E+03  0.30326591870E+03  0.00000000000E+00 0. -1.
         -1   -1    0    0    0  501 -0.00000000000E+00 -0.00000000000E+00 -0.57551616663E+02  0.57551616663E+02  0.00000000000E+00 0.  1.
         25    2    1    2    0    0 -0.62931768394E+02 -0.36940780497E+02  0.11821313285E+03  0.18693940126E+03  0.12508783405E+03 0.  0.
          5    1    3    3  502    0 -0.23024605229E+02 -0.18961581530E+01 -0.24905440390E+02  0.34226907876E+02  0.41800000000E+01 0.  1.
         -5    1    3    3    0  502 -0.39907163165E+02 -0.35044622344E+02  0.14311857324E+03  0.15271249338E+03  0.41800000000E+01 0.  1.
        -11    1    1    2    0    0 -0.12022838885E+02  0.13027819370E+02 -0.61707893069E+01  0.18771024827E+02  0.00000000000E+00 0.  1.
         11    1    1    2    0    0  0.74954607279E+02  0.23912961127E+02  0.13367195849E+03  0.15510710928E+03  0.00000000000E+00 0. -1.
</event>
<event>
 7    1  0.3669159E-009  0.1549689E+03  0.7561462E-02  0.1194497E+00
          2   -1    0    0  501    0  0.00000000000E+00  0.00000000000E+00  0.40992545713E+03  0.40992545713E+03  0.00000000000E+00 0. -1.
         -2   -1    0    0    0  501 -0.00000000000E+00 -0.00000000000E+00 -0.78522290087E+02  0.78522290087E+02  0.00000000000E+00 0.  1.
         25    2    1    2    0    0  0.36306592673E+02 -0.12162783068E+03  0.87247385008E+02  0.19841954207E+03  0.12508681232E+03 0.  0.
          5    1    3    3  502    0  0.44864631724E+02  0.98068947232E+01  0.27862277987E+02  0.53877539833E+02  0.41800000000E+01 0.  1.
         -5    1    3    3    0  502 -0.85580390504E+01 -0.13143472540E+03  0.59385107021E+02  0.14454200223E+03  0.41800000000E+01 0.  1.
        -11    1    1    2    0    0 -0.11883093570E+02  0.95662015854E+02  0.90260377159E+02  0.13205818746E+03  0.00000000000E+00 0.  1.
         11    1    1    2    0    0 -0.24423499103E+02  0.25965814824E+02  0.15389540487E+03  0.15797001769E+03  0.00000000000E+00 0. -1.
</event>
<event>
 7    1  0.2688177E-009  0.1299993E+03  0.7561462E-02  0.1227457E+00
         -3   -1    0    0    0  501 -0.00000000000E+00  0.00000000000E+00  0.88238722956E+02  0.88238722956E+02  0.00000000000E+00 0.  1.
          3   -1    0    0  501    0  0.00000000000E+00 -0.00000000000E+00 -0.29414137654E+03  0.29414137654E+03  0.00000000000E+00 0. -1.
         25    2    1    2    0    0  0.10616241716E+03  0.32840116736E+02 -0.62489683335E+02  0.17860960181E+03  0.12508995663E+03 0.  0.
          5    1    3    3  502    0  0.39800852036E+02 -0.22156297620E+02  0.27951413465E+02  0.53607492589E+02  0.41800000000E+01 0.  1.
         -5    1    3    3    0  502  0.66361565129E+02  0.54996414357E+02 -0.90441096800E+02  0.12500210922E+03  0.41800000000E+01 0.  1.
        -11    1    1    2    0    0  0.50605592283E+01 -0.14349260338E+02  0.61997611105E+01  0.16430081247E+02  0.00000000000E+00 0.  1.
         11    1    1    2    0    0 -0.11122297639E+03 -0.18490856399E+02 -0.14961273136E+03  0.18734041645E+03  0.00000000000E+00 0. -1.
</event>
<event>
 7    1  0.2688177E-009  0.1484653E+03  0.7561462E-02  0.1202372E+00
         -3   -1    0    0    0  501 -0.00000000000E+00  0.00000000000E+00  0.54248474378E+03  0.54248474378E+03  0.00000000000E+00 0.  1.
          3   -1    0    0  501    0  0.00000000000E+00 -0.00000000000E+00 -0.47530383155E+02  0.47530383155E+02  0.00000000000E+00 0. -1.
         25    2    1    2    0    0  0.11525150437E+03 -0.22567625796E+02  0.29191501870E+03  0.33860551048E+03  0.12508839510E+03 0.  0.
          5    1    3    3  502    0  0.88380607425E+02 -0.58588377270E+02  0.26640295858E+03  0.28676076869E+03  0.41800000000E+01 0. -1.
         -5    1    3    3    0  502  0.26870896947E+02  0.36020751474E+02  0.25512060124E+02  0.51844741790E+02  0.41800000000E+01 0. -1.
        -11    1    1    2    0    0 -0.10174575628E+02  0.38122139779E+02  0.77464331646E+02  0.86934125681E+02  0.00000000000E+00 0.  1.
         11    1    1    2    0    0 -0.10507692874E+03 -0.15554513983E+02  0.12557501028E+03  0.16447549077E+03  0.00000000000E+00 0. -1.
</event>
<event>
 7    1  0.2688177E-009  0.1013582E+03  0.7561462E-02  0.1277466E+00
          1   -1    0    0  501    0  0.00000000000E+00  0.00000000000E+00  0.12176438260E+03  0.12176438260E+03  0.00000000000E+00 0. -1.
         -1   -1    0    0    0  501 -0.00000000000E+00 -0.00000000000E+00 -0.14084975621E+03  0.14084975621E+03  0.00000000000E+00 0.  1.
         25    2    1    2    0    0 -0.14176055243E+02 -0.45936637594E+02  0.20276559258E+02  0.13552991948E+03  0.12508431158E+03 0.  0.
          5    1    3    3  502    0  0.43062986985E+02 -0.10753685938E+02  0.45445018776E+02  0.63661485538E+02  0.41800000000E+01 0.  1.
         -5    1    3    3    0  502 -0.57239042228E+02 -0.35182951656E+02 -0.25168459518E+02  0.71868433940E+02  0.41800000000E+01 0.  1.
        -11    1    1    2    0    0  0.43473759834E+02  0.43369141677E+02 -0.64016523743E+02  0.88707189991E+02  0.00000000000E+00 0.  1.
         11    1    1    2    0    0 -0.29297704592E+02  0.25674959167E+01  0.24654590877E+02  0.38377029340E+02  0.00000000000E+00 0. -1.
</event>
<event>
 7    1  0.2688177E-009  0.1184622E+03  0.7561462E-02  0.1245656E+00
         -2   -1    0    0    0  501 -0.00000000000E+00  0.00000000000E+00  0.14691318435E+02  0.14691318435E+02  0.00000000000E+00 0.  1.
          2   -1    0    0  501    0  0.00000000000E+00 -0.00000000000E+00 -0.10128984595E+04  0.10128984595E+04  0.00000000000E+00 0. -1.
         25    2    1    2    0    0 -0.51274963681E+02  0.55804137580E+01 -0.47748952904E+03  0.49628122988E+03  0.12505417175E+03 0.  0.
          5    1    3    3  502    0 -0.23499275439E+02 -0.57563681561E+02 -0.16840806079E+03  0.17956764943E+03  0.41800000000E+01 0.  1.
         -5    1    3    3    0  502 -0.27775688242E+02  0.63144095319E+02 -0.30908146825E+03  0.31671358046E+03  0.41800000000E+01 0.  1.
        -11    1    1    2    0    0 -0.60924143094E+01 -0.38754371998E+02 -0.18530480498E+03  0.18941195741E+03  0.00000000000E+00 0.  1.
         11    1    1    2    0    0  0.57367377990E+02  0.33173958240E+02 -0.33541280700E+03  0.34189659060E+03  0.00000000000E+00 0. -1.
</event>
<event>
 7    1  0.2688177E-009  0.1702640E+03  0.7561462E-02  0.1177573E+00
         -1   -1    0    0    0  501 -0.00000000000E+00  0.00000000000E+00  0.28175896775E+02  0.28175896775E+02  0.00000000000E+00 0.  1.
          1   -1    0    0  501    0  0.00000000000E+00 -0.00000000000E+00 -0.11550902870E+04  0.11550902870E+04  0.00000000000E+00 0. -1.
         25    2    1    2    0    0  0.12048802392E+03  0.66488636970E+02 -0.45626094025E+03  0.49270595801E+03  0.12508801984E+03 0.  0.
          5    1    3    3  502    0 -0.58126252527E+01  0.53471717349E+02 -0.19296357963E+03  0.20036323673E+03  0.41800000000E+01 0.  1.
         -5    1    3    3    0  502  0.12630064917E+03  0.13016919620E+02 -0.26329736062E+03  0.29234272128E+03  0.41800000000E+01 0.  1.
        -11    1    1    2    0    0 -0.45580649710E+02 -0.71139428534E+02 -0.26904887879E+03  0.28200303739E+03  0.00000000000E+00 0.  1.
         11    1    1    2    0    0 -0.74907374208E+02  0.46507915640E+01 -0.40160457114E+03  0.40855718833E+03  0.00000000000E+00 0. -1.
</event>
<event>
 6    1  0.2688177E-009  0.1018348E+03  0.7561462E-02  0.1276484E+00
          2   -1    0    0  501    0  0.00000000000E+00  0.00000000000E+00  0.36527003603E+03  0.36527003603E+03  0.00000000000E+00 0. -1.
         -2   -1    0    0    0  501 -0.00000000000E+00 -0.00000000000E+00 -0.40958865988E+02  0.40958865988E+02  0.00000000000E+00 0.  1.
          5    1    1    2  502    0  0.52062613866E+02 -0.77946617112E+01  0.11134448297E+03  0.12323286413E+03  0.41800000000E+01 0. -1.
         -5    1    1    2    0  502 -0.63025401612E+02  0.46680697020E+02  0.14421622006E+03  0.16421656205E+03  0.41800000000E+01 0. -1.
        -11    1    1    2    0    0  0.27259177872E+02  0.29531604844E+01 -0.91162472369E+01  0.28894461386E+02  0.00000000000E+00 0.  1.
         11    1    1    2    0    0 -0.16296390125E+02 -0.41839195793E+02  0.77866714249E+02  0.89885014456E+02  0.00000000000E+00 0. -1.
</event>
<event>
 7    1  0.2688177E-009  0.1099604E+03  0.7561462E-02  0.1260643E+00
         -1   -1    0    0    0  501 -0.00000000000E+00  0.00000000000E+00  0.11177804749E+03  0.11177804749E+03  0.00000000000E+00 0. -1.
          1   -1    0    0  501    0  0.00000000000E+00 -0.00000000000E+00 -0.12554927261E+03  0.12554927261E+03  0.00000000000E+00 0.  1.
         25    2    1    2    0    0 -0.38977319502E+02 -0.35912379466E+02 -0.38871105523E+01  0.13591024719E+03  0.12509018838E+03 0.  0.
          5    1    3    3  502    0 -0.65720536065E+02  0.18255986460E+02 -0.23490094176E+02  0.72261516913E+02  0.41800000000E+01 0. -1.
         -5    1    3    3    0  502  0.26743216563E+02 -0.54168365925E+02  0.19602983624E+02  0.63648730279E+02  0.41800000000E+01 0. -1.
        -11    1    1    2    0    0  0.46282257646E+02 -0.76048382129E+01 -0.26963512972E+02  0.54100942402E+02  0.00000000000E+00 0.  1.
         11    1    1    2    0    0 -0.73049381436E+01  0.43517217679E+02  0.17079398406E+02  0.47316130502E+02  0.00000000000E+00 0. -1.
</event>
<event>
 7    1  0.2688177E-009  0.9007294E+02  0.7561462E-02  0.1302675E+00
         -2   -1    0    0    0  501 -0.00000000000E+00  0.00000000000E+00  0.16331378392E+02  0.16331378392E+02  0.00000000000E+00 0.  1.
          2   -1    0    0  501    0  0.00000000000E+00 -0.00000000000E+00 -0.72886083081E+03  0.72886083081E+03  0.00000000000E+00 0. -1.
         25    2    1    2    0    0  0.15059945742E+02 -0.26385461206E+02 -0.41564681353E+03  0.43512410796E+03  0.12509085179E+03 0.  0.
          5    1    3    3  502    0  0.46968330199E+02 -0.33471020861E+02 -0.38749004807E+03  0.39178098860E+03  0.41800000000E+01 0.  1.
         -5    1    3    3    0  502 -0.31908384456E+02  0.70855596546E+01 -0.28156765458E+02  0.43343119354E+02  0.41800000000E+01 0.  1.
        -11    1    1    2    0    0 -0.50095616792E+02  0.18897889555E+02 -0.17096623286E+03  0.17915399474E+03  0.00000000000E+00 0. -1.
         11    1    1    2    0    0  0.35035671050E+02  0.74875716516E+01 -0.12591640603E+03  0.13091410651E+03  0.00000000000E+00 0.  1.
</event>
<event>
 7    1  0.2688177E-009  0.1509490E+03  0.7561462E-02  0.1199312E+00
          2   -1    0    0  501    0  0.00000000000E+00  0.00000000000E+00  0.30573893653E+03  0.30573893653E+03  0.00000000000E+00 0. -1.
         -2   -1    0    0    0  501 -0.00000000000E+00 -0.00000000000E+00 -0.91265683669E+02  0.91265683669E+02  0.00000000000E+00 0.  1.
         25    2    1    2    0    0 -0.11702032419E+03 -0.43623711212E+02  0.85337749027E+02  0.19628277831E+03  0.12509042010E+03 0.  0.
          5    1    3    3  502    0 -0.11589279196E+02  0.36352619445E+02  0.42174024014E+02  0.57025827783E+02  0.41800000000E+01 0. -1.
         -5    1    3    3    0  502 -0.10543104499E+03 -0.79976330657E+02  0.43163725013E+02  0.13925695053E+03  0.41800000000E+01 0. -1.
        -11    1    1    2    0    0  0.64866954301E+02  0.44994440363E+02  0.22628701592E+02  0.82123562756E+02  0.00000000000E+00 0.  1.
         11    1    1    2    0    0  0.52153369888E+02 -0.13707291518E+01  0.10650680224E+03  0.11859827913E+03  0.00000000000E+00 0. -1.
</event>
<event>
 7    1  0.2688177E-009  0.1678548E+03  0.7561462E-02  0.1180104E+00
          2   -1    0    0  501    0  0.00000000000E+00  0.00000000000E+00  0.66022264981E+02  0.66022264981E+02  0.00000000000E+00 0. -1.
         -2   -1    0    0    0  501 -0.00000000000E+00 -0.00000000000E+00 -0.60328467355E+03  0.60328467355E+03  0.00000000000E+00 0.  1.
         25    2    1    2    0    0  0.11954345114E+03  0.86251314705E+02 -0.14811409783E+03  0.24354692473E+03  0.12508953821E+03 0.  0.
          5    1    3    3  502    0  0.70727388566E+02  0.10693103660E+03 -0.13978119639E+03  0.18971785721E+03  0.41800000000E+01 0. -1.
         -5    1    3    3    0  502  0.48816062575E+02 -0.20679721897E+02 -0.83329014391E+01  0.53829067515E+02  0.41800000000E+01 0. -1.
        -11    1    1    2    0    0 -0.10502748231E+03 -0.52294119994E+02 -0.19067600260E+03  0.22388118499E+03  0.00000000000E+00 0. -1.
         11    1    1    2    0    0 -0.14515968836E+02 -0.33957194711E+02 -0.19847230814E+03  0.20187882881E+03  0.00000000000E+00 0.  1.
</event>
<event>
 7    1  0.2688177E-009  0.2712969E+03  0.7561462E-02  0.1100540E+00
          1   -1    0    0  501    0  0.00000000000E+00  0.00000000000E+00  0.49061097974E+03  0.49061097974E+03  0.00000000000E+00 0. -1.
         -1   -1    0    0    0  501 -0.00000000000E+00 -0.00000000000E+00 -0.28371705686E+03  0.28371705686E+03  0.00000000000E+00 0.  1.
         25    2    1    2    0    0 -0.70419585153E+02  0.25260487634E+03 -0.14620090703E+03  0.32525455825E+03  0.12509069077E+03 0.  0.
          5    1    3    3  502    0 -0.18715497970E+02  0.17751104398E+02  0.19996381066E+02  0.32904395259E+02  0.41800000000E+01 0. -1.
         -5    1    3    3    0  502 -0.51704087183E+02  0.23485377195E+03 -0.16619728809E+03  0.29235016299E+03  0.41800000000E+01 0. -1.
        -11    1    1    2    0    0  0.68292353613E+02 -0.88290843661E+02  0.12011970320E+03  0.16397518633E+03  0.00000000000E+00 0. -1.
         11    1    1    2    0    0  0.21272315397E+01 -0.16431403268E+03  0.23297512671E+03  0.28509829203E+03  0.00000000000E+00 0.  1.
</event>
<event>
 7    1  0.2688177E-009  0.6739343E+02  0.7561462E-02  0.1369188E+00
          2   -1    0    0  501    0  0.00000000000E+00  0.00000000000E+00  0.45121146659E+03  0.45121146659E+03  0.00000000000E+00 0. -1.
         -2   -1    0    0    0  501 -0.00000000000E+00 -0.00000000000E+00 -0.47937161403E+02  0.47937161403E+02  0.00000000000E+00 0.  1.
         25    2    1    2    0    0  0.12327687238E+02  0.54492197508E+02  0.80163386412E+02  0.15873048472E+03  0.12509127387E+03 0.  0.
          5    1    3    3  502    0  0.11860415776E+02  0.41829634642E+01  0.10262300855E+03  0.10347521892E+03  0.41800000000E+01 0.  1.
         -5    1    3    3    0  502  0.46727146154E+00  0.50309234044E+02 -0.22459622140E+02  0.55255265807E+02  0.41800000000E+01 0.  1.
        -11    1    1    2    0    0 -0.15324851340E+02  0.11112194071E+01  0.31969481055E+01  0.15694150322E+02  0.00000000000E+00 0.  1.
         11    1    1    2    0    0  0.29971641018E+01 -0.55603416915E+02  0.31991397067E+03  0.32472399295E+03  0.00000000000E+00 0. -1.
</event>
<event>
 7    1  0.2688177E-009  0.8182400E+02  0.7561462E-02  0.1323953E+00
         -2   -1    0    0    0  501 -0.00000000000E+00  0.00000000000E+00  0.91799323830E+02  0.91799323830E+02  0.00000000000E+00 0. -1.
          2   -1    0    0  501    0  0.00000000000E+00 -0.00000000000E+00 -0.17307066308E+03  0.17307066308E+03  0.00000000000E+00 0.  1.
         25    2    1    2    0    0  0.11984441852E+02 -0.39168660475E+02  0.65943742776E+01  0.13179253472E+03  0.12509186875E+03 0.  0.
          5    1    3    3  502    0 -0.43400410961E+02 -0.74932024770E+01 -0.34225394472E+02  0.55933833962E+02  0.41800000000E+01 0.  1.
         -5    1    3    3    0  502  0.55384852813E+02 -0.31675457998E+02  0.40819768750E+02  0.75858700762E+02  0.41800000000E+01 0.  1.
        -11    1    1    2    0    0 -0.23300571665E+02  0.37327433895E+02 -0.10420635579E+03  0.11311595178E+03  0.00000000000E+00 0.  1.
         11    1    1    2    0    0  0.11316129813E+02  0.18412265797E+01  0.16340642255E+02  0.19961500409E+02  0.00000000000E+00 0. -1.
</event>
<event>
 7    1  0.2688177E-009  0.1147921E+03  0.7561462E-02  0.1251944E+00
         -3   -1    0    0    0  501 -0.00000000000E+00  0.00000000000E+00  0.46198028425E+03  0.46198028425E+03  0.00000000000E+00 0.  1.
          3   -1    0    0  501    0  0.00000000000E+00 -0.00000000000E+00 -0.36797784695E+02  0.36797784695E+02  0.00000000000E+00 0. -1.
         25    2    1    2    0    0  0.49456426463E+02  0.54271091650E+02  0.19048445686E+03  0.23942284480E+03  0.12509069029E+03 0.  0.
          5    1    3    3  502    0  0.80982648616E+02  0.67936863659E+02  0.11429036711E+03  0.15573492619E+03  0.41800000000E+01 0. -1.
         -5    1    3    3    0  502 -0.31526222153E+02 -0.13665772009E+02  0.76194089755E+02  0.83687918611E+02  0.41800000000E+01 0. -1.
        -11    1    1    2    0    0  0.10651998600E+02 -0.76994294285E+01  0.53348338038E+00  0.13154120732E+02  0.00000000000E+00 0. -1.
         11    1    1    2    0    0 -0.60108425064E+02 -0.46571662222E+02  0.23416455931E+03  0.24620110342E+03  0.00000000000E+00 0.  1.
</event>
<event>
 7    1  0.2688177E-009  0.1322424E+03  0.7561462E-02  0.1224166E+00
          2   -1    0    0  501    0  0.00000000000E+00  0.00000000000E+00  0.12283271078E+03  0.12283271078E+03  0.00000000000E+00 0. -1.
         -2   -1    0    0    0  501 -0.00000000000E+00 -0.00000000000E+00 -0.18356709867E+03  0.18356709867E+03  0.00000000000E+00 0.  1.
         25    2    1    2    0    0  0.28375770231E+02 -0.99375440701E+02 -0.48685813686E+02  0.16939254998E+03  0.12507143952E+03 0.  0.
          5    1    3    3  502    0 -0.36752782282E+02 -0.18541486706E+02 -0.50751783154E+02  0.65481063126E+02  0.41800000000E+01 0.  1.
         -5    1    3    3    0  502  0.65128552513E+02 -0.80833953995E+02  0.20659694681E+01  0.10391148686E+03  0.41800000000E+01 0.  1.
        -11    1    1    2    0    0  0.13966355604E+02  0.34852576465E+01  0.22437079629E+02  0.26657619023E+02  0.00000000000E+00 0. -1.
         11    1    1    2    0    0 -0.42342125835E+02  0.95890183054E+02 -0.34485653829E+02  0.11034964045E+03  0.00000000000E+00 0.  1.
</event>
<event>
 7    1  0.2688177E-009  0.1032088E+03  0.7561462E-02  0.1273689E+00
         -1   -1    0    0    0  501 -0.00000000000E+00  0.00000000000E+00  0.14815486099E+02  0.14815486099E+02  0.00000000000E+00 0.  1.
          1   -1    0    0  501    0  0.00000000000E+00 -0.00000000000E+00 -0.78913457119E+03  0.78913457119E+03  0.00000000000E+00 0. -1.
         25    2    1    2    0    0 -0.10586465386E+02 -0.10469990590E+02 -0.45370088112E+03  0.47086475456E+03  0.12508970224E+03 0.  0.
          5    1    3    3  502    0  0.52216769061E+02 -0.18596570394E+02 -0.13663040438E+03  0.14750512941E+03  0.41800000000E+01 0. -1.
         -5    1    3    3    0  502 -0.62803234447E+02  0.81265798040E+01 -0.31707047674E+03  0.32335962515E+03  0.41800000000E+01 0. -1.
        -11    1    1    2    0    0 -0.24567306305E+02  0.36237285405E+02 -0.11869780676E+03  0.12651427873E+03  0.00000000000E+00 0.  1.
         11    1    1    2    0    0  0.35153771691E+02 -0.25767294815E+02 -0.20192039721E+03  0.20657102399E+03  0.00000000000E+00 0. -1.
</event>
<event>
 7    1  0.2688177E-009  0.8824085E+02  0.7561462E-02  0.1307169E+00
         -1   -1    0    0    0  501 -0.00000000000E+00  0.00000000000E+00  0.27913300111E+02  0.27913300111E+02  0.00000000000E+00 0. -1.
          1   -1    0    0  501    0  0.00000000000E+00 -0.00000000000E+00 -0.43245287155E+03  0.43245287155E+03  0.00000000000E+00 0.  1.
         25    2    1    2    0    0  0.90213798285E+01  0.97895916562E+01 -0.27870548939E+03  0.30577881051E+03  0.12508680882E+03 0.  0.
          5    1    3    3  502    0  0.44299402525E+02  0.53189808691E+02 -0.16549977600E+03  0.17944146975E+03  0.41800000000E+01 0. -1.
         -5    1    3    3    0  502 -0.35278022697E+02 -0.43400217034E+02 -0.11320571340E+03  0.12633734076E+03  0.41800000000E+01 0. -1.
        -11    1    1    2    0    0 -0.27715420429E+02  0.37479999191E+01 -0.13699699515E+01  0.28001229448E+02  0.00000000000E+00 0. -1.
         11    1    1    2    0    0  0.18694040600E+02 -0.13537591575E+02 -0.12446411210E+03  0.12658613170E+03  0.00000000000E+00 0.  1.
</event>
<event>
 7    1  0.2688177E-009  0.1250315E+03  0.7561462E-02  0.1235020E+00
         -1   -1    0    0    0  501 -0.00000000000E+00  0.00000000000E+00  0.19893098443E+03  0.19893098443E+03  0.00000000000E+00 0.  1.
          1   -1    0    0  501    0  0.00000000000E+00 -0.00000000000E+00 -0.93674321792E+02  0.93674321792E+02  0.00000000000E+00 0. -1.
         25    2    1    2    0    0  0.45899698511E+02 -0.65277283482E+02  0.75755146780E+02  0.16659265609E+03  0.12508542976E+03 0.  0.
          5    1    3    3  502    0 -0.17075738744E+01  0.29946336625E+02  0.47556747628E+02  0.56380985543E+02  0.41800000000E+01 0.  1.
         -5    1    3    3    0  502  0.47607272385E+02 -0.95223620107E+02  0.28198399152E+02  0.11021167055E+03  0.41800000000E+01 0.  1.
        -11    1    1    2    0    0  0.12312333879E+02 -0.11524982707E+02  0.24199880633E+02  0.29496661076E+02  0.00000000000E+00 0.  1.
         11    1    1    2    0    0 -0.58212032390E+02  0.76802266188E+02  0.53016352215E+01  0.96515989052E+02  0.00000000000E+00 0. -1.
</event>
<event>
 7    1  0.2688177E-009  0.1461900E+03  0.7561462E-02  0.1205234E+00
         -2   -1    0    0    0  501 -0.00000000000E+00  0.00000000000E+00  0.22581326224E+02  0.22581326224E+02  0.00000000000E+00 0.  1.
          2   -1    0    0  501    0  0.00000000000E+00 -0.00000000000E+00 -0.15972398802E+04  0.15972398802E+04  0.00000000000E+00 0. -1.
         25    2    1    2    0    0 -0.29425893105E+01 -0.10822256119E+03 -0.13141205140E+04  0.13244927921E+04  0.12509056493E+03 0.  0.
          5    1    3    3  502    0 -0.12848093449E+02 -0.13500328388E+03 -0.11316376048E+04  0.11397421205E+04  0.41800000000E+01 0.  1.
         -5    1    3    3    0  502  0.99055041384E+01  0.26780722699E+02 -0.18248290924E+03  0.18475067168E+03  0.41800000000E+01 0.  1.
        -11    1    1    2    0    0  0.16308291930E+02 -0.23410417994E+01 -0.91026941998E+02  0.92505918902E+02  0.00000000000E+00 0. -1.
         11    1    1    2    0    0 -0.13365702620E+02  0.11056360298E+03 -0.16951109799E+03  0.20282249543E+03  0.00000000000E+00 0.  1.
</event>
<event>
 7    1  0.2688177E-009  0.1545633E+03  0.7561462E-02  0.1194975E+00
         -2   -1    0    0    0  501 -0.00000000000E+00  0.00000000000E+00  0.88514997500E+02  0.88514997500E+02  0.00000000000E+00 0.  1.
          2   -1    0    0  501    0  0.00000000000E+00 -0.00000000000E+00 -0.49926314974E+03  0.49926314974E+03  0.00000000000E+00 0. -1.
         25    2    1    2    0    0  0.68102899857E+02 -0.11210089100E+03 -0.38344827036E+03  0.42412832118E+03  0.12509053542E+03 0.  0.
          5    1    3    3  502    0  0.13159810992E+02 -0.12129591803E+03 -0.29803423660E+03  0.32206794150E+03  0.41800000000E+01 0. -1.
         -5    1    3    3    0  502  0.54943088865E+02  0.91950270388E+01 -0.85414033764E+02  0.10206037968E+03  0.41800000000E+01 0. -1.
        -11    1    1    2    0    0 -0.55275753562E+02  0.92550124370E+02  0.21147088130E+02  0.10985505810E+03  0.00000000000E+00 0.  1.
         11    1    1    2    0    0 -0.12827146294E+02  0.19550766625E+02 -0.48446970005E+02  0.53794767965E+02  0.00000000000E+00 0. -1.
</event>
<event>
 7    1  0.2688177E-009  0.1362187E+03  0.7561462E-02  0.1218510E+00
          1   -1    0    0  501    0  0.00000000000E+00  0.00000000000E+00  0.22670896907E+03  0.22670896907E+03  0.00000000000E+00 0. -1.
         -1   -1    0    0    0  501 -0.00000000000E+00 -0.00000000000E+00 -0.89566371341E+02  0.89566371341E+02  0.00000000000E+00 0.  1.
         25    2    1    2    0    0  0.89914347358E+02  0.25582367295E+01  0.46681831850E+02  0.16100726049E+03  0.12511199011E+03 0.  0.
          5    1    3    3  502    0  0.11776123006E+03  0.16690334884E+02  0.22100264437E+02  0.12104614274E+03  0.41800000000E+01 0.  1.
         -5    1    3    3    0  502 -0.27846882707E+02 -0.14132098154E+02  0.24581567413E+02  0.39961117742E+02  0.41800000000E+01 0.  1.
        -11    1    1    2    0    0 -0.52565594486E+02 -0.42233924827E+02  0.29782008423E+02  0.73714409417E+02  0.00000000000E+00 0.  1.
         11    1    1    2    0    0 -0.37348752872E+02  0.39675688097E+02  0.60678757459E+02  0.81553670511E+02  0.00000000000E+00 0. -1.
</event>
<event>
 7    1  0.2688177E-009  0.2585237E+03  0.7561462E-02  0.1108033E+00
          2   -1    0    0  501    0  0.00000000000E+00  0.00000000000E+00  0.13034164376E+04  0.13034164376E+04  0.00000000000E+00 0. -1.
         -2   -1    0    0    0  501 -0.00000000000E+00 -0.00000000000E+00 -0.62416582642E+02  0.62416582642E+02  0.00000000000E+00 0.  1.
         25    2    1    2    0    0 -0.23710866643E+03  0.30285020984E+00  0.90868083229E+03  0.94740289976E+03  0.12510310978E+03 0.  0.
          5    1    3    3  502    0 -0.16114605424E+03  0.58686809733E+02  0.61361379630E+03  0.63714327733E+03  0.41800000000E+01 0.  1.
         -5    1    3    3    0  502 -0.75962612195E+02 -0.58383959523E+02  0.29506703599E+03  0.31025962243E+03  0.41800000000E+01 0.  1.
        -11    1    1    2    0    0  0.16231318770E+03 -0.36710018488E+02  0.18187250435E+03  0.24651735070E+03  0.00000000000E+00 0.  1.
         11    1    1    2    0    0  0.74795478735E+02  0.36407168278E+02  0.15044651828E+03  0.17191276976E+03  0.00000000000E+00 0. -1.
</event>
<event>
 7    1  0.2688177E-009  0.1119140E+03  0.7561462E-02  0.1257066E+00
         -1   -1    0    0    0  501 -0.00000000000E+00  0.00000000000E+00  0.42011600762E+03  0.42011600762E+03  0.00000000000E+00 0.  1.
          1   -1    0    0  501    0  0.00000000000E+00 -0.00000000000E+00 -0.31033074928E+02  0.31033074928E+02  0.00000000000E+00 0. -1.
         25    2    1    2    0    0  0.36253353212E+02  0.14736262956E+01  0.22080035063E+03  0.25635417196E+03  0.12509272340E+03 0.  0.
          5    1    3    3  502    0  0.68982652787E+02 -0.37910489902E+02  0.13695688932E+03  0.15802048463E+03  0.41800000000E+01 0. -1.
         -5    1    3    3    0  502 -0.32729299575E+02  0.39384116198E+02  0.83843461310E+02  0.98333687330E+02  0.41800000000E+01 0. -1.
        -11    1    1    2    0    0  0.16079104386E+02  0.28932491590E+02  0.89656608662E+02  0.95571617880E+02  0.00000000000E+00 0.  1.
         11    1    1    2    0    0 -0.52332457598E+02 -0.30406117886E+02  0.78625973404E+02  0.99223292713E+02  0.00000000000E+00 0. -1.
</event>
<event>
 7    1  0.2688177E-009  0.1061140E+03  0.7561462E-02  0.1267940E+00
         -2   -1    0    0    0  501 -0.00000000000E+00  0.00000000000E+00  0.59800066770E+02  0.59800066770E+02  0.00000000000E+00 0.  1.
          2   -1    0    0  501    0  0.00000000000E+00 -0.00000000000E+00 -0.20346930716E+03  0.20346930716E+03  0.00000000000E+00 0. -1.
         25    2    1    2    0    0  0.18396353552E+02  0.70763195150E+01 -0.80093152150E+02  0.14983693690E+03  0.12509074513E+03 0.  0.
          5    1    3    3  502    0  0.69054819899E+02 -0.80869534846E+01 -0.63512648594E+02  0.94261847528E+02  0.41800000000E+01 0. -1.
         -5    1    3    3    0  502 -0.50658466347E+02  0.15163273000E+02 -0.16580503557E+02  0.55575089374E+02  0.41800000000E+01 0. -1.
        -11    1    1    2    0    0  0.31196501799E+02  0.15739521668E+02 -0.86586294226E+01  0.35998974018E+02  0.00000000000E+00 0.  1.
         11    1    1    2    0    0 -0.49592855351E+02 -0.22815841183E+02 -0.54917458814E+02  0.77433463008E+02  0.00000000000E+00 0. -1.
</event>
<event>
 7    1  0.2688177E-009  0.1511974E+03  0.7561462E-02  0.1199009E+00
         -2   -1    0    0    0  501 -0.00000000000E+00  0.00000000000E+00  0.86533250948E+02  0.86533250948E+02  0.00000000000E+00 0.  1.
          2   -1    0    0  501    0  0.00000000000E+00 -0.00000000000E+00 -0.43576163644E+03  0.43576163644E+03  0.00000000000E+00 0. -1.
         25    2    1    2    0    0 -0.10417482329E+03 -0.10376598119E+03 -0.26922956629E+03  0.33129134477E+03  0.12509845361E+03 0.  0.
          5    1    3    3  502    0 -0.45023395152E+02 -0.52535725858E+02 -0.23635817809E+03  0.24631234104E+03  0.41800000000E+01 0. -1.
         -5    1    3    3    0  502 -0.59151428136E+02 -0.51230255328E+02 -0.32871388199E+02  0.84979003723E+02  0.41800000000E+01 0. -1.
        -11    1    1    2    0    0  0.85267178210E+02  0.52643473643E+02 -0.77613910599E+01  0.10050903536E+03  0.00000000000E+00 0. -1.
         11    1    1    2    0    0  0.18907645079E+02  0.51122507542E+02 -0.72237428149E+02  0.90494507266E+02  0.00000000000E+00 0.  1.
</event>
<event>
 7    1  0.2688177E-009  0.9453288E+02  0.7561462E-02  0.1292232E+00
          2   -1    0    0  501    0  0.00000000000E+00  0.00000000000E+00  0.14353586078E+03  0.14353586078E+03  0.00000000000E+00 0. -1.
         -2   -1    0    0    0  501 -0.00000000000E+00 -0.00000000000E+00 -0.87628428472E+02  0.87628428472E+02  0.00000000000E+00 0.  1.
         25    2    1    2    0    0 -0.22539411929E+02 -0.15557708421E+02  0.36566656840E+02  0.13317029535E+03  0.12508852781E+03 0.  0.
          5    1    3    3  502    0 -0.50096401623E+02 -0.45832595728E+02  0.55573431307E+02  0.87841647036E+02  0.41800000000E+01 0.  1.
         -5    1    3    3    0  502  0.27556989695E+02  0.30274887308E+02 -0.19006774467E+02  0.45328648316E+02  0.41800000000E+01 0.  1.
        -11    1    1    2    0    0 -0.12221510609E+02  0.37053147745E+02  0.36723344149E+02  0.53580827586E+02  0.00000000000E+00 0. -1.
         11    1    1    2    0    0  0.34760922538E+02 -0.21495439325E+02 -0.17382568686E+02  0.44413166309E+02  0.00000000000E+00 0.  1.
</event>
<event>
 7    1  0.2688177E-009  0.7557108E+02  0.7561462E-02  0.1342112E+00
         -3   -1    0    0    0  501 -0.00000000000E+00  0.00000000000E+00  0.41573232647E+03  0.41573232647E+03  0.00000000000E+00 0.  1.
          3   -1    0    0  501    0  0.00000000000E+00 -0.00000000000E+00 -0.33618138665E+02  0.33618138665E+02  0.00000000000E+00 0. -1.
         25    2    1    2    0    0  0.38722361193E+02  0.11711831442E+02  0.26693261659E+03  0.29754796231E+03  0.12508069324E+03 0.  0.
          5    1    3    3  502    0  0.23524453934E+02  0.44150225183E+02  0.25449407966E+03  0.25939805569E+03  0.41800000000E+01 0. -1.
         -5    1    3    3    0  502  0.15197907259E+02 -0.32438393741E+02  0.12438536929E+02  0.38149906612E+02  0.41800000000E+01 0. -1.
        -11    1    1    2    0    0 -0.66300319402E+01 -0.28079056724E+02  0.11197829229E+03  0.11563532633E+03  0.00000000000E+00 0.  1.
         11    1    1    2    0    0 -0.32092329253E+02  0.16367225282E+02  0.32032789262E+01  0.36167176503E+02  0.00000000000E+00 0. -1.
</event>
<event>
 7    1  0.2688177E-009  0.1125957E+03  0.7561462E-02  0.1255837E+00
         -1   -1    0    0    0  501 -0.00000000000E+00  0.00000000000E+00  0.97072622006E+02  0.97072622006E+02  0.00000000000E+00 0.  1.
          1   -1    0    0  501    0  0.00000000000E+00 -0.00000000000E+00 -0.13452920898E+03  0.13452920898E+03  0.00000000000E+00 0. -1.
         25    2    1    2    0    0 -0.31213459100E+02  0.19608780510E+02 -0.33597652458E+02  0.13466891307E+03  0.12509248417E+03 0.  0.
          5    1    3    3  502    0  0.48317767520E+02  0.12620777679E+02 -0.17765798795E+02  0.53169415026E+02  0.41800000000E+01 0.  1.
         -5    1    3    3    0  502 -0.79531226620E+02  0.69880028313E+01 -0.15831853664E+02  0.81499498046E+02  0.41800000000E+01 0.  1.
        -11    1    1    2    0    0  0.45041669924E+02  0.22829203006E+02  0.70460347080E+01  0.50985989689E+02  0.00000000000E+00 0. -1.
         11    1    1    2    0    0 -0.13828210824E+02 -0.42437983516E+02 -0.10904969223E+02  0.45946928224E+02  0.00000000000E+00 0.  1.
</event>
<event>
 7    1  0.2688177E-009  0.1813514E+03  0.7561462E-02  0.1166502E+00
          2   -1    0    0  501    0  0.00000000000E+00  0.00000000000E+00  0.15576618716E+03  0.15576618716E+03  0.00000000000E+00 0. -1.
         -2   -1    0    0    0  501 -0.00000000000E+00 -0.00000000000E+00 -0.30197606207E+03  0.30197606207E+03  0.00000000000E+00 0.  1.
         25    2    1    2    0    0  0.13449186492E+03 -0.10420913855E+03 -0.15944881310E+03  0.26461062132E+03  0.12508897085E+03 0.  0.
          5    1    3    3  502    0  0.59788000957E+02 -0.26440057535E+02 -0.14052944190E+03  0.15504734162E+03  0.41800000000E+01 0.  1.
         -5    1    3    3    0  502  0.74703863960E+02 -0.77769081015E+02 -0.18919371196E+02  0.10956327970E+03  0.41800000000E+01 0.  1.
        -11    1    1    2    0    0 -0.11682370770E+03  0.41258262268E+02  0.25799162948E+02  0.12655283361E+03  0.00000000000E+00 0.  1.
         11    1    1    2    0    0 -0.17668157216E+02  0.62950876281E+02 -0.12560224759E+02  0.66578794297E+02  0.00000000000E+00 0. -1.
</event>
<event>
 7    1  0.2688177E-009  0.1065731E+03  0.7561462E-02  0.1267051E+00
          2   -1    0    0  501    0  0.00000000000E+00  0.00000000000E+00  0.38640270606E+03  0.38640270606E+03  0.00000000000E+00 0. -1.
         -2   -1    0    0    0  501 -0.00000000000E+00 -0.00000000000E+00 -0.52760667252E+02  0.52760667252E+02  0.00000000000E+00 0.  1.
         25    2    1    2    0    0  0.83723171015E+01 -0.14783899394E+02  0.31593242667E+03  0.34022025138E+03  0.12509141399E+03 0.  0.
          5    1    3    3  502    0 -0.57014875708E+02 -0.61486152712E+01  0.11281948901E+03  0.12662626513E+03  0.41800000000E+01 0.  1.
         -5    1    3    3    0  502  0.65387192810E+02 -0.86352841227E+01  0.20311293766E+03  0.21359398625E+03  0.41800000000E+01 0.  1.
        -11    1    1    2    0    0  0.38177006777E+02 -0.58878269587E+01  0.27054131629E+02  0.47160114408E+02  0.00000000000E+00 0. -1.
         11    1    1    2    0    0 -0.46549323878E+02  0.20671726353E+02 -0.93445194876E+01  0.51783007526E+02  0.00000000000E+00 0.  1.
</event>
<event>
 6    1  0.2688177E-009  0.1208834E+03  0.7561462E-02  0.1241647E+00
          2   -1    0    0  501    0  0.00000000000E+00  0.00000000000E+00  0.23903558480E+02  0.23903558480E+02  0.00000000000E+00 0. -1.
         -2   -1    0    0    0  501 -0.00000000000E+00 -0.00000000000E+00 -0.66089663205E+03  0.66089663205E+03  0.00000000000E+00 0.  1.
          5    1    1    2  502    0 -0.85780879383E+01  0.50165695854E+02 -0.17869823518E+03  0.18585131770E+03  0.41800000000E+01 0.  1.
         -5    1    1    2    0  502 -0.57891189370E+02 -0.64214671715E+02 -0.17380837207E+03  0.19416934998E+03  0.41800000000E+01 0.  1.
        -11    1    1    2    0    0  0.69746168889E+02 -0.17915987120E+02 -0.14836898198E+03  0.16492078548E+03  0.00000000000E+00 0. -1.
         11    1    1    2    0    0 -0.32768915811E+01  0.31964962981E+02 -0.13611748434E+03  0.13985873737E+03  0.00000000000E+00 0.  1.
</event>
<event>
 7    1  0.2688177E-009  0.1181492E+03  0.7561462E-02  0.1246182E+00
          1   -1    0    0  501    0  0.00000000000E+00  0.00000000000E+00  0.32883447603E+03  0.32883447603E+03  0.00000000000E+00 0. -1.
         -1   -1    0    0    0  501 -0.00000000000E+00 -0.00000000000E+00 -0.48213086462E+02  0.48213086462E+02  0.00000000000E+00 0.  1.
         25    2    1    2    0    0 -0.51820271382E+02 -0.34542765219E+02  0.16783366106E+03  0.21839013459E+03  0.12509024721E+03 0.  0.
          5    1    3    3  502    0  0.77555947093E+01 -0.69406449322E+02  0.94665604912E+02  0.11771343853E+03  0.41800000000E+01 0.  1.
         -5    1    3    3    0  502 -0.59575866091E+02  0.34863684103E+02  0.73168056145E+02  0.10067669606E+03  0.41800000000E+01 0.  1.
        -11    1    1    2    0    0 -0.13491817134E+02  0.28571545231E+02  0.43024877661E+01  0.31888457589E+02  0.00000000000E+00 0.  1.
         11    1    1    2    0    0  0.65312088516E+02  0.59712199879E+01  0.10848524075E+03  0.12676897031E+03  0.00000000000E+00 0. -1.
</event>
<event>
 7    1  0.2688177E-009  0.7193242E+02  0.7561462E-02  0.1353642E+00
          2   -1    0    0  501    0  0.00000000000E+00  0.00000000000E+00  0.15736058608E+03  0.15736058608E+03  0.00000000000E+00 0. -1.
         -2   -1    0    0    0  501 -0.00000000000E+00 -0.00000000000E+00 -0.93752403948E+02  0.93752403948E+02  0.00000000000E+00 0.  1.
         25    2    1    2    0    0 -0.51987681474E+02 -0.12388011453E+02  0.27797002593E+02  0.13884069250E+03  0.12509149726E+03 0.  0.
          5    1    3    3  502    0  0.14584604964E+02 -0.15540676880E+01  0.61473352840E+02  0.63336966597E+02  0.41800000000E+01 0.  1.
         -5    1    3    3    0  502 -0.66572286438E+02 -0.10833943765E+02 -0.33676350247E+02  0.75503725901E+02  0.41800000000E+01 0.  1.
        -11    1    1    2    0    0  0.13671602802E+02 -0.97429397272E+01 -0.29170252708E+02  0.33656221427E+02  0.00000000000E+00 0.  1.
         11    1    1    2    0    0  0.38316078672E+02  0.22130951180E+02  0.64981432243E+02  0.78616076099E+02  0.00000000000E+00 0. -1.
</event>
<event>
 7    1  0.2688177E-009  0.1485810E+03  0.7561462E-02  0.1202228E+00
         -2   -1    0    0    0  501 -0.00000000000E+00  0.00000000000E+00  0.16176287900E+03  0.16176287900E+03  0.00000000000E+00 0.  1.
          2   -1    0    0  501    0  0.00000000000E+00 -0.00000000000E+00 -0.17961824061E+03  0.17961824061E+03  0.00000000000E+00 0. -1.
         25    2    1    2    0    0  0.11743266859E+03 -0.17535500420E+02 -0.63688182356E+02  0.18384972416E+03  0.12508641444E+03 0.  0.
          5    1    3    3  502    0 -0.19737056221E+02  0.21800909303E+02 -0.11355074574E+02  0.31800018134E+02  0.41800000000E+01 0. -1.
         -5    1    3    3    0  502  0.13716972481E+03 -0.39336409723E+02 -0.52333107782E+02  0.15204970603E+03  0.41800000000E+01 0. -1.
        -11    1    1    2    0    0 -0.43033889073E+01  0.10503662646E+02 -0.22484578362E+02  0.25187345021E+02  0.00000000000E+00 0. -1.
         11    1    1    2    0    0 -0.11312927968E+03  0.70318377742E+01  0.68317399105E+02  0.13234405043E+03  0.00000000000E+00 0.  1.
</event>
<event>
 7    1  0.2688177E-009  0.1117972E+03  0.7561462E-02  0.1257278E+00
          1   -1    0    0  501    0  0.00000000000E+00  0.00000000000E+00  0.13089399754E+02  0.13089399754E+02  0.00000000000E+00 0. -1.
         -1   -1    0    0    0  501 -0.00000000000E+00 -0.00000000000E+00 -0.13170663560E+04  0.13170663560E+04  0.00000000000E+00 0.  1.
         25    2    1    2    0    0 -0.41336210453E+02 -0.65634564476E+01 -0.10792943484E+04  0.10873252088E+04  0.12509219800E+03 0.  0.
          5    1    3    3  502    0 -0.17120932322E+01  0.56842884181E+02 -0.46778408972E+03  0.47124672067E+03  0.41800000000E+01 0. -1.
         -5    1    3    3    0  502 -0.39624117220E+02 -0.63406340629E+02 -0.61151025870E+03  0.61607848818E+03  0.41800000000E+01 0. -1.
        -11    1    1    2    0    0  0.63300058237E+02 -0.10120966088E+02 -0.16736788122E+03  0.17922427010E+03  0.00000000000E+00 0.  1.
         11    1    1    2    0    0 -0.21963847785E+02  0.16684422536E+02 -0.57314726647E+02  0.63606276856E+02  0.00000000000E+00 0. -1.
</event>
<event>
 7    1  0.2688177E-009  0.1107360E+03  0.7561462E-02  0.1259213E+00
         -2   -1    0    0    0  501 -0.00000000000E+00  0.00000000000E+00  0.75313515174E+02  0.75313515174E+02  0.00000000000E+00 0.  1.
          2   -1    0    0  501    0  0.00000000000E+00 -0.00000000000E+00 -0.23488945628E+03  0.23488945628E+03  0.00000000000E+00 0. -1.
         25    2    1    2    0    0 -0.30203736321E+02  0.95457474236E+01 -0.17032373124E+03  0.21368344519E+03  0.12508818627E+03 0.  0.
          5    1    3    3  502    0 -0.69106967916E+02 -0.26521331350E+02 -0.11576380206E+03  0.13746957590E+03  0.41800000000E+01 0.  1.
         -5    1    3    3    0  502  0.38903231595E+02  0.36067078774E+02 -0.54559929182E+02  0.76213869291E+02  0.41800000000E+01 0.  1.
        -11    1    1    2    0    0 -0.29141785880E+02 -0.17881131042E+02 -0.50073735985E+01  0.34555062176E+02  0.00000000000E+00 0.  1.
         11    1    1    2    0    0  0.59345522201E+02  0.83353836186E+01  0.15755163732E+02  0.61964464087E+02  0.00000000000E+00 0. -1.
</event>
<event>
 7    1  0.2688177E-009  0.9429758E+02  0.7561462E-02  0.1292766E+00
         -2   -1    0    0    0  501 -0.00000000000E+00  0.00000000000E+00  0.12439518323E+02  0.12439518323E+02  0.00000000000E+00 0.  1.
          2   -1    0    0  501    0  0.00000000000E+00 -0.00000000000E+00 -0.12056551526E+04  0.12056551526E+04  0.00000000000E+00 0. -1.
         25    2    1    2    0    0 -0.40560846760E+02  0.21533794665E+02 -0.74521339686E+03  0.75703348620E+03  0.12509118981E+03 0.  0.
          5    1    3    3  502    0  0.17157165934E+02 -0.16635734511E+01 -0.12563994096E+02  0.21736194863E+02  0.41800000000E+01 0.  1.
         -5    1    3    3    0  502 -0.57718012693E+02  0.23197368116E+02 -0.73264940277E+03  0.73529729134E+03  0.41800000000E+01 0.  1.
        -11    1    1    2    0    0  0.31400070291E+02 -0.60672333491E+02 -0.30165243206E+03  0.30929158772E+03  0.00000000000E+00 0. -1.
         11    1    1    2    0    0  0.91607764686E+01  0.39138538826E+02 -0.14634980537E+03  0.15176959702E+03  0.00000000000E+00 0.  1.
</event>
<event>
 7    1  0.2688177E-009  0.1404316E+03  0.7561462E-02  0.1212749E+00
          2   -1    0    0  501    0  0.00000000000E+00  0.00000000000E+00  0.29194653891E+03  0.29194653891E+03  0.00000000000E+00 0. -1.
         -2   -1    0    0    0  501 -0.00000000000E+00 -0.00000000000E+00 -0.91297264037E+02  0.91297264037E+02  0.00000000000E+00 0.  1.
         25    2    1    2    0    0  0.13688234688E+02 -0.11906275549E+03  0.11762535613E+03  0.20939488250E+03  0.12508870811E+03 0.  0.
          5    1    3    3  502    0 -0.21374596960E+02 -0.32673402880E+02  0.10877884555E+03  0.11564918629E+03  0.41800000000E+01 0.  1.
         -5    1    3    3    0  502  0.35062831648E+02 -0.86389352614E+02  0.88465105855E+01  0.93745696209E+02  0.41800000000E+01 0.  1.
        -11    1    1    2    0    0 -0.44576926527E+02  0.29309817587E+02  0.50641701586E+02  0.73557798534E+02  0.00000000000E+00 0.  1.
         11    1    1    2    0    0  0.30888691839E+02  0.89752937907E+02  0.32382217151E+02  0.10029112191E+03  0.00000000000E+00 0. -1.
</event>
<event>
 7    1  0.2688177E-009  0.2064670E+03  0.7561462E-02  0.1144395E+00
          1   -1    0    0  501    0  0.00000000000E+00  0.00000000000E+00  0.87234535428E+02  0.87234535428E+02  0.00000000000E+00 0. -1.
         -1   -1    0    0    0  501 -0.00000000000E+00 -0.00000000000E+00 -0.51040653107E+03  0.51040653107E+03  0.00000000000E+00 0.  1.
         25    2    1    2    0    0  0.79842267940E+02  0.16232976756E+03 -0.23199335653E+03  0.31967814215E+03  0.12508979137E+03 0.  0.
          5    1    3    3  502    0 -0.29312849681E+02  0.22970159874E+02 -0.16988865566E+02  0.41145660212E+02  0.41800000000E+01 0. -1.
         -5    1    3    3    0  502  0.10915511762E+03  0.13935960768E+03 -0.21500449097E+03  0.27853248193E+03  0.41800000000E+01 0. -1.
        -11    1    1    2    0    0 -0.56429362824E+02 -0.29811890894E+02 -0.86382715744E+02  0.10740109593E+03  0.00000000000E+00 0. -1.
         11    1    1    2    0    0 -0.23412905116E+02 -0.13251787666E+03 -0.10479592336E+03  0.17056182842E+03  0.00000000000E+00 0.  1.
</event>
<event>
 7    1  0.2688177E-009  0.1177379E+03  0.7561462E-02  0.1246876E+00
         -2   -1    0    0    0  501 -0.00000000000E+00  0.00000000000E+00  0.49235394330E+02  0.49235394330E+02  0.00000000000E+00 0.  1.
          2   -1    0    0  501    0  0.00000000000E+00 -0.00000000000E+00 -0.35507649756E+03  0.35507649756E+03  0.00000000000E+00 0. -1.
         25    2    1    2    0    0 -0.20141201134E+02 -0.63492336089E+02 -0.23098530842E+03  0.27100511820E+03  0.12511041787E+03 0.  0.
          5    1    3    3  502    0  0.46606010084E+02 -0.43716103555E+02 -0.66370707574E+02  0.92226683285E+02  0.41800000000E+01 0. -1.
         -5    1    3    3    0  502 -0.66747211218E+02 -0.19776232534E+02 -0.16461460084E+03  0.17877843491E+03  0.41800000000E+01 0. -1.
        -11    1    1    2    0    0  0.14120371448E+02  0.81498387045E+02 -0.36295345788E+02  0.90325655861E+02  0.00000000000E+00 0.  1.
         11    1    1    2    0    0  0.60208296862E+01 -0.18006050957E+02 -0.38560449031E+02  0.42981117839E+02  0.00000000000E+00 0. -1.
</event>
<event>
 7    1  0.2688177E-009  0.1220461E+03  0.7561462E-02  0.1239759E+00
          4   -1    0    0  501    0  0.00000000000E+00  0.00000000000E+00  0.98208048001E+02  0.98208048001E+02  0.00000000000E+00 0. -1.
         -4   -1    0    0    0  501 -0.00000000000E+00 -0.00000000000E+00 -0.32846829909E+03  0.32846829909E+03  0.00000000000E+00 0.  1.
         25    2    1    2    0    0  0.68731503074E+02  0.77529796865E+02 -0.12393812255E+01  0.16243060974E+03  0.12508908026E+03 0.  0.
          5    1    3    3  502    0 -0.62865861923E+01  0.26925228976E+02  0.50779673298E+02  0.57970136637E+02  0.41800000000E+01 0. -1.
         -5    1    3    3    0  502  0.75018089267E+02  0.50604567889E+02 -0.52019054524E+02  0.10446047311E+03  0.41800000000E+01 0. -1.
        -11    1    1    2    0    0 -0.52276826318E+02 -0.90551139840E+02 -0.21480302744E+03  0.23889896629E+03  0.00000000000E+00 0.  1.
         11    1    1    2    0    0 -0.16454676757E+02  0.13021342975E+02 -0.14217842431E+02  0.25346771065E+02  0.00000000000E+00 0. -1.
</event>
<event>
 7    1  0.2688177E-009  0.1282034E+03  0.7561462E-02  0.1230146E+00
         -1   -1    0    0    0  501 -0.00000000000E+00  0.00000000000E+00  0.63785099876E+02  0.63785099876E+02  0.00000000000E+00 0.  1.
          1   -1    0    0  501    0  0.00000000000E+00 -0.00000000000E+00 -0.31153904041E+03  0.31153904041E+03  0.00000000000E+00 0. -1.
         25    2    1    2    0    0 -0.85080015639E+02 -0.10549772355E+01 -0.10378547526E+03  0.18344942370E+03  0.12507015689E+03 0.  0.
          5    1    3    3  502    0 -0.44353374223E+02 -0.51199345475E+02 -0.96964687404E+02  0.11835631705E+03  0.41800000000E+01 0. -1.
         -5    1    3    3    0  502 -0.40726641416E+02  0.50144368240E+02 -0.68207878525E+01  0.65093106656E+02  0.41800000000E+01 0. -1.
        -11    1    1    2    0    0  0.98147484104E+02 -0.18900464302E+02 -0.97436923666E+02  0.13958549452E+03  0.00000000000E+00 0.  1.
         11    1    1    2    0    0 -0.13067468465E+02  0.19955441538E+02 -0.46531541615E+02  0.52289222064E+02  0.00000000000E+00 0. -1.
</event>
<event>
 7    1  0.2688177E-009  0.1913560E+03  0.7561462E-02  0.1157244E+00
          2   -1    0    0  501    0  0.00000000000E+00  0.00000000000E+00  0.44735295477E+03  0.44735295477E+03  0.00000000000E+00 0.  1.
         -2   -1    0    0    0  501 -0.00000000000E+00 -0.00000000000E+00 -0.85931727896E+02  0.85931727896E+02  0.00000000000E+00 0. -1.
         25    2    1    2    0    0  0.14987448328E+03  0.49303506781E+02  0.13362891654E+03  0.24165606658E+03  0.12509104948E+03 0.  0.
          5    1    3    3  502    0  0.10635107383E+03 -0.30147391558E+02  0.71031031947E+02  0.13146214673E+03  0.41800000000E+01 0.  1.
         -5    1    3    3    0  502  0.43523409450E+02  0.79450898339E+02  0.62597884592E+02  0.11019391985E+03  0.41800000000E+01 0.  1.
        -11    1    1    2    0    0 -0.11697406926E+02  0.22741039174E+02  0.23875149439E+02  0.34985810727E+02  0.00000000000E+00 0. -1.
         11    1    1    2    0    0 -0.13817707636E+03 -0.72044545955E+02  0.20391716090E+03  0.25664280536E+03  0.00000000000E+00 0.  1.
</event>
<event>
 7    1  0.2688177E-009  0.1611394E+03  0.7561462E-02  0.1187416E+00
         -3   -1    0    0    0  501 -0.00000000000E+00  0.00000000000E+00  0.66373510546E+03  0.66373510546E+03  0.00000000000E+00 0.  1.
          3   -1    0    0  501    0  0.00000000000E+00 -0.00000000000E+00 -0.48791035596E+02  0.48791035596E+02  0.00000000000E+00 0. -1.
         25    2    1    2    0    0  0.51661689142E+02  0.11764397849E+03  0.20082754899E+03  0.26923592260E+03  0.12508893550E+03 0.  0.
          5    1    3    3  502    0  0.66501576502E+02  0.92847278516E+01  0.54962523940E+02  0.86873570702E+02  0.41800000000E+01 0. -1.
         -5    1    3    3    0  502 -0.14839887360E+02  0.10835925064E+03  0.14586502505E+03  0.18236235190E+03  0.41800000000E+01 0. -1.
        -11    1    1    2    0    0 -0.67899941351E+02 -0.82583006963E+02  0.36753464570E+03  0.38276895233E+03  0.00000000000E+00 0.  1.
         11    1    1    2    0    0  0.16238252209E+02 -0.35060971531E+02  0.46581875173E+02  0.60521266131E+02  0.00000000000E+00 0. -1.
</event>
<event>
 7    1  0.2688177E-009  0.1320245E+03  0.7561462E-02  0.1224482E+00
         -2   -1    0    0    0  501 -0.00000000000E+00  0.00000000000E+00  0.94203179261E+02  0.94203179261E+02  0.00000000000E+00 0.  1.
          2   -1    0    0  501    0  0.00000000000E+00 -0.00000000000E+00 -0.24706922527E+03  0.24706922527E+03  0.00000000000E+00 0. -1.
         25    2    1    2    0    0 -0.24588385814E+02 -0.10205340640E+03 -0.61551652338E+02  0.17451540046E+03  0.12509009801E+03 0.  0.
          5    1    3    3  502    0  0.25628412662E+02 -0.80097174384E+02  0.94434250837E+01  0.84729118708E+02  0.41800000000E+01 0.  1.
         -5    1    3    3    0  502 -0.50216798476E+02 -0.21956232012E+02 -0.70995077422E+02  0.89786281756E+02  0.41800000000E+01 0.  1.
        -11    1    1    2    0    0  0.11023174738E+02 -0.82366483145E+01 -0.43787454460E+02  0.45898735548E+02  0.00000000000E+00 0. -1.
         11    1    1    2    0    0  0.13565211077E+02  0.11029005471E+03 -0.47526939215E+02  0.12085826852E+03  0.00000000000E+00 0.  1.
</event>
<event>
 7    1  0.2688177E-009  0.1068321E+03  0.7561462E-02  0.1266551E+00
          2   -1    0    0  501    0  0.00000000000E+00  0.00000000000E+00  0.44277103644E+02  0.44277103644E+02  0.00000000000E+00 0. -1.
         -2   -1    0    0    0  501 -0.00000000000E+00 -0.00000000000E+00 -0.39554906442E+03  0.39554906442E+03  0.00000000000E+00 0.  1.
         25    2    1    2    0    0  0.21700013339E+02  0.65462570339E+02 -0.23995000342E+03  0.27924703561E+03  0.12508662623E+03 0.  0.
          5    1    3    3  502    0 -0.49350341265E+02  0.19018256001E+02 -0.12903459565E+03  0.13951540961E+03  0.41800000000E+01 0. -1.
         -5    1    3    3    0  502  0.71050354603E+02  0.46444314337E+02 -0.11091540778E+03  0.13973162601E+03  0.41800000000E+01 0. -1.
        -11    1    1    2    0    0 -0.29309313464E+02 -0.57904527577E+02 -0.12639299338E+03  0.14208152218E+03  0.00000000000E+00 0.  1.
         11    1    1    2    0    0  0.76093001254E+01 -0.75580427620E+01  0.15071036027E+02  0.18497610271E+02  0.00000000000E+00 0. -1.
</event>
<event>
 7    1  0.2688177E-009  0.9787343E+02  0.7561462E-02  0.1284832E+00
          1   -1    0    0  501    0  0.00000000000E+00  0.00000000000E+00  0.12249297848E+03  0.12249297848E+03  0.00000000000E+00 0. -1.
         -1   -1    0    0    0  501 -0.00000000000E+00 -0.00000000000E+00 -0.11593517349E+03  0.11593517349E+03  0.00000000000E+00 0.  1.
         25    2    1    2    0    0  0.13726546957E+02  0.41136437463E+02  0.26144075375E+02  0.13495067987E+03  0.12509016245E+03 0.  0.
          5    1    3    3  502    0 -0.49811322817E+02  0.21111284679E+02  0.39194821233E+02  0.66936990021E+02  0.41800000000E+01 0. -1.
         -5    1    3    3    0  502  0.63537869774E+02  0.20025152784E+02 -0.13050745857E+02  0.68013689849E+02  0.41800000000E+01 0. -1.
        -11    1    1    2    0    0 -0.18093628042E+02 -0.56205605252E+02 -0.44567721759E+02  0.73977910623E+02  0.00000000000E+00 0.  1.
         11    1    1    2    0    0  0.43670810851E+01  0.15069167789E+02  0.24981451365E+02  0.29499561477E+02  0.00000000000E+00 0. -1.
</event>
<event>
 7    1  0.3815369E-009  0.9260605E+02  0.7561462E-02  0.1296661E+00
          1   -1    0    0  501    0  0.00000000000E+00  0.00000000000E+00  0.68861738053E+02  0.68861738053E+02  0.00000000000E+00 0. -1.
         -1   -1    0    0    0  501 -0.00000000000E+00 -0.00000000000E+00 -0.19709761242E+03  0.19709761242E+03  0.00000000000E+00 0.  1.
         25    2    1    2    0    0 -0.11381653053E+02  0.24061179556E+02 -0.34015225043E+02  0.13233547103E+03  0.12508860448E+03 0.  0.
          5    1    3    3  502    0  0.55431270524E+02  0.24036891084E+02 -0.21270107895E+02  0.64189467787E+02  0.41800000000E+01 0. -1.
         -5    1    3    3    0  502 -0.66812923577E+02  0.24288472523E-01 -0.12745117148E+02  0.68146003243E+02  0.41800000000E+01 0. -1.
        -11    1    1    2    0    0 -0.20331928046E+02 -0.12930960595E+02 -0.96953595477E+02  0.99902936473E+02  0.00000000000E+00 0.  1.
         11    1    1    2    0    0  0.31713581100E+02 -0.11130218961E+02  0.27329461515E+01  0.33720942973E+02  0.00000000000E+00 0. -1.
</event>
<event>
 7    1  0.2688177E-009  0.9631034E+02  0.7561462E-02  0.1288252E+00
         -1   -1    0    0    0  501 -0.00000000000E+00  0.00000000000E+00  0.30723926747E+02  0.30723926747E+02  0.00000000000E+00 0.  1.
          1   -1    0    0  501    0  0.00000000000E+00 -0.00000000000E+00 -0.64694073798E+03  0.64694073798E+03  0.00000000000E+00 0. -1.
         25    2    1    2    0    0 -0.85707898753E+02 -0.25758116915E+02 -0.31016943016E+03  0.34621066317E+03  0.12508966141E+03 0.  0.
          5    1    3    3  502    0 -0.53057325041E+02 -0.22496694611E+02 -0.30765837045E+03  0.31303726027E+03  0.41800000000E+01 0. -1.
         -5    1    3    3    0  502 -0.32650573712E+02 -0.32614223046E+01 -0.25110597094E+01  0.33173402901E+02  0.41800000000E+01 0. -1.
        -11    1    1    2    0    0  0.40085648367E+02 -0.12745165817E+02 -0.37502806900E+02  0.56353872822E+02  0.00000000000E+00 0.  1.
         11    1    1    2    0    0  0.45622250386E+02  0.38503282733E+02 -0.26854457418E+03  0.27510012874E+03  0.00000000000E+00 0. -1.
</event>
<event>
 7    1  0.2688177E-009  0.1110327E+03  0.7561462E-02  0.1258669E+00
          3   -1    0    0  501    0  0.00000000000E+00  0.00000000000E+00  0.46525192058E+03  0.46525192058E+03  0.00000000000E+00 0. -1.
         -3   -1    0    0    0  501 -0.00000000000E+00 -0.00000000000E+00 -0.36537437918E+02  0.36537437918E+02  0.00000000000E+00 0.  1.
         25    2    1    2    0    0  0.49492523978E+02  0.46588270789E+02  0.20531022071E+03  0.24983800055E+03  0.12508702126E+03 0.  0.
          5    1    3    3  502    0 -0.14993955319E+02 -0.18080064696E+02  0.12771904918E+03  0.12992819309E+03  0.41800000000E+01 0.  1.
         -5    1    3    3    0  502  0.64486479297E+02  0.64668335484E+02  0.77591171526E+02  0.11990980746E+03  0.41800000000E+01 0.  1.
        -11    1    1    2    0    0 -0.46454322693E+02 -0.69542777994E+02  0.12183841569E+03  0.14777957100E+03  0.00000000000E+00 0.  1.
         11    1    1    2    0    0 -0.30382012843E+01  0.22954507206E+02  0.10156584626E+03  0.10417178694E+03  0.00000000000E+00 0. -1.
</event>
<event>
 7    1  0.2688177E-009  0.2290647E+03  0.7561462E-02  0.1127300E+00
         -1   -1    0    0    0  501 -0.00000000000E+00  0.00000000000E+00  0.30658674153E+02  0.30658674153E+02  0.00000000000E+00 0.  1.
          1   -1    0    0  501    0  0.00000000000E+00 -0.00000000000E+00 -0.18087077992E+04  0.18087077992E+04  0.00000000000E+00 0. -1.
         25    2    1    2    0    0 -0.41724121222E+02  0.20404864196E+03 -0.98291104259E+03  0.10124913588E+04  0.12509150031E+03 0.  0.
          5    1    3    3  502    0 -0.73422145997E+02  0.19580990438E+03 -0.87436080388E+03  0.89903093269E+03  0.41800000000E+01 0.  1.
         -5    1    3    3    0  502  0.31698024775E+02  0.82387375805E+01 -0.10855023871E+03  0.11346042612E+03  0.41800000000E+01 0.  1.
        -11    1    1    2    0    0  0.54264697025E+02 -0.13041593784E+03 -0.62982853467E+03  0.64547421116E+03  0.00000000000E+00 0. -1.
         11    1    1    2    0    0 -0.12540575803E+02 -0.73632704121E+02 -0.16530954777E+03  0.18140090337E+03  0.00000000000E+00 0.  1.
</event>
<event>
 7    1  0.2688177E-009  0.1525869E+03  0.7561462E-02  0.1197330E+00
         -3   -1    0    0    0  501 -0.00000000000E+00  0.00000000000E+00  0.24102752442E+02  0.24102752442E+02  0.00000000000E+00 0.  1.
          3   -1    0    0  501    0  0.00000000000E+00 -0.00000000000E+00 -0.10872555461E+04  0.10872555461E+04  0.00000000000E+00 0. -1.
         25    2    1    2    0    0  0.11446496555E+02 -0.11919367756E+03 -0.57663147984E+03  0.60207149542E+03  0.12509223395E+03 0.  0.
          5    1    3    3  502    0 -0.88231950143E+01 -0.13419307309E+03 -0.36697738989E+03  0.39086507483E+03  0.41800000000E+01 0. -1.
         -5    1    3    3    0  502  0.20269691569E+02  0.14999395521E+02 -0.20965408995E+03  0.21120642058E+03  0.41800000000E+01 0. -1.
        -11    1    1    2    0    0  0.29111044282E+02  0.91335135460E+02 -0.25105194775E+03  0.26873153953E+03  0.00000000000E+00 0.  1.
         11    1    1    2    0    0 -0.40557540837E+02  0.27858542104E+02 -0.23546936604E+03  0.24055526357E+03  0.00000000000E+00 0. -1.
</event>
<event>
 7    1  0.2688177E-009  0.1043158E+03  0.7561462E-02  0.1271474E+00
          2   -1    0    0  501    0  0.00000000000E+00  0.00000000000E+00  0.28650587180E+03  0.28650587180E+03  0.00000000000E+00 0. -1.
         -2   -1    0    0    0  501 -0.00000000000E+00 -0.00000000000E+00 -0.47340257366E+02  0.47340257366E+02  0.00000000000E+00 0.  1.
         25    2    1    2    0    0 -0.35965810905E+02 -0.12705830753E+02  0.10777918301E+03  0.16946520759E+03  0.12508847511E+03 0.  0.
          5    1    3    3  502    0  0.42186266224E+02  0.21892511329E+01  0.68630467988E+02  0.80697505629E+02  0.41800000000E+01 0.  1.
         -5    1    3    3    0  502 -0.78152077129E+02 -0.14895081886E+02  0.39148715017E+02  0.88767701961E+02  0.41800000000E+01 0.  1.
        -11    1    1    2    0    0  0.18257467932E+02 -0.32880154348E+02  0.98530488501E+02  0.10546419700E+03  0.00000000000E+00 0. -1.
         11    1    1    2    0    0  0.17708342973E+02  0.45585985102E+02  0.32855942924E+02  0.58916724569E+02  0.00000000000E+00 0.  1.
</event>
<event>
 7    1  0.2688177E-009  0.1015877E+03  0.7561462E-02  0.1276992E+00
         -2   -1    0    0    0  501 -0.00000000000E+00  0.00000000000E+00  0.26060034778E+02  0.26060034778E+02  0.00000000000E+00 0.  1.
          2   -1    0    0  501    0  0.00000000000E+00 -0.00000000000E+00 -0.62771983498E+03  0.62771983498E+03  0.00000000000E+00 0. -1.
         25    2    1    2    0    0 -0.37732661831E+02  0.54685486131E+02 -0.35564876974E+03  0.38281552546E+03  0.12508965965E+03 0.  0.
          5    1    3    3  502    0  0.22816569025E+02 -0.43415962800E+01 -0.23058586846E+03  0.23179033719E+03  0.41800000000E+01 0.  1.
         -5    1    3    3    0  502 -0.60549230856E+02  0.59027082411E+02 -0.12506290127E+03  0.15102518826E+03  0.41800000000E+01 0.  1.
        -11    1    1    2    0    0  0.40174878136E+02 -0.18612348646E-02 -0.36025562515E+02  0.53961671501E+02  0.00000000000E+00 0.  1.
         11    1    1    2    0    0 -0.24422163043E+01 -0.54683624896E+02 -0.20998546795E+03  0.21700267280E+03  0.00000000000E+00 0. -1.
</event>
<event>
 6    1  0.2688177E-009  0.2107995E+03  0.7561462E-02  0.1140934E+00
          2   -1    0    0  501    0  0.00000000000E+00  0.00000000000E+00  0.23476536720E+03  0.23476536720E+03  0.00000000000E+00 0. -1.
         -2   -1    0    0    0  501 -0.00000000000E+00 -0.00000000000E+00 -0.20782467097E+03  0.20782467097E+03  0.00000000000E+00 0.  1.
          5    1    1    2  502    0  0.29617635647E+02 -0.10517108231E+03 -0.22658028799E+02  0.11166476421E+03  0.41800000000E+01 0.  1.
         -5    1    1    2    0  502 -0.56712531962E+02 -0.84237693704E+02  0.62869465663E+02  0.11950875464E+03  0.41800000000E+01 0.  1.
        -11    1    1    2    0    0 -0.18897692249E+02  0.14652377057E+03 -0.35094553629E+01  0.14777907291E+03  0.00000000000E+00 0.  1.
         11    1    1    2    0    0  0.45992588564E+02  0.42885005451E+02 -0.97612852702E+01  0.63637446409E+02  0.00000000000E+00 0. -1.
</event>
<event>
 7    1  0.2688177E-009  0.6477429E+02  0.7561462E-02  0.1378823E+00
          1   -1    0    0  501    0  0.00000000000E+00  0.00000000000E+00  0.88242248322E+03  0.88242248322E+03  0.00000000000E+00 0. -1.
         -1   -1    0    0    0  501 -0.00000000000E+00 -0.00000000000E+00 -0.27585805571E+02  0.27585805571E+02  0.00000000000E+00 0.  1.
         25    2    1    2    0    0 -0.33990031396E+02  0.30035792572E+02  0.76155359617E+03  0.77309033661E+03  0.12508923871E+03 0.  0.
          5    1    3    3  502    0 -0.19037559152E+02  0.47547894746E+02  0.73834241072E+03  0.74012851507E+03  0.41800000000E+01 0. -1.
         -5    1    3    3    0  502 -0.14952472243E+02 -0.17512102175E+02  0.23211185447E+02  0.32961821531E+02  0.41800000000E+01 0. -1.
        -11    1    1    2    0    0  0.23387271959E+02 -0.51796403291E+00 -0.12541829536E+02  0.26542988991E+02  0.00000000000E+00 0.  1.
         11    1    1    2    0    0  0.10602759436E+02 -0.29517828539E+02  0.10582491101E+03  0.11037496319E+03  0.00000000000E+00 0. -1.
</event>
<event>
 7    1  0.2688177E-009  0.1141577E+03  0.7561462E-02  0.1253059E+00
         -2   -1    0    0    0  501 -0.00000000000E+00  0.00000000000E+00  0.60050102546E+02  0.60050102546E+02  0.00000000000E+00 0. -1.
          2   -1    0    0  501    0  0.00000000000E+00 -0.00000000000E+00 -0.29252013479E+03  0.29252013479E+03  0.00000000000E+00 0.  1.
         25    2    1    2    0    0 -0.24509693631E+02 -0.65344052532E+02 -0.87368052432E+02  0.16778495204E+03  0.12509213910E+03 0.  0.
          5    1    3    3  502    0 -0.57470975544E+02 -0.86092380069E+01 -0.83639417752E+02  0.10193162714E+03  0.41800000000E+01 0.  1.
         -5    1    3    3    0  502  0.32961281914E+02 -0.56734814525E+02 -0.37286346795E+01  0.65853324906E+02  0.41800000000E+01 0.  1.
        -11    1    1    2    0    0  0.96877825738E+01  0.81677091852E+02 -0.13964084471E+03  0.16206346280E+03  0.00000000000E+00 0.  1.
         11    1    1    2    0    0  0.14821911057E+02 -0.16333039320E+02 -0.54611351078E+01  0.22721822495E+02  0.00000000000E+00 0. -1.
</event>
<event>
 7    1  0.2688177E-009  0.9567848E+02  0.7561462E-02  0.1289655E+00
         -1   -1    0    0    0  501 -0.00000000000E+00  0.00000000000E+00  0.32010527039E+02  0.32010527039E+02  0.00000000000E+00 0.  1.
          1   -1    0    0  501    0  0.00000000000E+00 -0.00000000000E+00 -0.44371579029E+03  0.44371579029E+03  0.00000000000E+00 0. -1.
         25    2    1    2    0    0  0.15944689825E+02 -0.45059171776E+02 -0.23909908263E+03  0.27404557796E+03  0.12509214761E+03 0.  0.
          5    1    3    3  502    0  0.21475145197E+02  0.15233660434E+02 -0.20018259282E+03  0.20194996692E+03  0.41800000000E+01 0.  1.
         -5    1    3    3    0  502 -0.55304553720E+01 -0.60292832211E+02 -0.38916489809E+02  0.72095611043E+02  0.41800000000E+01 0.  1.
        -11    1    1    2    0    0  0.37908945657E+02  0.29249439141E+02 -0.87250271986E+02  0.99525010990E+02  0.00000000000E+00 0. -1.
         11    1    1    2    0    0 -0.53853635483E+02  0.15809732636E+02 -0.85355908638E+02  0.10215572838E+03  0.00000000000E+00 0.  1.
</event>
<event>
 7    1  0.2688177E-009  0.1118584E+03  0.7561462E-02  0.1257167E+00
          3   -1    0    0  501    0  0.00000000000E+00  0.00000000000E+00  0.52473373903E+03  0.52473373903E+03  0.00000000000E+00 0. -1.
         -3   -1    0    0    0  501 -0.00000000000E+00 -0.00000000000E+00 -0.31931115368E+02  0.31931115368E+02  0.00000000000E+00 0.  1.
         25    2    1    2    0    0 -0.54196464620E+02  0.37614533136E+02  0.21194761274E+03  0.25479673109E+03  0.12508986269E+03 0.  0.
          5    1    3    3  502    0 -0.71889543158E+02 -0.35629034673E+00  0.19761214976E+03  0.21032419616E+03  0.41800000000E+01 0. -1.
         -5    1    3    3    0  502  0.17693078538E+02  0.37970823483E+02  0.14335462978E+02  0.44472534928E+02  0.41800000000E+01 0. -1.
        -11    1    1    2    0    0 -0.75610220357E+01 -0.46590320841E+02  0.14186073598E+03  0.14950684086E+03  0.00000000000E+00 0. -1.
         11    1    1    2    0    0  0.61757486656E+02  0.89757877049E+01  0.13899427494E+03  0.15236128244E+03  0.00000000000E+00 0.  1.
</event>
<event>
 6    1  0.2688177E-009  0.1611494E+03  0.7561462E-02  0.1187405E+00
         -2   -1    0    0    0  501 -0.00000000000E+00  0.00000000000E+00  0.37381735942E+03  0.37381735942E+03  0.00000000000E+00 0.  1.
          2   -1    0    0  501    0  0.00000000000E+00 -0.00000000000E+00 -0.95490897049E+02  0.95490897049E+02  0.00000000000E+00 0. -1.
          5    1    1    2  502    0  0.68041376151E+02  0.82250587159E+01  0.86564992688E+02  0.11049095356E+03  0.41800000000E+01 0. -1.
         -5    1    1    2    0  502  0.45967121559E+02  0.74741221864E+02 -0.18680237302E+02  0.89808964896E+02  0.41800000000E+01 0. -1.
        -11    1    1    2    0    0 -0.11269745676E+03 -0.35286940907E+02  0.16669837870E+03  0.20428958471E+03  0.00000000000E+00 0.  1.
         11    1    1    2    0    0 -0.13110409471E+01 -0.47679339673E+02  0.43743328293E+02  0.64718753311E+02  0.00000000000E+00 0. -1.
</event>
<event>
 7    1  0.2688177E-009  0.1901207E+03  0.7561462E-02  0.1158353E+00
          2   -1    0    0  501    0  0.00000000000E+00  0.00000000000E+00  0.89367468272E+03  0.89367468272E+03  0.00000000000E+00 0. -1.
         -2   -1    0    0    0  501 -0.00000000000E+00 -0.00000000000E+00 -0.55509809905E+02  0.55509809905E+02  0.00000000000E+00 0.  1.
         25    2    1    2    0    0 -0.16365487771E+03 -0.43431107453E+02  0.62392482437E+03  0.65848229524E+03  0.12509023379E+03 0.  0.
          5    1    3    3  502    0 -0.17882683029E+03 -0.38345642862E+02  0.61006666745E+03  0.63690520071E+03  0.41800000000E+01 0.  1.
         -5    1    3    3    0  502  0.15171952581E+02 -0.50854645905E+01  0.13858156919E+02  0.21577094531E+02  0.41800000000E+01 0.  1.
        -11    1    1    2    0    0  0.22345104984E+02  0.31949032716E+02  0.10413260027E+03  0.11119191899E+03  0.00000000000E+00 0. -1.
         11    1    1    2    0    0  0.14130977272E+03  0.11482074737E+02  0.11010744818E+03  0.17951027840E+03  0.00000000000E+00 0.  1.
</event>
<event>
 7    1  0.2883709E-009  0.8357490E+02  0.7561462E-02  0.1319202E+00
         -1   -1    0    0    0  501 -0.00000000000E+00  0.00000000000E+00  0.27128401397E+02  0.27128401397E+02  0.00000000000E+00 0.  1.
          1   -1    0    0  501    0  0.00000000000E+00 -0.00000000000E+00 -0.53678561583E+03  0.53678561583E+03  0.00000000000E+00 0. -1.
         25    2    1    2    0    0  0.90150094829E+01  0.32625226797E+02 -0.38177204320E+03  0.40316642533E+03  0.12509035827E+03 0.  0.
          5    1    3    3  502    0  0.50622102709E+02  0.21107504202E+02 -0.33457410215E+03  0.33906551911E+03  0.41800000000E+01 0. -1.
         -5    1    3    3    0  502 -0.41607093227E+02  0.11517722596E+02 -0.47197941044E+02  0.64100906229E+02  0.41800000000E+01 0. -1.
        -11    1    1    2    0    0  0.24327286787E+02 -0.24342990877E+02 -0.70583939110E+01  0.35131453312E+02  0.00000000000E+00 0.  1.
         11    1    1    2    0    0 -0.33342296269E+02 -0.82822359204E+01 -0.12082677733E+03  0.12561613858E+03  0.00000000000E+00 0. -1.
</event>
<event>
 7    1  0.2688177E-009  0.7459149E+02  0.7561462E-02  0.1345141E+00
          1   -1    0    0  501    0  0.00000000000E+00  0.00000000000E+00  0.61878166283E+03  0.61878166283E+03  0.00000000000E+00 0. -1.
         -1   -1    0    0    0  501 -0.00000000000E+00 -0.00000000000E+00 -0.22109353983E+02  0.22109353983E+02  0.00000000000E+00 0.  1.
         25    2    1    2    0    0  0.11799616240E+02  0.38109309198E+01  0.22106563799E+03  0.25430601651E+03  0.12509108519E+03 0.  0.
          5    1    3    3  502    0  0.31642308569E+02 -0.11244239076E+02  0.21175844828E+01  0.33906122869E+02  0.41800000000E+01 0.  1.
         -5    1    3    3    0  502 -0.19842692328E+02  0.15055169995E+02  0.21894805350E+03  0.22039989364E+03  0.41800000000E+01 0.  1.
        -11    1    1    2    0    0 -0.11820066827E+02  0.42328390444E+02  0.21690031476E+03  0.22130782445E+03  0.00000000000E+00 0.  1.
         11    1    1    2    0    0  0.20450586719E-01 -0.46139321363E+02  0.15870635610E+03  0.16527717586E+03  0.00000000000E+00 0. -1.
</event>
<event>
 7    1  0.2688177E-009  0.1980749E+03  0.7561462E-02  0.1151373E+00
         -1   -1    0    0    0  501 -0.00000000000E+00  0.00000000000E+00  0.85860983607E+02  0.85860983607E+02  0.00000000000E+00 0.  1.
          1   -1    0    0  501    0  0.00000000000E+00 -0.00000000000E+00 -0.59281451705E+03  0.59281451705E+03  0.00000000000E+00 0. -1.
         25    2    1    2    0    0  0.50168332968E+01  0.18983650707E+03 -0.18049621649E+03  0.29032659242E+03  0.12509027965E+03 0.  0.
          5    1    3    3  502    0 -0.29851795004E+02  0.13552536514E+03 -0.17781259726E+03  0.22559487230E+03  0.41800000000E+01 0. -1.
         -5    1    3    3    0  502  0.34868628301E+02  0.54311141932E+02 -0.26836192272E+01  0.64731720120E+02  0.41800000000E+01 0. -1.
        -11    1    1    2    0    0 -0.17319065477E+02 -0.67621127884E+02 -0.50096148115E+02  0.85919677730E+02  0.00000000000E+00 0.  1.
         11    1    1    2    0    0  0.12302232180E+02 -0.12221537919E+03 -0.27636116884E+03  0.30242923051E+03  0.00000000000E+00 0. -1.
</event>
<event>
 7    1  0.2688177E-009  0.1061749E+03  0.7561462E-02  0.1267822E+00
         -2   -1    0    0    0  501 -0.00000000000E+00  0.00000000000E+00  0.70097298937E+02  0.70097298937E+02  0.00000000000E+00 0.  1.
          2   -1    0    0  501    0  0.00000000000E+00 -0.00000000000E+00 -0.36445994287E+03  0.36445994287E+03  0.00000000000E+00 0. -1.
         25    2    1    2    0    0  0.27257341461E+02  0.84024404774E+02 -0.26135043284E+03  0.30291031217E+03  0.12509014833E+03 0.  0.
          5    1    3    3  502    0  0.50175303954E+02  0.84601095546E+02 -0.26169890179E+03  0.27960453160E+03  0.41800000000E+01 0. -1.
         -5    1    3    3    0  502 -0.22917962494E+02 -0.57669077164E+00  0.34846894681E+00  0.23305780564E+02  0.41800000000E+01 0. -1.
        -11    1    1    2    0    0 -0.22021982077E+01 -0.39067047407E+02  0.30706073675E+02  0.49738785978E+02  0.00000000000E+00 0.  1.
         11    1    1    2    0    0 -0.25055143253E+02 -0.44957357367E+02 -0.63718284766E+02  0.81908143663E+02  0.00000000000E+00 0. -1.
</event>
<event>
 7    1  0.2688177E-009  0.1147281E+03  0.7561462E-02  0.1252056E+00
         -2   -1    0    0    0  501 -0.00000000000E+00  0.00000000000E+00  0.62237775169E+03  0.62237775169E+03  0.00000000000E+00 0.  1.
          2   -1    0    0  501    0  0.00000000000E+00 -0.00000000000E+00 -0.35938741167E+02  0.35938741167E+02  0.00000000000E+00 0. -1.
         25    2    1    2    0    0  0.79738715018E+02 -0.37859771256E+02  0.43126234675E+03  0.45763419456E+03  0.12510083676E+03 0.  0.
          5    1    3    3  502    0  0.99453523600E+02 -0.10353798251E+02  0.19761287419E+03  0.22150964977E+03  0.41800000000E+01 0. -1.
         -5    1    3    3    0  502 -0.19714808582E+02 -0.27505973005E+02  0.23364947255E+03  0.23612454479E+03  0.41800000000E+01 0. -1.
        -11    1    1    2    0    0 -0.51000461095E+02  0.42224363114E+02  0.15816176834E+03  0.17146162497E+03  0.00000000000E+00 0.  1.
         11    1    1    2    0    0 -0.28738253923E+02 -0.43645918576E+01 -0.29851045605E+01  0.29220673331E+02  0.00000000000E+00 0. -1.
</event>
<event>
 7    1  0.2688177E-009  0.1335557E+03  0.7561462E-02  0.1222273E+00
          2   -1    0    0  501    0  0.00000000000E+00  0.00000000000E+00  0.90784986393E+03  0.90784986393E+03  0.00000000000E+00 0. -1.
         -2   -1    0    0    0  501 -0.00000000000E+00 -0.00000000000E+00 -0.27468345770E+02  0.27468345770E+02  0.00000000000E+00 0.  1.
         25    2    1    2    0    0  0.97853772995E+02  0.47059930971E+02  0.58318829819E+03  0.60625594749E+03  0.12509070603E+03 0.  0.
          5    1    3    3  502    0  0.95877480927E+01  0.37549376561E+02  0.40023233469E+02  0.55867810150E+02  0.41800000000E+01 0.  1.
         -5    1    3    3    0  502  0.88266024902E+02  0.95105544104E+01  0.54316506472E+03  0.55038813734E+03  0.41800000000E+01 0.  1.
        -11    1    1    2    0    0 -0.98642118005E+02 -0.67036522000E+02  0.23181926026E+03  0.26069969727E+03  0.00000000000E+00 0.  1.
         11    1    1    2    0    0  0.78834500994E+00  0.19976591029E+02  0.65373959710E+02  0.68362564940E+02  0.00000000000E+00 0. -1.
</event>
<event>
 7    1  0.2688177E-009  0.1054163E+03  0.7561462E-02  0.1269302E+00
         -2   -1    0    0    0  501 -0.00000000000E+00  0.00000000000E+00  0.39196940600E+02  0.39196940600E+02  0.00000000000E+00 0.  1.
          2   -1    0    0  501    0  0.00000000000E+00 -0.00000000000E+00 -0.41081618521E+03  0.41081618521E+03  0.00000000000E+00 0. -1.
         25    2    1    2    0    0  0.59813122200E+02  0.21960394796E+02 -0.25130978994E+03  0.28784712814E+03  0.12505794711E+03 0.  0.
          5    1    3    3  502    0  0.26446360344E+02 -0.30771182110E+02 -0.15094103168E+02  0.43492297873E+02  0.41800000000E+01 0. -1.
         -5    1    3    3    0  502  0.33366761856E+02  0.52731576906E+02 -0.23621568677E+03  0.24435483027E+03  0.41800000000E+01 0. -1.
        -11    1    1    2    0    0 -0.80730946173E+02 -0.28455438233E+02 -0.10486360702E+03  0.13536459549E+03  0.00000000000E+00 0.  1.
         11    1    1    2    0    0  0.20917823973E+02  0.64950434377E+01 -0.15445847656E+02  0.26801402181E+02  0.00000000000E+00 0. -1.
</event>
<event>
 7    1  0.2688177E-009  0.7974667E+02  0.7561462E-02  0.1329772E+00
         -2   -1    0    0    0  501 -0.00000000000E+00  0.00000000000E+00  0.65584714433E+02  0.65584714433E+02  0.00000000000E+00 0.  1.
          2   -1    0    0  501    0  0.00000000000E+00 -0.00000000000E+00 -0.19971936839E+03  0.19971936839E+03  0.00000000000E+00 0. -1.
         25    2    1    2    0    0  0.18179452279E+00  0.29083776349E+02 -0.48123395829E+02  0.13714733941E+03  0.12509049678E+03 0.  0.
          5    1    3    3  502    0 -0.24064596622E+02 -0.56346246136E+01  0.35419242889E+02  0.43391807660E+02  0.41800000000E+01 0. -1.
         -5    1    3    3    0  502  0.24246391145E+02  0.34718400963E+02 -0.83542638719E+02  0.93755531747E+02  0.41800000000E+01 0. -1.
        -11    1    1    2    0    0 -0.11094433534E+02 -0.58997825994E+02 -0.70928150446E+02  0.92922723018E+02  0.00000000000E+00 0. -1.
         11    1    1    2    0    0  0.10912639011E+02  0.29914049644E+02 -0.15083107684E+02  0.35234020402E+02  0.00000000000E+00 0.  1.
</event>
<event>
 7    1  0.2688177E-009  0.1623543E+03  0.7561462E-02  0.1186064E+00
         -2   -1    0    0    0  501 -0.00000000000E+00  0.00000000000E+00  0.14108037312E+03  0.14108037312E+03  0.00000000000E+00 0.  1.
          2   -1    0    0  501    0  0.00000000000E+00 -0.00000000000E+00 -0.24149630499E+03  0.24149630499E+03  0.00000000000E+00 0. -1.
         25    2    1    2    0    0  0.98999104639E+02  0.10983934457E+03 -0.31970939406E+02  0.19630542847E+03  0.12509266943E+03 0.  0.
          5    1    3    3  502    0  0.12001273917E+02 -0.41441167212E+01 -0.49972046188E+02  0.51728928843E+02  0.41800000000E+01 0.  1.
         -5    1    3    3    0  502  0.86997830723E+02  0.11398346130E+03  0.18001106783E+02  0.14457649963E+03  0.41800000000E+01 0.  1.
        -11    1    1    2    0    0  0.10092335718E+02 -0.32855455863E+02  0.35931022700E+01  0.34557873259E+02  0.00000000000E+00 0.  1.
         11    1    1    2    0    0 -0.10909144036E+03 -0.76983888711E+02 -0.72038094729E+02  0.15171337638E+03  0.00000000000E+00 0. -1.
</event>
<event>
 7    1  0.2688177E-009  0.2190071E+03  0.7561462E-02  0.1134625E+00
          2   -1    0    0  501    0  0.00000000000E+00  0.00000000000E+00  0.42938193584E+03  0.42938193584E+03  0.00000000000E+00 0. -1.
         -2   -1    0    0    0  501 -0.00000000000E+00 -0.00000000000E+00 -0.14394909431E+03  0.14394909431E+03  0.00000000000E+00 0.  1.
         25    2    1    2    0    0 -0.21585060816E+02 -0.19241176912E+03  0.21440655130E+02  0.23150637811E+03  0.12508915887E+03 0.  0.
          5    1    3    3  502    0 -0.12565968119E+02 -0.20810034392E+03  0.30673538883E+02  0.21076526062E+03  0.41800000000E+01 0. -1.
         -5    1    3    3    0  502 -0.90190926970E+01  0.15688574804E+02 -0.92328837525E+01  0.20741117493E+02  0.41800000000E+01 0. -1.
        -11    1    1    2    0    0  0.52667710224E+02  0.94406733447E+02  0.17573801914E+03  0.20632588396E+03  0.00000000000E+00 0. -1.
         11    1    1    2    0    0 -0.31082649408E+02  0.98005035673E+02  0.88254167259E+02  0.13549876808E+03  0.00000000000E+00 0.  1.
</event>
<event>
 7    1  0.2688177E-009  0.1855975E+03  0.7561462E-02  0.1162493E+00
          4   -1    0    0  501    0  0.00000000000E+00  0.00000000000E+00  0.57230351476E+02  0.57230351476E+02  0.00000000000E+00 0. -1.
         -4   -1    0    0    0  501 -0.00000000000E+00 -0.00000000000E+00 -0.75383097880E+03  0.75383097880E+03  0.00000000000E+00 0.  1.
         25    2    1    2    0    0 -0.15703959516E+03 -0.42931143194E+02 -0.49607407438E+03  0.53688161935E+03  0.12509144024E+03 0.  0.
          5    1    3    3  502    0 -0.16852676484E+03 -0.87417511846E+01 -0.41692027737E+03  0.44979737522E+03  0.41800000000E+01 0. -1.
         -5    1    3    3    0  502  0.11487169678E+02 -0.34189392010E+02 -0.79153797016E+02  0.87084244127E+02  0.41800000000E+01 0. -1.
        -11    1    1    2    0    0  0.11459640616E+03  0.15734144186E+02 -0.19037072312E+03  0.22275751799E+03  0.00000000000E+00 0.  1.
         11    1    1    2    0    0  0.42443188997E+02  0.27196999008E+02 -0.10155829823E+02  0.51422192939E+02  0.00000000000E+00 0. -1.
</event>
<event>
 7    1  0.2688177E-009  0.2009480E+03  0.7561462E-02  0.1148942E+00
         -2   -1    0    0    0  501 -0.00000000000E+00  0.00000000000E+00  0.28615885218E+03  0.28615885218E+03  0.00000000000E+00 0. -1.
          2   -1    0    0  501    0  0.00000000000E+00 -0.00000000000E+00 -0.16506316273E+03  0.16506316273E+03  0.00000000000E+00 0.  1.
         25    2    1    2    0    0  0.13911006255E+03  0.11604828959E+03  0.11838427237E+02  0.22047037927E+03  0.12509286453E+03 0.  0.
          5    1    3    3  502    0  0.41825378176E+01 -0.24184227611E+02  0.65769223377E+01  0.25750704751E+02  0.41800000000E+01 0.  1.
         -5    1    3    3    0  502  0.13492752473E+03  0.14023251720E+03  0.52615048991E+01  0.19471967452E+03  0.41800000000E+01 0.  1.
        -11    1    1    2    0    0 -0.20169725437E+02 -0.81243161587E+01  0.58350683299E+02  0.62270575545E+02  0.00000000000E+00 0. -1.
         11    1    1    2    0    0 -0.11894033711E+03 -0.10792397343E+03  0.50906578918E+02  0.16848106010E+03  0.00000000000E+00 0.  1.
</event>
<event>
 7    1  0.2688177E-009  0.1132328E+03  0.7561462E-02  0.1254698E+00
          1   -1    0    0  501    0  0.00000000000E+00  0.00000000000E+00  0.23335730224E+02  0.23335730224E+02  0.00000000000E+00 0. -1.
         -1   -1    0    0    0  501 -0.00000000000E+00 -0.00000000000E+00 -0.86735798962E+03  0.86735798962E+03  0.00000000000E+00 0.  1.
         25    2    1    2    0    0 -0.54014624017E+02 -0.66660962865E+02 -0.36856286819E+03  0.39855210111E+03  0.12507568075E+03 0.  0.
          5    1    3    3  502    0 -0.74726732023E+02 -0.66064646210E+02 -0.15776677335E+03  0.18669881931E+03  0.41800000000E+01 0. -1.
         -5    1    3    3    0  502  0.20712108006E+02 -0.59631665556E+00 -0.21079609484E+03  0.21185328180E+03  0.41800000000E+01 0. -1.
        -11    1    1    2    0    0  0.94510521005E+01 -0.11888208686E+02 -0.10429129066E+02  0.18423317417E+02  0.00000000000E+00 0. -1.
         11    1    1    2    0    0  0.44563571916E+02  0.78549171552E+02 -0.46503026215E+03  0.47371830132E+03  0.00000000000E+00 0.  1.
</event>
<event>
 7    1  0.2688177E-009  0.1104939E+03  0.7561462E-02  0.1259658E+00
          2   -1    0    0  501    0  0.00000000000E+00  0.00000000000E+00  0.85507704965E+03  0.85507704965E+03  0.00000000000E+00 0. -1.
         -2   -1    0    0    0  501 -0.00000000000E+00 -0.00000000000E+00 -0.16271905965E+02  0.16271905965E+02  0.00000000000E+00 0.  1.
         25    2    1    2    0    0 -0.33708354568E+02  0.28337847478E+02  0.45014764712E+03  0.46927496803E+03  0.12508718817E+03 0.  0.
          5    1    3    3  502    0 -0.64066021797E+01  0.69337718815E+02  0.35771146209E+03  0.36444989547E+03  0.41800000000E+01 0.  1.
         -5    1    3    3    0  502 -0.27301752388E+02 -0.40999871338E+02  0.92436185039E+02  0.10482507256E+03  0.41800000000E+01 0.  1.
        -11    1    1    2    0    0 -0.22241946174E+02  0.18419332277E+02  0.13993531490E+03  0.14288410803E+03  0.00000000000E+00 0. -1.
         11    1    1    2    0    0  0.55950300742E+02 -0.46757179755E+02  0.24872218166E+03  0.25918987955E+03  0.00000000000E+00 0.  1.
</event>
<event>
 7    1  0.2688177E-009  0.1701099E+03  0.7561462E-02  0.1177733E+00
         -1   -1    0    0    0  501 -0.00000000000E+00  0.00000000000E+00  0.77405963376E+02  0.77405963376E+02  0.00000000000E+00 0.  1.
          1   -1    0    0  501    0  0.00000000000E+00 -0.00000000000E+00 -0.48822948259E+03  0.48822948259E+03  0.00000000000E+00 0. -1.
         25    2    1    2    0    0 -0.21490839961E+02 -0.15564961912E+03 -0.26236823892E+03  0.33041311451E+03  0.12508826208E+03 0.  0.
          5    1    3    3  502    0  0.23353001304E+02 -0.15091104210E+02 -0.12721206688E+03  0.13028233363E+03  0.41800000000E+01 0.  1.
         -5    1    3    3    0  502 -0.44843841265E+02 -0.14055851491E+03 -0.13515617204E+03  0.20013078088E+03  0.41800000000E+01 0.  1.
        -11    1    1    2    0    0 -0.12146033222E+02  0.89234474177E+02 -0.29266524317E+02  0.94693436680E+02  0.00000000000E+00 0.  1.
         11    1    1    2    0    0  0.33636873183E+02  0.66415144947E+02 -0.11918875598E+03  0.14052889478E+03  0.00000000000E+00 0. -1.
</event>
<event>
 7    1  0.2688177E-009  0.1457825E+03  0.7561462E-02  0.1205753E+00
          3   -1    0    0  501    0  0.00000000000E+00  0.00000000000E+00  0.18924015191E+03  0.18924015191E+03  0.00000000000E+00 0. -1.
         -3   -1    0    0    0  501 -0.00000000000E+00 -0.00000000000E+00 -0.24065713366E+03  0.24065713366E+03  0.00000000000E+00 0.  1.
         25    2    1    2    0    0  0.14014152354E+03  0.30309681031E+02  0.88436323449E+02  0.20982653975E+03  0.12509144693E+03 0.  0.
          5    1    3    3  502    0  0.73495455182E+02  0.22408571166E+02  0.11429382042E+03  0.13778343797E+03  0.41800000000E+01 0.  1.
         -5    1    3    3    0  502  0.66646068358E+02  0.79011098655E+01 -0.25857496968E+02  0.72043101780E+02  0.41800000000E+01 0.  1.
        -11    1    1    2    0    0 -0.12661669205E+03 -0.37503148869E+02 -0.71793539128E+02  0.15030830031E+03  0.00000000000E+00 0. -1.
         11    1    1    2    0    0 -0.13524831488E+02  0.71934678378E+01 -0.68059766073E+02  0.69762445515E+02  0.00000000000E+00 0.  1.
</event>
<event>
 7    1  0.2688177E-009  0.1266482E+03  0.7561462E-02  0.1232516E+00
          1   -1    0    0  501    0  0.00000000000E+00  0.00000000000E+00  0.16024328429E+03  0.16024328429E+03  0.00000000000E+00 0. -1.
         -1   -1    0    0    0  501 -0.00000000000E+00 -0.00000000000E+00 -0.11742255643E+03  0.11742255643E+03  0.00000000000E+00 0.  1.
         25    2    1    2    0    0  0.11800817513E+02  0.71924094899E+02 -0.14870487752E+02  0.14553611098E+03  0.12508914210E+03 0.  0.
          5    1    3    3  502    0 -0.34716436415E+02 -0.20980901142E+02 -0.50233834282E+01  0.41086931635E+02  0.41800000000E+01 0.  1.
         -5    1    3    3    0  502  0.46517253928E+02  0.92904996041E+02 -0.98471043240E+01  0.10444917935E+03  0.41800000000E+01 0.  1.
        -11    1    1    2    0    0  0.21564626359E+02  0.71414630516E+01 -0.79702145771E+01  0.24074009324E+02  0.00000000000E+00 0.  1.
         11    1    1    2    0    0 -0.33365443872E+02 -0.79065557951E+02  0.65661430196E+02  0.10805572041E+03  0.00000000000E+00 0. -1.
</event>
<event>
 7    1  0.2688177E-009  0.1125432E+03  0.7561462E-02  0.1255931E+00
          1   -1    0    0  501    0  0.00000000000E+00  0.00000000000E+00  0.46166177302E+03  0.46166177302E+03  0.00000000000E+00 0. -1.
         -1   -1    0    0    0  501 -0.00000000000E+00 -0.00000000000E+00 -0.33007645842E+02  0.33007645842E+02  0.00000000000E+00 0.  1.
         25    2    1    2    0    0 -0.54333778650E+01 -0.50194934208E+02  0.29382671312E+03  0.32331045076E+03  0.12508579939E+03 0.  0.
          5    1    3    3  502    0  0.26785245754E+02 -0.76343423362E+02  0.12166708718E+03  0.14617154369E+03  0.41800000000E+01 0.  1.
         -5    1    3    3    0  502 -0.32218623619E+02  0.26148489154E+02  0.17215962594E+03  0.17713890707E+03  0.41800000000E+01 0.  1.
        -11    1    1    2    0    0  0.24101751266E+02  0.70666053014E+02  0.11567517743E+03  0.13767836481E+03  0.00000000000E+00 0.  1.
         11    1    1    2    0    0 -0.18668373401E+02 -0.20471118806E+02  0.19152236619E+02  0.33680603292E+02  0.00000000000E+00 0. -1.
</event>
<event>
 7    1  0.2688177E-009  0.9000683E+02  0.7561462E-02  0.1302835E+00
         -2   -1    0    0    0  501 -0.00000000000E+00  0.00000000000E+00  0.46593056760E+03  0.46593056760E+03  0.00000000000E+00 0.  1.
          2   -1    0    0  501    0  0.00000000000E+00 -0.00000000000E+00 -0.26631745357E+02  0.26631745357E+02  0.00000000000E+00 0. -1.
         25    2    1    2    0    0 -0.14673276518E+02 -0.11359372105E+02  0.20186581094E+03  0.23820465635E+03  0.12508921737E+03 0.  0.
          5    1    3    3  502    0  0.30832485076E+02 -0.37278317732E+02  0.16991206019E+03  0.17671416385E+03  0.41800000000E+01 0.  1.
         -5    1    3    3    0  502 -0.45505761594E+02  0.25918945628E+02  0.31953750752E+02  0.61490492499E+02  0.41800000000E+01 0.  1.
        -11    1    1    2    0    0  0.12337298366E+02 -0.32622100856E+02  0.17187981868E+03  0.17538267436E+03  0.00000000000E+00 0.  1.
         11    1    1    2    0    0  0.23359781529E+01  0.43981472961E+02  0.65553192621E+02  0.78974982245E+02  0.00000000000E+00 0. -1.
</event>
<event>
 7    1  0.2688177E-009  0.1096743E+03  0.7561462E-02  0.1261174E+00
         -1   -1    0    0    0  501 -0.00000000000E+00  0.00000000000E+00  0.33903094310E+03  0.33903094310E+03  0.00000000000E+00 0.  1.
          1   -1    0    0  501    0  0.00000000000E+00 -0.00000000000E+00 -0.39601219348E+02  0.39601219348E+02  0.00000000000E+00 0. -1.
         25    2    1    2    0    0  0.28401735424E+02 -0.34726051981E+02  0.17963633316E+03  0.22345058297E+03  0.12509353932E+03 0.  0.
          5    1    3    3  502    0 -0.44421201730E+02 -0.94279948107E+01  0.11155139434E+03  0.12051272227E+03  0.41800000000E+01 0. -1.
         -5    1    3    3    0  502  0.72822937154E+02 -0.25298057170E+02  0.68084938816E+02  0.10293786070E+03  0.41800000000E+01 0. -1.
        -11    1    1    2    0    0  0.35190824542E+01 -0.26904794069E+02  0.49179908570E+02  0.56168632636E+02  0.00000000000E+00 0.  1.
         11    1    1    2    0    0 -0.31920817878E+02  0.61630846050E+02  0.70613482029E+02  0.99012946846E+02  0.00000000000E+00 0. -1.
</event>
<event>
 7    1  0.2688177E-009  0.1079130E+03  0.7561462E-02  0.1264484E+00
          1   -1    0    0  501    0  0.00000000000E+00  0.00000000000E+00  0.25129347169E+03  0.25129347169E+03  0.00000000000E+00 0. -1.
         -1   -1    0    0    0  501 -0.00000000000E+00 -0.00000000000E+00 -0.58057797363E+02  0.58057797363E+02  0.00000000000E+00 0.  1.
         25    2    1    2    0    0  0.36887607835E+02 -0.32093098055E+02  0.85391618041E+02  0.15915142277E+03  0.12508710718E+03 0.  0.
          5    1    3    3  502    0  0.76140518463E+02 -0.24975662575E+02  0.87830889960E+02  0.11896596112E+03  0.41800000000E+01 0. -1.
         -5    1    3    3    0  502 -0.39252910628E+02 -0.71174354799E+01 -0.24392719186E+01  0.40185461651E+02  0.41800000000E+01 0. -1.
        -11    1    1    2    0    0  0.14306523844E+02 -0.18574553603E+02  0.39440261282E+01  0.23774902905E+02  0.00000000000E+00 0.  1.
         11    1    1    2    0    0 -0.51194131679E+02  0.50667651658E+02  0.10390003016E+03  0.12642494339E+03  0.00000000000E+00 0. -1.
</event>
<event>
 7    1  0.2688177E-009  0.8492232E+02  0.7561462E-02  0.1315636E+00
         -2   -1    0    0    0  501 -0.00000000000E+00  0.00000000000E+00  0.68422135557E+02  0.68422135557E+02  0.00000000000E+00 0.  1.
          2   -1    0    0  501    0  0.00000000000E+00 -0.00000000000E+00 -0.22088198578E+03  0.22088198578E+03  0.00000000000E+00 0. -1.
         25    2    1    2    0    0  0.39183461328E+02 -0.28687764634E+02 -0.56817684253E+02  0.14571626997E+03  0.12508657245E+03 0.  0.
          5    1    3    3  502    0  0.73235012324E+01 -0.29420687252E+02 -0.92653966129E+02  0.97577868127E+02  0.41800000000E+01 0.  1.
         -5    1    3    3    0  502  0.31859960096E+02  0.73292261798E+00  0.35836281876E+02  0.48138401838E+02  0.41800000000E+01 0.  1.
        -11    1    1    2    0    0 -0.35195444487E+02  0.63209067073E+02 -0.64766010666E+02  0.97101707557E+02  0.00000000000E+00 0.  1.
         11    1    1    2    0    0 -0.39880168413E+01 -0.34521302438E+02 -0.30876155303E+02  0.46486143814E+02  0.00000000000E+00 0. -1.
</event>
<event>
 7    1  0.2688177E-009  0.1331705E+03  0.7561462E-02  0.1222826E+00
         -1   -1    0    0    0  501 -0.00000000000E+00  0.00000000000E+00  0.81548211811E+03  0.81548211811E+03  0.00000000000E+00 0.  1.
          1   -1    0    0  501    0  0.00000000000E+00 -0.00000000000E+00 -0.30995528793E+02  0.30995528793E+02  0.00000000000E+00 0. -1.
         25    2    1    2    0    0 -0.73397482030E+02 -0.88966177034E+02  0.39313778003E+03  0.42837728884E+03  0.12509043321E+03 0.  0.
          5    1    3    3  502    0 -0.72221910034E+02 -0.10796970958E+03  0.38652995091E+03  0.40779447989E+03  0.41800000000E+01 0. -1.
         -5    1    3    3    0  502 -0.11755719956E+01  0.19003532543E+02  0.66078291201E+01  0.20582808951E+02  0.41800000000E+01 0. -1.
        -11    1    1    2    0    0  0.33994700953E+02  0.55987502604E+02  0.33700473445E+03  0.34331098320E+03  0.00000000000E+00 0.  1.
         11    1    1    2    0    0  0.39402781077E+02  0.32978674430E+02  0.54344074835E+02  0.74789374870E+02  0.00000000000E+00 0. -1.
</event>
<event>
 7    1  0.2688177E-009  0.7765353E+02  0.7561462E-02  0.1335845E+00
          1   -1    0    0  501    0  0.00000000000E+00  0.00000000000E+00  0.84851795484E+02  0.84851795484E+02  0.00000000000E+00 0. -1.
         -1   -1    0    0    0  501 -0.00000000000E+00 -0.00000000000E+00 -0.14268523579E+03  0.14268523579E+03  0.00000000000E+00 0.  1.
         25    2    1    2    0    0  0.24342410474E+02  0.20875162184E+01 -0.31246724360E+02  0.13122544397E+03  0.12508736423E+03 0.  0.
          5    1    3    3  502    0 -0.30944376995E+02 -0.27509162713E+02  0.23572763420E+02  0.47827356983E+02  0.41800000000E+01 0. -1.
         -5    1    3    3    0  502  0.55286787469E+02  0.29596678931E+02 -0.54819487780E+02  0.83398086986E+02  0.41800000000E+01 0. -1.
        -11    1    1    2    0    0 -0.31604753665E+02 -0.15793858848E+02 -0.54165461053E+02  0.64669959043E+02  0.00000000000E+00 0.  1.
         11    1    1    2    0    0  0.72623431901E+01  0.13706342629E+02  0.27578745112E+02  0.31641628258E+02  0.00000000000E+00 0. -1.
</event>
<event>
 7    1  0.2688177E-009  0.2469170E+03  0.7561462E-02  0.1115269E+00
          1   -1    0    0  501    0  0.00000000000E+00  0.00000000000E+00  0.15715059661E+04  0.15715059661E+04  0.00000000000E+00 0. -1.
         -1   -1    0    0    0  501 -0.00000000000E+00 -0.00000000000E+00 -0.47852473217E+02  0.47852473217E+02  0.00000000000E+00 0.  1.
         25    2    1    2    0    0  0.17361451586E+03 -0.14132956390E+03  0.11193105712E+04  0.11483114887E+04  0.12508826715E+03 0.  0.
          5    1    3    3  502    0  0.17893325934E+03 -0.15777956124E+03  0.10476825784E+04  0.10745081473E+04  0.41800000000E+01 0.  1.
         -5    1    3    3    0  502 -0.53187434784E+01  0.16449997341E+02  0.71627992822E+02  0.73803341390E+02  0.41800000000E+01 0.  1.
        -11    1    1    2    0    0 -0.47581717706E+02  0.89127859982E+02  0.12985889490E+03  0.16453306011E+03  0.00000000000E+00 0.  1.
         11    1    1    2    0    0 -0.12603279815E+03  0.52201703921E+02  0.27448402682E+03  0.30651389052E+03  0.00000000000E+00 0. -1.
</event>
<event>
 7    1  0.4230241E-009  0.1345834E+03  0.7561462E-02  0.1220809E+00
          1   -1    0    0  501    0  0.00000000000E+00  0.00000000000E+00  0.22681568509E+03  0.22681568509E+03  0.00000000000E+00 0. -1.
         -1   -1    0    0    0  501 -0.00000000000E+00 -0.00000000000E+00 -0.99286324930E+02  0.99286324930E+02  0.00000000000E+00 0.  1.
         25    2    1    2    0    0  0.58839757251E+02 -0.81640786242E+02  0.94040937608E+02  0.18605734080E+03  0.12508517541E+03 0.  0.
          5    1    3    3  502    0 -0.26975917218E+02 -0.46678907990E+02  0.15176003686E+00  0.54075095858E+02  0.41800000000E+01 0.  1.
         -5    1    3    3    0  502  0.85815674469E+02 -0.34961878251E+02  0.93889177571E+02  0.13198224494E+03  0.41800000000E+01 0.  1.
        -11    1    1    2    0    0 -0.22469889787E+01  0.62574994286E+02 -0.13503234195E+02  0.64054790633E+02  0.00000000000E+00 0.  1.
         11    1    1    2    0    0 -0.56592768272E+02  0.19065791956E+02  0.46991656749E+02  0.75989878586E+02  0.00000000000E+00 0. -1.
</event>
<event>
 7    1  0.2688177E-009  0.1091880E+03  0.7561462E-02  0.1262081E+00
          1   -1    0    0  501    0  0.00000000000E+00  0.00000000000E+00  0.12598183165E+03  0.12598183165E+03  0.00000000000E+00 0. -1.
         -1   -1    0    0    0  501 -0.00000000000E+00 -0.00000000000E+00 -0.11311264861E+03  0.11311264861E+03  0.00000000000E+00 0.  1.
         25    2    1    2    0    0  0.10924872470E+02 -0.42544013696E+02 -0.75022506448E+01  0.13278699849E+03  0.12508699878E+03 0.  0.
          5    1    3    3  502    0 -0.51749721610E+02 -0.35901649255E+02 -0.23955522750E+02  0.67515195150E+02  0.41800000000E+01 0. -1.
         -5    1    3    3    0  502  0.62674594080E+02 -0.66423644412E+01  0.16453272105E+02  0.65271803341E+02  0.41800000000E+01 0. -1.
        -11    1    1    2    0    0  0.28726573638E+02  0.43844225748E+02  0.36084144776E+02  0.63636449214E+02  0.00000000000E+00 0. -1.
         11    1    1    2    0    0 -0.39651446107E+02 -0.13002120516E+01 -0.15712711090E+02  0.42671032558E+02  0.00000000000E+00 0.  1.
</event>
<event>
 7    1  0.2688177E-009  0.9472328E+02  0.7561462E-02  0.1291801E+00
         -1   -1    0    0    0  501 -0.00000000000E+00  0.00000000000E+00  0.45240875085E+02  0.45240875085E+02  0.00000000000E+00 0.  1.
          1   -1    0    0  501    0  0.00000000000E+00 -0.00000000000E+00 -0.37507928435E+03  0.37507928435E+03  0.00000000000E+00 0. -1.
         25    2    1    2    0    0  0.62477915197E+02  0.15363702585E+02 -0.22535034297E+03  0.26564935083E+03  0.12508903738E+03 0.  0.
          5    1    3    3  502    0  0.28073418244E+01  0.21928899767E+02 -0.19847222753E+03  0.19974347377E+03  0.41800000000E+01 0. -1.
         -5    1    3    3    0  502  0.59670573373E+02 -0.65651971825E+01 -0.26878115439E+02  0.65905877054E+02  0.41800000000E+01 0. -1.
        -11    1    1    2    0    0  0.21274152820E+01 -0.38191895617E+02 -0.65456894041E+02  0.75813928562E+02  0.00000000000E+00 0.  1.
         11    1    1    2    0    0 -0.64605330479E+02  0.22828193032E+02 -0.39031172253E+02  0.78856880048E+02  0.00000000000E+00 0. -1.
</event>
<event>
 7    1  0.2688177E-009  0.9700439E+02  0.7561462E-02  0.1286724E+00
          2   -1    0    0  501    0  0.00000000000E+00  0.00000000000E+00  0.22186498378E+03  0.22186498378E+03  0.00000000000E+00 0. -1.
         -2   -1    0    0    0  501 -0.00000000000E+00 -0.00000000000E+00 -0.55623804229E+02  0.55623804229E+02  0.00000000000E+00 0.  1.
         25    2    1    2    0    0 -0.23700519361E+01 -0.11291516828E+02  0.13074035361E+03  0.18131308898E+03  0.12509308804E+03 0.  0.
          5    1    3    3  502    0  0.11374794402E+02 -0.63598989875E+02  0.99518544013E+02  0.11872502038E+03  0.41800000000E+01 0. -1.
         -5    1    3    3    0  502 -0.13744846338E+02  0.52307473047E+02  0.31221809594E+02  0.62588068605E+02  0.41800000000E+01 0. -1.
        -11    1    1    2    0    0 -0.11061299790E+02  0.40974170321E+02  0.45377236175E+02  0.62131542307E+02  0.00000000000E+00 0. -1.
         11    1    1    2    0    0  0.13431351726E+02 -0.29682653493E+02 -0.98764102327E+01  0.34044156718E+02  0.00000000000E+00 0.  1.
</event>
<event>
 7    1  0.3383689E-009  0.2331278E+03  0.7561462E-02  0.1124457E+00
         -2   -1    0    0    0  501 -0.00000000000E+00  0.00000000000E+00  0.38612471139E+02  0.38612471139E+02  0.00000000000E+00 0.  1.
          2   -1    0    0  501    0  0.00000000000E+00 -0.00000000000E+00 -0.14488555884E+04  0.14488555884E+04  0.00000000000E+00 0. -1.
         25    2    1    2    0    0  0.20108258606E+03  0.59928595784E+02 -0.74620671624E+03  0.78517361952E+03  0.12508999326E+03 0.  0.
          5    1    3    3  502    0  0.62175523180E+02  0.82531796589E+02 -0.30678848387E+03  0.32374980983E+03  0.41800000000E+01 0. -1.
         -5    1    3    3    0  502  0.13890706288E+03 -0.22603200805E+02 -0.43941823237E+03  0.46142380969E+03  0.41800000000E+01 0. -1.
        -11    1    1    2    0    0 -0.13776377267E+03 -0.75140773392E+02 -0.53814259981E+03  0.56055548398E+03  0.00000000000E+00 0.  1.
         11    1    1    2    0    0 -0.63318813388E+02  0.15212177608E+02 -0.12589380116E+03  0.14173895600E+03  0.00000000000E+00 0. -1.
</event>
<event>
 7    1  0.2688177E-009  0.1137837E+03  0.7561462E-02  0.1253719E+00
         -2   -1    0    0    0  501 -0.00000000000E+00  0.00000000000E+00  0.71376371741E+02  0.71376371741E+02  0.00000000000E+00 0.  1.
          2   -1    0    0  501    0  0.00000000000E+00 -0.00000000000E+00 -0.21922653573E+03  0.21922653573E+03  0.00000000000E+00 0. -1.
         25    2    1    2    0    0  0.38585189394E+02  0.47548063142E+02 -0.63982067975E+02  0.15330598568E+03  0.12513746472E+03 0.  0.
          5    1    3    3  502    0 -0.23140679773E+02 -0.22120560200E+02  0.10577298149E+02  0.33972958070E+02  0.41800000000E+01 0. -1.
         -5    1    3    3    0  502  0.61725869167E+02  0.69668623342E+02 -0.74559366124E+02  0.11933302761E+03  0.41800000000E+01 0. -1.
        -11    1    1    2    0    0 -0.38687817895E+02 -0.69828117305E+02 -0.42811444977E+02  0.90584397337E+02  0.00000000000E+00 0.  1.
         11    1    1    2    0    0  0.10262850096E+00  0.22280054163E+02 -0.41056651040E+02  0.46712524452E+02  0.00000000000E+00 0. -1.
</event>
<event>
 7    1  0.2688177E-009  0.1213846E+03  0.7561462E-02  0.1240830E+00
         -1   -1    0    0    0  501 -0.00000000000E+00  0.00000000000E+00  0.16966237411E+03  0.16966237411E+03  0.00000000000E+00 0.  1.
          1   -1    0    0  501    0  0.00000000000E+00 -0.00000000000E+00 -0.18875034049E+03  0.18875034049E+03  0.00000000000E+00 0. -1.
         25    2    1    2    0    0 -0.47205900448E+02  0.91931338045E+02  0.86816547569E+02  0.18401849560E+03  0.12508367535E+03 0.  0.
          5    1    3    3  502    0 -0.71523484016E+02  0.75202510384E+02  0.13334917974E+02  0.10472019276E+03  0.41800000000E+01 0.  1.
         -5    1    3    3    0  502  0.24317583568E+02  0.16728827661E+02  0.73481629595E+02  0.79298302841E+02  0.41800000000E+01 0.  1.
        -11    1    1    2    0    0  0.36477945859E+02 -0.32996324236E+02 -0.10332485447E+03  0.11443523714E+03  0.00000000000E+00 0. -1.
         11    1    1    2    0    0  0.10727954589E+02 -0.58935013809E+02 -0.25796594730E+01  0.59958981857E+02  0.00000000000E+00 0.  1.
</event>
<event>
 7    1  0.2688177E-009  0.1658965E+03  0.7561462E-02  0.1182196E+00
          1   -1    0    0  501    0  0.00000000000E+00  0.00000000000E+00  0.16366152180E+03  0.16366152180E+03  0.00000000000E+00 0. -1.
         -1   -1    0    0    0  501 -0.00000000000E+00 -0.00000000000E+00 -0.26786013939E+03  0.26786013939E+03  0.00000000000E+00 0.  1.
         25    2    1    2    0    0  0.29478034171E+02 -0.16228137391E+03 -0.12291623493E+03  0.24074808759E+03  0.12508813714E+03 0.  0.
          5    1    3    3  502    0  0.22310013210E+02 -0.72724941624E+02  0.13479548013E+02  0.77368109956E+02  0.41800000000E+01 0. -1.
         -5    1    3    3    0  502  0.71680209614E+01 -0.89556432289E+02 -0.13639578294E+03  0.16337997764E+03  0.41800000000E+01 0. -1.
        -11    1    1    2    0    0 -0.14498232025E+02  0.41461692815E+02 -0.36483109057E+02  0.57098931245E+02  0.00000000000E+00 0.  1.
         11    1    1    2    0    0 -0.14979802146E+02  0.12081968110E+03  0.55200726398E+02  0.13367464235E+03  0.00000000000E+00 0. -1.
</event>
<event>
 7    1  0.2688177E-009  0.1075651E+03  0.7561462E-02  0.1265146E+00
          1   -1    0    0  501    0  0.00000000000E+00  0.00000000000E+00  0.16832059555E+03  0.16832059555E+03  0.00000000000E+00 0. -1.
         -1   -1    0    0    0  501 -0.00000000000E+00 -0.00000000000E+00 -0.10061764989E+03  0.10061764989E+03  0.00000000000E+00 0.  1.
         25    2    1    2    0    0 -0.47862177308E+02 -0.52398969051E+02  0.50664063144E+02  0.15248016176E+03  0.12508761914E+03 0.  0.
          5    1    3    3  502    0 -0.33962070457E+02 -0.84534791834E+02  0.67446185141E+02  0.11342845124E+03  0.41800000000E+01 0. -1.
         -5    1    3    3    0  502 -0.13900106851E+02  0.32135822783E+02 -0.16782121996E+02  0.39051710527E+02  0.41800000000E+01 0. -1.
        -11    1    1    2    0    0  0.53424901549E+02  0.22017152677E+02 -0.26097501293E+02  0.63403901231E+02  0.00000000000E+00 0.  1.
         11    1    1    2    0    0 -0.55627242405E+01  0.30381816373E+02  0.43136383812E+02  0.53054182451E+02  0.00000000000E+00 0. -1.
</event>
<event>
 7    1  0.2688177E-009  0.6923908E+02  0.7561462E-02  0.1362700E+00
         -4   -1    0    0    0  501 -0.00000000000E+00  0.00000000000E+00  0.31859370090E+03  0.31859370090E+03  0.00000000000E+00 0.  1.
          4   -1    0    0  501    0  0.00000000000E+00 -0.00000000000E+00 -0.47840192537E+02  0.47840192537E+02  0.00000000000E+00 0. -1.
         25    2    1    2    0    0  0.51778817785E+02  0.30014582441E+02  0.15681023551E+03  0.20933028507E+03  0.12509115539E+03 0.  0.
          5    1    3    3  502    0  0.41978736747E+02  0.44056237492E+02  0.10417487302E+02  0.61880229819E+02  0.41800000000E+01 0. -1.
         -5    1    3    3    0  502  0.98000810381E+01 -0.14041655052E+02  0.14639274821E+03  0.14745005525E+03  0.41800000000E+01 0. -1.
        -11    1    1    2    0    0 -0.34218708605E+02 -0.19378901322E+02  0.12688217418E+03  0.13283654602E+03  0.00000000000E+00 0.  1.
         11    1    1    2    0    0 -0.17560109180E+02 -0.10635681119E+02 -0.12938901328E+02  0.24267062345E+02  0.00000000000E+00 0. -1.
</event>
<event>
 7    1  0.2688177E-009  0.1932182E+03  0.7561462E-02  0.1155590E+00
          1   -1    0    0  501    0  0.00000000000E+00  0.00000000000E+00  0.84264855037E+03  0.84264855037E+03  0.00000000000E+00 0. -1.
         -1   -1    0    0    0  501 -0.00000000000E+00 -0.00000000000E+00 -0.51338822570E+02  0.51338822570E+02  0.00000000000E+00 0.  1.
         25    2    1    2    0    0  0.14347066032E+03 -0.10366170581E+03  0.37411042708E+03  0.43236157921E+03  0.12509334076E+03 0.  0.
          5    1    3    3  502    0  0.13548479418E+02 -0.45322705528E+02  0.21648439658E+02  0.52190384847E+02  0.41800000000E+01 0. -1.
         -5    1    3    3    0  502  0.12992218091E+03 -0.58339000285E+02  0.35246198742E+03  0.38017119436E+03  0.41800000000E+01 0. -1.
        -11    1    1    2    0    0 -0.37550238732E+02 -0.12203556248E+02  0.65478154572E+02  0.76461336243E+02  0.00000000000E+00 0.  1.
         11    1    1    2    0    0 -0.10592042159E+03  0.11586526206E+03  0.35172114614E+03  0.38516445748E+03  0.00000000000E+00 0. -1.
</event>
<event>
 7    1  0.2688177E-009  0.1276615E+03  0.7561462E-02  0.1230968E+00
         -2   -1    0    0    0  501 -0.00000000000E+00  0.00000000000E+00  0.86408935993E+02  0.86408935993E+02  0.00000000000E+00 0.  1.
          2   -1    0    0  501    0  0.00000000000E+00 -0.00000000000E+00 -0.32969365374E+03  0.32969365374E+03  0.00000000000E+00 0. -1.
         25    2    1    2    0    0  0.27755567808E+02 -0.12265176748E+03 -0.87847136389E+02  0.19793689005E+03  0.12509222781E+03 0.  0.
          5    1    3    3  502    0  0.31227949089E+01 -0.12204015728E+02  0.31035190129E+02  0.33754188989E+02  0.41800000000E+01 0. -1.
         -5    1    3    3    0  502  0.24632772899E+02 -0.11044775175E+03 -0.11888232652E+03  0.16418270106E+03  0.41800000000E+01 0. -1.
        -11    1    1    2    0    0 -0.33556628341E+02  0.10444702840E+03 -0.68907021955E+02  0.12955078819E+03  0.00000000000E+00 0. -1.
         11    1    1    2    0    0  0.58010605338E+01  0.18204739085E+02 -0.86530559406E+02  0.88614911497E+02  0.00000000000E+00 0.  1.
</event>
<event>
 6    1  0.2688177E-009  0.1046914E+03  0.7561462E-02  0.1270729E+00
          2   -1    0    0  501    0  0.00000000000E+00  0.00000000000E+00  0.73300526597E+02  0.73300526597E+02  0.00000000000E+00 0. -1.
         -2   -1    0    0    0  501 -0.00000000000E+00 -0.00000000000E+00 -0.23142073488E+03  0.23142073488E+03  0.00000000000E+00 0.  1.
          5    1    1    2  502    0  0.79796411114E-02 -0.46627383684E+02 -0.33499076471E+02  0.57565384541E+02  0.41800000000E+01 0.  1.
         -5    1    1    2    0  502 -0.36545397290E+02  0.61625809353E+02  0.19969319690E+02  0.74495319118E+02  0.41800000000E+01 0.  1.
        -11    1    1    2    0    0  0.41366291653E+02  0.26431206123E+02 -0.54291962976E+02  0.73194234651E+02  0.00000000000E+00 0. -1.
         11    1    1    2    0    0 -0.48288740040E+01 -0.41429631793E+02 -0.90298488525E+02  0.99466323168E+02  0.00000000000E+00 0.  1.
</event>
<event>
 7    1  0.2688177E-009  0.1276208E+03  0.7561462E-02  0.1231029E+00
          2   -1    0    0  501    0  0.00000000000E+00  0.00000000000E+00  0.30685470983E+03  0.30685470983E+03  0.00000000000E+00 0. -1.
         -2   -1    0    0    0  501 -0.00000000000E+00 -0.00000000000E+00 -0.83891579677E+02  0.83891579677E+02  0.00000000000E+00 0.  1.
         25    2    1    2    0    0 -0.18054110004E+02 -0.10884520291E+03  0.16584690010E+03  0.23521557995E+03  0.12509174910E+03 0.  0.
          5    1    3    3  502    0  0.28104800070E+02 -0.39087450631E+01 -0.53118192287E+01  0.29169262906E+02  0.41800000000E+01 0. -1.
         -5    1    3    3    0  502 -0.46158910074E+02 -0.10493645784E+03  0.17115871933E+03  0.20604631704E+03  0.41800000000E+01 0. -1.
        -11    1    1    2    0    0  0.17122752437E+02  0.47502690669E+02 -0.22281837957E+02  0.55192160445E+02  0.00000000000E+00 0.  1.
         11    1    1    2    0    0  0.93135756682E+00  0.61342512239E+02  0.79398068010E+02  0.10033854911E+03  0.00000000000E+00 0. -1.
</event>
<event>
 7    1  0.2688177E-009  0.1160974E+03  0.7561462E-02  0.1249678E+00
          2   -1    0    0  501    0  0.00000000000E+00  0.00000000000E+00  0.65308185864E+03  0.65308185864E+03  0.00000000000E+00 0. -1.
         -2   -1    0    0    0  501 -0.00000000000E+00 -0.00000000000E+00 -0.29719097787E+02  0.29719097787E+02  0.00000000000E+00 0.  1.
         25    2    1    2    0    0 -0.60911137260E+02 -0.22595323323E+02  0.48472240697E+03  0.50480475314E+03  0.12510520250E+03 0.  0.
          5    1    3    3  502    0 -0.43947854560E+02  0.44291042492E+02  0.32184396455E+03  0.32786295961E+03  0.41800000000E+01 0.  1.
         -5    1    3    3    0  502 -0.16963282700E+02 -0.66886365815E+02  0.16287844242E+03  0.17694179353E+03  0.41800000000E+01 0.  1.
        -11    1    1    2    0    0 -0.14222024017E+02  0.21020938854E+02  0.76121322198E+02  0.80240896870E+02  0.00000000000E+00 0. -1.
         11    1    1    2    0    0  0.75133161277E+02  0.15743844693E+01  0.62519031679E+02  0.97755306414E+02  0.00000000000E+00 0.  1.
</event>
<event>
 7    1  0.2688177E-009  0.2716629E+03  0.7561462E-02  0.1100332E+00
         -2   -1    0    0    0  501 -0.00000000000E+00  0.00000000000E+00  0.26244340638E+03  0.26244340638E+03  0.00000000000E+00 0.  1.
          2   -1    0    0  501    0  0.00000000000E+00 -0.00000000000E+00 -0.44204622762E+03  0.44204622762E+03  0.00000000000E+00 0. -1.
         25    2    1    2    0    0 -0.88510005740E+01 -0.27086798006E+03 -0.27186697638E+03  0.40374419743E+03  0.12509964540E+03 0.  0.
          5    1    3    3  502    0 -0.71669626968E+01 -0.25990920279E+03 -0.28516807985E+03  0.38593064820E+03  0.41800000000E+01 0.  1.
         -5    1    3    3    0  502 -0.16840378772E+01 -0.10958777263E+02  0.13301103471E+02  0.17813549232E+02  0.41800000000E+01 0.  1.
        -11    1    1    2    0    0  0.51923923966E+01  0.24699471146E+02 -0.17984785858E+02  0.30991568790E+02  0.00000000000E+00 0. -1.
         11    1    1    2    0    0  0.36586081774E+01  0.24616850891E+03  0.11024894100E+03  0.26975386778E+03  0.00000000000E+00 0.  1.
</event>
<event>
 7    1  0.2688177E-009  0.1066591E+03  0.7561462E-02  0.1266885E+00
          2   -1    0    0  501    0  0.00000000000E+00  0.00000000000E+00  0.58953084725E+03  0.58953084725E+03  0.00000000000E+00 0. -1.
         -2   -1    0    0    0  501 -0.00000000000E+00 -0.00000000000E+00 -0.22517974445E+02  0.22517974445E+02  0.00000000000E+00 0.  1.
         25    2    1    2    0    0  0.58318084521E+01 -0.31093486547E+02  0.26307802698E+03  0.29301514929E+03  0.12508802715E+03 0.  0.
          5    1    3    3  502    0 -0.55901763900E+02  0.52165627605E+01  0.97983395499E+02  0.11300636233E+03  0.41800000000E+01 0. -1.
         -5    1    3    3    0  502  0.61733572353E+02 -0.36310049308E+02  0.16509463148E+03  0.18000878695E+03  0.41800000000E+01 0. -1.
        -11    1    1    2    0    0  0.33233348289E+02  0.32090695519E+02  0.86000720958E+02  0.97623727560E+02  0.00000000000E+00 0.  1.
         11    1    1    2    0    0 -0.39065156741E+02 -0.99720897204E+00  0.21793412486E+03  0.22140994484E+03  0.00000000000E+00 0. -1.
</event>
<event>
 7    1  0.2688177E-009  0.1369218E+03  0.7561462E-02  0.1217532E+00
          2   -1    0    0  501    0  0.00000000000E+00  0.00000000000E+00  0.12941568738E+03  0.12941568738E+03  0.00000000000E+00 0.  1.
         -2   -1    0    0    0  501 -0.00000000000E+00 -0.00000000000E+00 -0.19240014226E+03  0.19240014226E+03  0.00000000000E+00 0. -1.
         25    2    1    2    0    0  0.82087766863E+02 -0.79436075213E+02 -0.40733615224E+02  0.17422797861E+03  0.12509064556E+03 0.  0.
          5    1    3    3  502    0  0.31701292976E+02 -0.77010046309E+02 -0.75769506168E+02  0.11266769579E+03  0.41800000000E+01 0. -1.
         -5    1    3    3    0  502  0.50386473887E+02 -0.24260289039E+01  0.35035890945E+02  0.61560282824E+02  0.41800000000E+01 0. -1.
        -11    1    1    2    0    0 -0.90240018758E+02  0.38514185200E+02  0.41640450974E+01  0.98203577932E+02  0.00000000000E+00 0. -1.
         11    1    1    2    0    0  0.81522518955E+01  0.40921890013E+02 -0.26414884754E+02  0.49384273102E+02  0.00000000000E+00 0.  1.
</event>
<event>
 7    1  0.2688177E-009  0.1256770E+03  0.7561462E-02  0.1234015E+00
         -2   -1    0    0    0  501 -0.00000000000E+00  0.00000000000E+00  0.15576537235E+03  0.15576537235E+03  0.00000000000E+00 0.  1.
          2   -1    0    0  501    0  0.00000000000E+00 -0.00000000000E+00 -0.21103458705E+03  0.21103458705E+03  0.00000000000E+00 0. -1.
         25    2    1    2    0    0  0.66417235859E+02 -0.67887263317E+01 -0.15952617905E+03  0.21343511765E+03  0.12509441081E+03 0.  0.
          5    1    3    3  502    0  0.71389769283E+02 -0.56798714227E+02 -0.10522794317E+03  0.13933049027E+03  0.41800000000E+01 0. -1.
         -5    1    3    3    0  502 -0.49725334239E+01  0.50009987896E+02 -0.54298235885E+02  0.74104627373E+02  0.41800000000E+01 0. -1.
        -11    1    1    2    0    0  0.66775482403E+00  0.36303239111E+02  0.19150759731E+02  0.41050245611E+02  0.00000000000E+00 0.  1.
         11    1    1    2    0    0 -0.67084990683E+02 -0.29514512779E+02  0.85106204624E+02  0.11231459614E+03  0.00000000000E+00 0. -1.
</event>
<event>
 7    1  0.2688177E-009  0.9556876E+02  0.7561462E-02  0.1289900E+00
         -2   -1    0    0    0  501 -0.00000000000E+00  0.00000000000E+00  0.48230918246E+02  0.48230918246E+02  0.00000000000E+00 0.  1.
          2   -1    0    0  501    0  0.00000000000E+00 -0.00000000000E+00 -0.40942738569E+03  0.40942738569E+03  0.00000000000E+00 0. -1.
         25    2    1    2    0    0 -0.59503611900E+02 -0.60230897240E+02 -0.24039533465E+03  0.28391272695E+03  0.12509228112E+03 0.  0.
          5    1    3    3  502    0 -0.36742745342E+02 -0.42347516549E+02 -0.24750883071E+03  0.25381378050E+03  0.41800000000E+01 0. -1.
         -5    1    3    3    0  502 -0.22760866557E+02 -0.17883380691E+02  0.71134960626E+01  0.30098946454E+02  0.41800000000E+01 0. -1.
        -11    1    1    2    0    0  0.31379957274E+01  0.47860208446E+02 -0.10256500227E+03  0.11322555480E+03  0.00000000000E+00 0. -1.
         11    1    1    2    0    0  0.56365616172E+02  0.12370688794E+02 -0.18236130526E+02  0.60520022177E+02  0.00000000000E+00 0.  1.
</event>
<event>
 7    1  0.2688177E-009  0.1212363E+03  0.7561462E-02  0.1241071E+00
          1   -1    0    0  501    0  0.00000000000E+00  0.00000000000E+00  0.78349204559E+02  0.78349204559E+02  0.00000000000E+00 0. -1.
         -1   -1    0    0    0  501 -0.00000000000E+00 -0.00000000000E+00 -0.26817852175E+03  0.26817852175E+03  0.00000000000E+00 0.  1.
         25    2    1    2    0    0  0.54066706667E+01 -0.90966764047E+02 -0.63398442201E+02  0.16724487131E+03  0.12508916922E+03 0.  0.
          5    1    3    3  502    0 -0.32718915996E+02 -0.30139736114E+02 -0.81631722577E+02  0.93059882269E+02  0.41800000000E+01 0.  1.
         -5    1    3    3    0  502  0.38125586663E+02 -0.60827027933E+02  0.18233280376E+02  0.74184989039E+02  0.41800000000E+01 0.  1.
        -11    1    1    2    0    0  0.34807085413E+02  0.11221658506E+02 -0.48561321464E+02  0.60791946481E+02  0.00000000000E+00 0. -1.
         11    1    1    2    0    0 -0.40213756080E+02  0.79745105541E+02 -0.77869553531E+02  0.11849090852E+03  0.00000000000E+00 0.  1.
</event>
<event>
 7    1  0.2688177E-009  0.1050200E+03  0.7561462E-02  0.1270080E+00
         -2   -1    0    0    0  501 -0.00000000000E+00  0.00000000000E+00  0.12410077664E+03  0.12410077664E+03  0.00000000000E+00 0.  1.
          2   -1    0    0  501    0  0.00000000000E+00 -0.00000000000E+00 -0.12623654613E+03  0.12623654613E+03  0.00000000000E+00 0. -1.
         25    2    1    2    0    0  0.41792707281E+02 -0.24561995343E+02  0.39457031565E+02  0.13983532106E+03  0.12508851937E+03 0.  0.
          5    1    3    3  502    0  0.14976652006E+02  0.50434858138E+02  0.51996780964E+01  0.53032858428E+02  0.41800000000E+01 0. -1.
         -5    1    3    3    0  502  0.26816055276E+02 -0.74996853481E+02  0.34257353469E+02  0.86802462634E+02  0.41800000000E+01 0. -1.
        -11    1    1    2    0    0 -0.39209747256E+01 -0.19220718023E+02  0.18569160505E+02  0.27011548752E+02  0.00000000000E+00 0.  1.
         11    1    1    2    0    0 -0.37871732556E+02  0.43782713366E+02 -0.60161961559E+02  0.83490452958E+02  0.00000000000E+00 0. -1.
</event>
<event>
 7    1  0.2688177E-009  0.1420880E+03  0.7561462E-02  0.1210547E+00
         -2   -1    0    0    0  501 -0.00000000000E+00  0.00000000000E+00  0.98872392386E+02  0.98872392386E+02  0.00000000000E+00 0.  1.
          2   -1    0    0  501    0  0.00000000000E+00 -0.00000000000E+00 -0.26865437732E+03  0.26865437732E+03  0.00000000000E+00 0. -1.
         25    2    1    2    0    0  0.11565411431E+02  0.11625488514E+03 -0.56297924823E+02  0.18018098591E+03  0.12508706682E+03 0.  0.
          5    1    3    3  502    0 -0.44545912837E+02  0.87098862309E+02 -0.63032194724E+02  0.11645205081E+03  0.41800000000E+01 0.  1.
         -5    1    3    3    0  502  0.56111324267E+02  0.29156022828E+02  0.67342699005E+01  0.63728935102E+02  0.41800000000E+01 0.  1.
        -11    1    1    2    0    0  0.24278305794E+01 -0.10472719931E+03 -0.40776276016E+02  0.11241167787E+03  0.00000000000E+00 0.  1.
         11    1    1    2    0    0 -0.13993242010E+02 -0.11527685831E+02 -0.72707784094E+02  0.74934105923E+02  0.00000000000E+00 0. -1.
</event>
<event>
 7    1  0.2688177E-009  0.1907434E+03  0.7561462E-02  0.1157793E+00
         -2   -1    0    0    0  501 -0.00000000000E+00  0.00000000000E+00  0.10457493756E+03  0.10457493756E+03  0.00000000000E+00 0.  1.
          2   -1    0    0  501    0  0.00000000000E+00 -0.00000000000E+00 -0.38733014318E+03  0.38733014318E+03  0.00000000000E+00 0. -1.
         25    2    1    2    0    0 -0.32021032268E+02  0.16291605741E+03 -0.18680503000E+03  0.27948247309E+03  0.12508934912E+03 0.  0.
          5    1    3    3  502    0  0.30778744123E+02 -0.17592735532E+01 -0.35087938123E+02  0.46894156725E+02  0.41800000000E+01 0.  1.
         -5    1    3    3    0  502 -0.62799776390E+02  0.16467533097E+03 -0.15171709188E+03  0.23258831637E+03  0.41800000000E+01 0.  1.
        -11    1    1    2    0    0  0.44330933934E+02 -0.92207411854E+02 -0.13640518391E+02  0.10321580425E+03  0.00000000000E+00 0.  1.
         11    1    1    2    0    0 -0.12309901666E+02 -0.70708645559E+02 -0.82309657227E+02  0.10920680340E+03  0.00000000000E+00 0. -1.
</event>
<event>
 7    1  0.2688177E-009  0.1794132E+03  0.7561462E-02  0.1168372E+00
          2   -1    0    0  501    0  0.00000000000E+00  0.00000000000E+00  0.22446098546E+03  0.22446098546E+03  0.00000000000E+00 0. -1.
         -2   -1    0    0    0  501 -0.00000000000E+00 -0.00000000000E+00 -0.15945631529E+03  0.15945631529E+03  0.00000000000E+00 0.  1.
         25    2    1    2    0    0  0.20680358203E+02  0.15354506271E+03  0.39636672045E+02  0.20302687106E+03  0.12508029863E+03 0.  0.
          5    1    3    3  502    0  0.71086631620E+02  0.82331415528E+02  0.47133590511E+01  0.10895622668E+03  0.41800000000E+01 0.  1.
         -5    1    3    3    0  502 -0.50406273417E+02  0.71213647183E+02  0.34923312994E+02  0.94070644387E+02  0.41800000000E+01 0.  1.
        -11    1    1    2    0    0  0.15840089611E+02 -0.63709418880E+02  0.47980516837E+02  0.81313765679E+02  0.00000000000E+00 0. -1.
         11    1    1    2    0    0 -0.36520447813E+02 -0.89835643830E+02 -0.22612518714E+02  0.99576664001E+02  0.00000000000E+00 0.  1.
</event>
<event>
 7    1  0.2688177E-009  0.1247478E+03  0.7561462E-02  0.1235464E+00
         -1   -1    0    0    0  501 -0.00000000000E+00  0.00000000000E+00  0.89852887132E+03  0.89852887132E+03  0.00000000000E+00 0.  1.
          1   -1    0    0  501    0  0.00000000000E+00 -0.00000000000E+00 -0.18626289517E+02  0.18626289517E+02  0.00000000000E+00 0. -1.
         25    2    1    2    0    0  0.36756877883E+02  0.59503691150E+02  0.52226306059E+03  0.54156901280E+03  0.12508610567E+03 0.  0.
          5    1    3    3  502    0 -0.26844817591E+02  0.65510844656E+02  0.18189226754E+03  0.19522956843E+03  0.41800000000E+01 0. -1.
         -5    1    3    3    0  502  0.63601695474E+02 -0.60071535059E+01  0.34037079306E+03  0.34633944437E+03  0.41800000000E+01 0. -1.
        -11    1    1    2    0    0  0.27501193874E+02 -0.79275627122E+00  0.77701079381E+02  0.82428161837E+02  0.00000000000E+00 0. -1.
         11    1    1    2    0    0 -0.64258071756E+02 -0.58710934879E+02  0.27993844183E+03  0.29315798620E+03  0.00000000000E+00 0.  1.
</event>
<event>
 7    1  0.2688177E-009  0.1516127E+03  0.7561462E-02  0.1198505E+00
          1   -1    0    0  501    0  0.00000000000E+00  0.00000000000E+00  0.10048010960E+03  0.10048010960E+03  0.00000000000E+00 0. -1.
         -1   -1    0    0    0  501 -0.00000000000E+00 -0.00000000000E+00 -0.27141286905E+03  0.27141286905E+03  0.00000000000E+00 0.  1.
         25    2    1    2    0    0 -0.40058659890E+02  0.10691837229E+03 -0.14534989106E+03  0.22318308977E+03  0.12509143122E+03 0.  0.
          5    1    3    3  502    0 -0.52324912383E+02  0.32844361534E+01 -0.91836669479E+02  0.10583066776E+03  0.41800000000E+01 0.  1.
         -5    1    3    3    0  502  0.12266252494E+02  0.10363393613E+03 -0.53513221578E+02  0.11735242201E+03  0.41800000000E+01 0.  1.
        -11    1    1    2    0    0  0.66804106402E+02 -0.50468479309E+02 -0.99172201136E+01  0.84310184976E+02  0.00000000000E+00 0. -1.
         11    1    1    2    0    0 -0.26745446512E+02 -0.56449892979E+02 -0.15665648277E+02  0.64399703900E+02  0.00000000000E+00 0.  1.
</event>
<event>
 7    1  0.2688177E-009  0.1190874E+03  0.7561462E-02  0.1244610E+00
         -2   -1    0    0    0  501 -0.00000000000E+00  0.00000000000E+00  0.22345992925E+02  0.22345992925E+02  0.00000000000E+00 0.  1.
          2   -1    0    0  501    0  0.00000000000E+00 -0.00000000000E+00 -0.14592243317E+04  0.14592243317E+04  0.00000000000E+00 0. -1.
         25    2    1    2    0    0 -0.58276280272E+00  0.10263218269E+03 -0.11774361035E+04  0.11885020564E+04  0.12509059009E+03 0.  0.
          5    1    3    3  502    0 -0.13035047557E+02 -0.12169534494E+02 -0.29218093344E+02  0.34484480760E+02  0.41800000000E+01 0. -1.
         -5    1    3    3    0  502  0.12452284754E+02  0.11480171719E+03 -0.11482180101E+04  0.11540175756E+04  0.41800000000E+01 0. -1.
        -11    1    1    2    0    0 -0.88122630918E+01 -0.38809151698E+02 -0.18958340635E+02  0.44082024862E+02  0.00000000000E+00 0.  1.
         11    1    1    2    0    0  0.93950258945E+01 -0.63823030995E+02 -0.24048389464E+03  0.24898624335E+03  0.00000000000E+00 0. -1.
</event>
<event>
 7    1  0.2688177E-009  0.3791506E+02  0.7561462E-02  0.1524140E+00
          2   -1    0    0  501    0  0.00000000000E+00  0.00000000000E+00  0.42254789678E+03  0.42254789678E+03  0.00000000000E+00 0. -1.
         -2   -1    0    0    0  501 -0.00000000000E+00 -0.00000000000E+00 -0.28217881698E+02  0.28217881698E+02  0.00000000000E+00 0.  1.
         25    2    1    2    0    0  0.36080470117E+01  0.15474524311E+02  0.19798864299E+03  0.23473402943E+03  0.12509229757E+03 0.  0.
          5    1    3    3  502    0  0.11063496903E+02  0.63763022649E+01  0.21400559707E+03  0.21442697165E+03  0.41800000000E+01 0. -1.
         -5    1    3    3    0  502 -0.74554498910E+01  0.90982220458E+01 -0.16016954079E+02  0.20307057774E+02  0.41800000000E+01 0. -1.
        -11    1    1    2    0    0  0.75578118209E+01  0.15358872840E+02  0.14971705582E+00  0.17118350085E+02  0.00000000000E+00 0.  1.
         11    1    1    2    0    0 -0.11165858833E+02 -0.30833397151E+02  0.19619165503E+03  0.19891339896E+03  0.00000000000E+00 0. -1.
</event>
<event>
 7    1  0.2688177E-009  0.1200871E+03  0.7561462E-02  0.1242953E+00
          4   -1    0    0  501    0  0.00000000000E+00  0.00000000000E+00  0.80822685682E+02  0.80822685682E+02  0.00000000000E+00 0. -1.
         -4   -1    0    0    0  501 -0.00000000000E+00 -0.00000000000E+00 -0.21402035052E+03  0.21402035052E+03  0.00000000000E+00 0.  1.
         25    2    1    2    0    0 -0.67244239658E+02 -0.29410364744E+02 -0.78756976816E+02  0.16503616116E+03  0.12509003066E+03 0.  0.
          5    1    3    3  502    0  0.42625491777E+01  0.42862580936E+02 -0.23728720643E+02  0.49354784503E+02  0.41800000000E+01 0.  1.
         -5    1    3    3    0  502 -0.71506788835E+02 -0.72272945680E+02 -0.55028256173E+02  0.11568137665E+03  0.41800000000E+01 0.  1.
        -11    1    1    2    0    0  0.28805696942E+02  0.45191060980E+02 -0.67558956497E+02  0.86233478254E+02  0.00000000000E+00 0.  1.
         11    1    1    2    0    0  0.38438542716E+02 -0.15780696236E+02  0.13118268479E+02  0.43573396789E+02  0.00000000000E+00 0. -1.
</event>
<event>
 7    1  0.2688177E-009  0.1666205E+03  0.7561462E-02  0.1181419E+00
          1   -1    0    0  501    0  0.00000000000E+00  0.00000000000E+00  0.26535999243E+03  0.26535999243E+03  0.00000000000E+00 0. -1.
         -1   -1    0    0    0  501 -0.00000000000E+00 -0.00000000000E+00 -0.11747199973E+03  0.11747199973E+03  0.00000000000E+00 0.  1.
         25    2    1    2    0    0  0.10545782358E+02  0.12603026261E+03  0.13888484699E+03  0.22567472146E+03  0.12508092806E+03 0.  0.
          5    1    3    3  502    0  0.65587121721E+02  0.50576933557E+02  0.79749187381E+02  0.11505260550E+03  0.41800000000E+01 0. -1.
         -5    1    3    3    0  502 -0.55041339362E+02  0.75453329049E+02  0.59135659611E+02  0.11062211597E+03  0.41800000000E+01 0. -1.
        -11    1    1    2    0    0 -0.49975131708E+02 -0.92185240957E+02  0.37153041227E+01  0.10492585918E+03  0.00000000000E+00 0. -1.
         11    1    1    2    0    0  0.39429349350E+02 -0.33845021648E+02  0.52878415879E+01  0.52231411518E+02  0.00000000000E+00 0.  1.
</event>
<event>
 7    1  0.2688177E-009  0.1130574E+03  0.7561462E-02  0.1255011E+00
          2   -1    0    0  501    0  0.00000000000E+00  0.00000000000E+00  0.44911625059E+03  0.44911625059E+03  0.00000000000E+00 0. -1.
         -2   -1    0    0    0  501 -0.00000000000E+00 -0.00000000000E+00 -0.31864575537E+02  0.31864575537E+02  0.00000000000E+00 0.  1.
         25    2    1    2    0    0 -0.49410161554E+02  0.13663035387E+02  0.21067236217E+03  0.25031661917E+03  0.12509005975E+03 0.  0.
          5    1    3    3  502    0  0.19919678798E+02 -0.38200931835E+02  0.40208280808E+02  0.59078617469E+02  0.41800000000E+01 0.  1.
         -5    1    3    3    0  502 -0.69329840351E+02  0.51863967222E+02  0.17046408136E+03  0.19123800170E+03  0.41800000000E+01 0.  1.
        -11    1    1    2    0    0 -0.22879172283E+02 -0.29833632584E+01  0.91342831473E+02  0.94211834937E+02  0.00000000000E+00 0. -1.
         11    1    1    2    0    0  0.72289333836E+02 -0.10679672129E+02  0.11523648141E+03  0.13645237202E+03  0.00000000000E+00 0.  1.
</event>
<event>
 7    1  0.2688177E-009  0.1015277E+03  0.7561462E-02  0.1277116E+00
          2   -1    0    0  501    0  0.00000000000E+00  0.00000000000E+00  0.11960808537E+03  0.11960808537E+03  0.00000000000E+00 0.  1.
         -2   -1    0    0    0  501 -0.00000000000E+00 -0.00000000000E+00 -0.18773971447E+03  0.18773971447E+03  0.00000000000E+00 0. -1.
         25    2    1    2    0    0  0.65762183028E+02  0.18738198107E+02  0.41459566051E+02  0.14846530502E+03  0.12508903386E+03 0.  0.
          5    1    3    3  502    0  0.52872273566E+02 -0.20271950731E+02 -0.31276310795E+02  0.64823678663E+02  0.41800000000E+01 0.  1.
         -5    1    3    3    0  502  0.12889909462E+02  0.39010148838E+02  0.72735876847E+02  0.83641626353E+02  0.41800000000E+01 0.  1.
        -11    1    1    2    0    0 -0.39134073407E+01 -0.39534646979E+02 -0.12025978707E+02  0.41508158628E+02  0.00000000000E+00 0.  1.
         11    1    1    2    0    0 -0.61848775687E+02  0.20796448872E+02 -0.97565216440E+02  0.11737433620E+03  0.00000000000E+00 0. -1.
</event>
<event>
 7    1  0.2688177E-009  0.9210600E+02  0.7561462E-02  0.1297830E+00
         -1   -1    0    0    0  501 -0.00000000000E+00  0.00000000000E+00  0.33558501053E+02  0.33558501053E+02  0.00000000000E+00 0.  1.
          1   -1    0    0  501    0  0.00000000000E+00 -0.00000000000E+00 -0.48475269322E+03  0.48475269322E+03  0.00000000000E+00 0. -1.
         25    2    1    2    0    0 -0.52337647251E+02  0.16693490369E+01 -0.32181356202E+03  0.34921858589E+03  0.12509051116E+03 0.  0.
          5    1    3    3  502    0  0.21811673426E+02 -0.26717189763E+02 -0.20494680096E+03  0.20787068324E+03  0.41800000000E+01 0.  1.
         -5    1    3    3    0  502 -0.74149320678E+02  0.28386538800E+02 -0.11686676106E+03  0.14134790265E+03  0.41800000000E+01 0.  1.
        -11    1    1    2    0    0  0.38668685096E+02 -0.22730348417E+02 -0.85264063949E+01  0.45657809323E+02  0.00000000000E+00 0.  1.
         11    1    1    2    0    0  0.13668962155E+02  0.21060999380E+02 -0.12085422375E+03  0.12343479906E+03  0.00000000000E+00 0. -1.
</event>
<event>
 7    1  0.2688177E-009  0.9316334E+02  0.7561462E-02  0.1295367E+00
         -1   -1    0    0    0  501 -0.00000000000E+00  0.00000000000E+00  0.12591558588E+03  0.12591558588E+03  0.00000000000E+00 0.  1.
          1   -1    0    0  501    0  0.00000000000E+00 -0.00000000000E+00 -0.12248939376E+03  0.12248939376E+03  0.00000000000E+00 0. -1.
         25    2    1    2    0    0 -0.38156286906E+02  0.45997849314E+02 -0.36281154888E+01  0.13868014498E+03  0.12508922823E+03 0.  0.
          5    1    3    3  502    0  0.19513897469E+02 -0.26373972888E+02 -0.27508058425E+02  0.43017953446E+02  0.41800000000E+01 0.  1.
         -5    1    3    3    0  502 -0.57670184375E+02  0.72371822202E+02  0.23879942936E+02  0.95662191535E+02  0.41800000000E+01 0.  1.
        -11    1    1    2    0    0  0.25002422350E+02 -0.37101505082E+02 -0.40030678981E+02  0.60034140807E+02  0.00000000000E+00 0. -1.
         11    1    1    2    0    0  0.13153864556E+02 -0.88963442315E+01  0.47084986586E+02  0.49690693850E+02  0.00000000000E+00 0.  1.
</event>
<event>
 7    1  0.2688177E-009  0.1100099E+03  0.7561462E-02  0.1260552E+00
          2   -1    0    0  501    0  0.00000000000E+00  0.00000000000E+00  0.71134943874E+03  0.71134943874E+03  0.00000000000E+00 0. -1.
         -2   -1    0    0    0  501 -0.00000000000E+00 -0.00000000000E+00 -0.25455674913E+02  0.25455674913E+02  0.00000000000E+00 0.  1.
         25    2    1    2    0    0  0.64618042295E+02 -0.39628327695E+02  0.30269811435E+03  0.33618391265E+03  0.12509028319E+03 0.  0.
          5    1    3    3  502    0  0.20743844200E+02  0.28034738756E+02  0.21140158114E+03  0.21429968399E+03  0.41800000000E+01 0.  1.
         -5    1    3    3    0  502  0.43874198095E+02 -0.67663066451E+02  0.91296533212E+02  0.12188422866E+03  0.41800000000E+01 0.  1.
        -11    1    1    2    0    0 -0.18173441451E+02 -0.20999531751E+02  0.37932658956E+02  0.47012135916E+02  0.00000000000E+00 0.  1.
         11    1    1    2    0    0 -0.46444600844E+02  0.60627859446E+02  0.34526299052E+03  0.35360906509E+03  0.00000000000E+00 0. -1.
</event>
<event>
 7    1  0.2688177E-009  0.2433484E+03  0.7561462E-02  0.1117582E+00
         -2   -1    0    0    0  501 -0.00000000000E+00  0.00000000000E+00  0.74379443797E+02  0.74379443797E+02  0.00000000000E+00 0.  1.
          2   -1    0    0  501    0  0.00000000000E+00 -0.00000000000E+00 -0.90954765866E+03  0.90954765866E+03  0.00000000000E+00 0. -1.
         25    2    1    2    0    0  0.37728723392E+02  0.23098563333E+03 -0.48795976570E+03  0.55544846630E+03  0.12506177034E+03 0.  0.
          5    1    3    3  502    0  0.47075872948E+02  0.16710214985E+03 -0.44526898691E+03  0.47793431495E+03  0.41800000000E+01 0.  1.
         -5    1    3    3    0  502 -0.93471495563E+01  0.63883483482E+02 -0.42690778785E+02  0.77514151353E+02  0.41800000000E+01 0.  1.
        -11    1    1    2    0    0 -0.27769018683E+02 -0.13948393795E+02 -0.67434308125E+02  0.74249996636E+02  0.00000000000E+00 0. -1.
         11    1    1    2    0    0 -0.99597047082E+01 -0.21703723953E+03 -0.27977414104E+03  0.35422863952E+03  0.00000000000E+00 0.  1.
</event>
<event>
 7    1  0.2688177E-009  0.1574721E+03  0.7561462E-02  0.1191581E+00
          2   -1    0    0  501    0  0.00000000000E+00  0.00000000000E+00  0.90646526123E+03  0.90646526123E+03  0.00000000000E+00 0. -1.
         -2   -1    0    0    0  501 -0.00000000000E+00 -0.00000000000E+00 -0.32043483268E+02  0.32043483268E+02  0.00000000000E+00 0.  1.
         25    2    1    2    0    0  0.72697782209E+02  0.10018004864E+03  0.57972092435E+03  0.60584215157E+03  0.12508937931E+03 0.  0.
          5    1    3    3  502    0  0.85026305280E+02  0.25859429526E+02  0.20302042909E+03  0.22165953558E+03  0.41800000000E+01 0. -1.
         -5    1    3    3    0  502 -0.12328523072E+02  0.74320619114E+02  0.37670049526E+03  0.38418261599E+03  0.41800000000E+01 0. -1.
        -11    1    1    2    0    0 -0.18829435233E+02 -0.94497080663E+02  0.22196803372E+03  0.24197944929E+03  0.00000000000E+00 0.  1.
         11    1    1    2    0    0 -0.53868346975E+02 -0.56829679767E+01  0.72732819900E+02  0.90687143639E+02  0.00000000000E+00 0. -1.
</event>
<event>
 7    1  0.2688177E-009  0.1834202E+03  0.7561462E-02  0.1164533E+00
          1   -1    0    0  501    0  0.00000000000E+00  0.00000000000E+00  0.41822181988E+03  0.41822181988E+03  0.00000000000E+00 0. -1.
         -1   -1    0    0    0  501 -0.00000000000E+00 -0.00000000000E+00 -0.12694003208E+03  0.12694003208E+03  0.00000000000E+00 0.  1.
         25    2    1    2    0    0  0.10418386560E+03 -0.11333790532E+03  0.30732227476E+03  0.36577746022E+03  0.12508561550E+03 0.  0.
          5    1    3    3  502    0  0.44954838371E+02  0.19255606513E+02  0.48706024634E+02  0.69148138881E+02  0.41800000000E+01 0. -1.
         -5    1    3    3    0  502  0.59229027227E+02 -0.13259351183E+03  0.25861625013E+03  0.29662932134E+03  0.41800000000E+01 0. -1.
        -11    1    1    2    0    0 -0.63698320676E+02  0.11553458196E+03 -0.32091595159E+02  0.13577770864E+03  0.00000000000E+00 0.  1.
         11    1    1    2    0    0 -0.40485544921E+02 -0.21966766404E+01  0.16051108199E+02  0.43606683092E+02  0.00000000000E+00 0. -1.
</event>
<event>
 7    1  0.3582049E-009  0.9274917E+02  0.7561462E-02  0.1296328E+00
         -1   -1    0    0    0  501 -0.00000000000E+00  0.00000000000E+00  0.50190555021E+02  0.50190555021E+02  0.00000000000E+00 0.  1.
          1   -1    0    0  501    0  0.00000000000E+00 -0.00000000000E+00 -0.28764946460E+03  0.28764946460E+03  0.00000000000E+00 0. -1.
         25    2    1    2    0    0 -0.27784533677E+02  0.37892204007E+02 -0.16698079296E+03  0.21386491890E+03  0.12509124223E+03 0.  0.
          5    1    3    3  502    0  0.42775494860E+02 -0.64332632623E+01 -0.27788510686E+02  0.51582977452E+02  0.41800000000E+01 0. -1.
         -5    1    3    3    0  502 -0.70560028537E+02  0.44325467269E+02 -0.13919228228E+03  0.16228194145E+03  0.41800000000E+01 0. -1.
        -11    1    1    2    0    0  0.19746087570E+01 -0.32094228813E+02  0.14281225064E+02  0.35183689292E+02  0.00000000000E+00 0.  1.
         11    1    1    2    0    0  0.25809924920E+02 -0.57979751935E+01 -0.84759341685E+02  0.88791411429E+02  0.00000000000E+00 0. -1.
</event>
<event>
 7    1  0.2688177E-009  0.1039228E+03  0.7561462E-02  0.1272257E+00
          1   -1    0    0  501    0  0.00000000000E+00  0.00000000000E+00  0.67405159233E+02  0.67405159233E+02  0.00000000000E+00 0. -1.
         -1   -1    0    0    0  501 -0.00000000000E+00 -0.00000000000E+00 -0.16972265097E+03  0.16972265097E+03  0.00000000000E+00 0.  1.
         25    2    1    2    0    0  0.29188657422E+02 -0.30104609384E+02 -0.77742647819E+02  0.15313390991E+03  0.12509120611E+03 0.  0.
          5    1    3    3  502    0  0.67271599663E+02  0.18187754593E+02 -0.47757303089E+02  0.84584247568E+02  0.41800000000E+01 0.  1.
         -5    1    3    3    0  502 -0.38082942241E+02 -0.48292363977E+02 -0.29985344730E+02  0.68549662339E+02  0.41800000000E+01 0.  1.
        -11    1    1    2    0    0  0.11231308989E+02  0.33976681120E+02 -0.24536448235E+02  0.43388874767E+02  0.00000000000E+00 0.  1.
         11    1    1    2    0    0 -0.40419966412E+02 -0.38720717366E+01 -0.38395687215E-01  0.40605025532E+02  0.00000000000E+00 0. -1.
</event>
<event>
 7    1  0.2688177E-009  0.1061971E+03  0.7561462E-02  0.1267779E+00
         -1   -1    0    0    0  501 -0.00000000000E+00  0.00000000000E+00  0.40571837085E+03  0.40571837085E+03  0.00000000000E+00 0.  1.
          1   -1    0    0  501    0  0.00000000000E+00 -0.00000000000E+00 -0.38092430363E+02  0.38092430363E+02  0.00000000000E+00 0. -1.
         25    2    1    2    0    0 -0.31172659843E+02  0.41799970901E+02  0.27026301320E+03  0.30234042594E+03  0.12509462244E+03 0.  0.
          5    1    3    3  502    0  0.10352122528E+02  0.71113950956E+02  0.91372265490E+02  0.11632163927E+03  0.41800000000E+01 0.  1.
         -5    1    3    3    0  502 -0.41524782371E+02 -0.29313980055E+02  0.17889074771E+03  0.18601878667E+03  0.41800000000E+01 0.  1.
        -11    1    1    2    0    0 -0.13675891150E+02 -0.42404976308E+02  0.83295417876E+02  0.94463424951E+02  0.00000000000E+00 0.  1.
         11    1    1    2    0    0  0.44848550992E+02  0.60500540723E+00  0.14067509409E+02  0.47006950323E+02  0.00000000000E+00 0. -1.
</event>
<event>
 7    1  0.2688177E-009  0.1225292E+03  0.7561462E-02  0.1238982E+00
          1   -1    0    0  501    0  0.00000000000E+00  0.00000000000E+00  0.43668343384E+02  0.43668343384E+02  0.00000000000E+00 0. -1.
         -1   -1    0    0    0  501 -0.00000000000E+00 -0.00000000000E+00 -0.36692639630E+03  0.36692639630E+03  0.00000000000E+00 0.  1.
         25    2    1    2    0    0 -0.25830044974E+01 -0.61995550328E+02 -0.13914202783E+03  0.19712471119E+03  0.12509007826E+03 0.  0.
          5    1    3    3  502    0  0.14295451773E+01  0.37560829002E+02 -0.54415182891E+02  0.66267216660E+02  0.41800000000E+01 0. -1.
         -5    1    3    3    0  502 -0.40125496747E+01 -0.99556379330E+02 -0.84726844944E+02  0.13085749453E+03  0.41800000000E+01 0. -1.
        -11    1    1    2    0    0 -0.35643203132E+02  0.59306535176E+02 -0.12823761871E+03  0.14571406897E+03  0.00000000000E+00 0. -1.
         11    1    1    2    0    0  0.38226207630E+02  0.26890151517E+01 -0.55878406375E+02  0.67755959526E+02  0.00000000000E+00 0.  1.
</event>
<event>
 7    1  0.2688177E-009  0.7605637E+02  0.7561462E-02  0.1340631E+00
          1   -1    0    0  501    0  0.00000000000E+00  0.00000000000E+00  0.50378810350E+02  0.50378810350E+02  0.00000000000E+00 0. -1.
         -1   -1    0    0    0  501 -0.00000000000E+00 -0.00000000000E+00 -0.21562141251E+03  0.21562141251E+03  0.00000000000E+00 0.  1.
         25    2    1    2    0    0  0.18259585465E+02  0.70832949372E+01 -0.11099751791E+03  0.16838074385E+03  0.12509212760E+03 0.  0.
          5    1    3    3  502    0  0.49250084186E+02  0.42536505726E+02 -0.24221885619E+02  0.69563620195E+02  0.41800000000E+01 0.  1.
         -5    1    3    3    0  502 -0.30990498722E+02 -0.35453210789E+02 -0.86775632296E+02  0.98817123650E+02  0.41800000000E+01 0.  1.
        -11    1    1    2    0    0 -0.40188757454E+01 -0.20001644884E+02 -0.69905512315E+02  0.72821685042E+02  0.00000000000E+00 0.  1.
         11    1    1    2    0    0 -0.14240709719E+02  0.12918349946E+02  0.15660428068E+02  0.24797793973E+02  0.00000000000E+00 0. -1.
</event>
<event>
 6    1  0.2688177E-009  0.1013233E+03  0.7561462E-02  0.1277538E+00
         -2   -1    0    0    0  501 -0.00000000000E+00  0.00000000000E+00  0.26330868933E+02  0.26330868933E+02  0.00000000000E+00 0.  1.
          2   -1    0    0  501    0  0.00000000000E+00 -0.00000000000E+00 -0.59536722943E+03  0.59536722943E+03  0.00000000000E+00 0. -1.
          5    1    1    2  502    0 -0.33698965399E+02  0.11784462338E+02 -0.19899598638E+02  0.41084793386E+02  0.41800000000E+01 0. -1.
         -5    1    1    2    0  502  0.46949474358E+02  0.49941003915E+02 -0.30585221630E+03  0.31346675682E+03  0.41800000000E+01 0. -1.
        -11    1    1    2    0    0  0.30379733702E+02 -0.37026601696E+02 -0.18079059139E+03  0.18702709801E+03  0.00000000000E+00 0. -1.
         11    1    1    2    0    0 -0.43630242661E+02 -0.24698864557E+02 -0.62493954164E+02  0.80119450149E+02  0.00000000000E+00 0.  1.
</event>
<event>
 7    1  0.2688177E-009  0.1078785E+03  0.7561462E-02  0.1264550E+00
         -2   -1    0    0    0  501 -0.00000000000E+00  0.00000000000E+00  0.28650552568E+02  0.28650552568E+02  0.00000000000E+00 0.  1.
          2   -1    0    0  501    0  0.00000000000E+00 -0.00000000000E+00 -0.12617724259E+04  0.12617724259E+04  0.00000000000E+00 0. -1.
         25    2    1    2    0    0  0.41602865999E+02  0.57522628806E+01 -0.11555851343E+04  0.11630945295E+04  0.12509194664E+03 0.  0.
          5    1    3    3  502    0  0.60056335240E+02 -0.40008419333E+02 -0.89014714798E+03  0.89307718282E+03  0.41800000000E+01 0.  1.
         -5    1    3    3    0  502 -0.18453469242E+02  0.45760682214E+02 -0.26543798630E+03  0.27001734673E+03  0.41800000000E+01 0.  1.
        -11    1    1    2    0    0 -0.54700290024E+02 -0.32886745294E+02 -0.28781713300E+02  0.70014618225E+02  0.00000000000E+00 0.  1.
         11    1    1    2    0    0  0.13097424026E+02  0.27134482414E+02 -0.48755025721E+02  0.57313830661E+02  0.00000000000E+00 0. -1.
</event>
<event>
 7    1  0.2688177E-009  0.1072411E+03  0.7561462E-02  0.1265766E+00
          2   -1    0    0  501    0  0.00000000000E+00  0.00000000000E+00  0.57332488585E+03  0.57332488585E+03  0.00000000000E+00 0. -1.
         -2   -1    0    0    0  501 -0.00000000000E+00 -0.00000000000E+00 -0.24114853158E+02  0.24114853158E+02  0.00000000000E+00 0.  1.
         25    2    1    2    0    0 -0.10893268540E+01  0.20571652983E+02  0.40892871845E+03  0.42812923050E+03  0.12509021423E+03 0.  0.
          5    1    3    3  502    0  0.25957323701E+02 -0.46970861044E+02  0.18079598380E+03  0.18863908556E+03  0.41800000000E+01 0.  1.
         -5    1    3    3    0  502 -0.27046650555E+02  0.67542514027E+02  0.22813273464E+03  0.23949014494E+03  0.41800000000E+01 0.  1.
        -11    1    1    2    0    0 -0.14992813010E+01  0.33555102080E+02  0.24814828044E+02  0.41760847823E+02  0.00000000000E+00 0.  1.
         11    1    1    2    0    0  0.25886081549E+01 -0.54126755064E+02  0.11546648620E+03  0.12754966069E+03  0.00000000000E+00 0. -1.
</event>
<event>
 7    1  0.2688177E-009  0.1119499E+03  0.7561462E-02  0.1257001E+00
         -3   -1    0    0    0  501 -0.00000000000E+00  0.00000000000E+00  0.26783356253E+02  0.26783356253E+02  0.00000000000E+00 0.  1.
          3   -1    0    0  501    0  0.00000000000E+00 -0.00000000000E+00 -0.73034364856E+03  0.73034364856E+03  0.00000000000E+00 0. -1.
         25    2    1    2    0    0  0.92885023123E+01 -0.84793006322E+02 -0.31616792242E+03  0.35055080329E+03  0.12509028868E+03 0.  0.
          5    1    3    3  502    0 -0.55471459353E+01 -0.10387285469E+03 -0.30732324747E+03  0.32447710490E+03  0.41800000000E+01 0.  1.
         -5    1    3    3    0  502  0.14835648248E+02  0.19079848369E+02 -0.88446749567E+01  0.26073698392E+02  0.41800000000E+01 0.  1.
        -11    1    1    2    0    0  0.13827940403E+02  0.10223202361E+02 -0.75280982545E+01  0.18772268527E+02  0.00000000000E+00 0.  1.
         11    1    1    2    0    0 -0.23116442715E+02  0.74569803961E+02 -0.37986427163E+03  0.38780393300E+03  0.00000000000E+00 0. -1.
</event>
<event>
 7    1  0.2688177E-009  0.1279215E+03  0.7561462E-02  0.1230573E+00
          2   -1    0    0  501    0  0.00000000000E+00  0.00000000000E+00  0.48225950977E+03  0.48225950977E+03  0.00000000000E+00 0. -1.
         -2   -1    0    0    0  501 -0.00000000000E+00 -0.00000000000E+00 -0.52158807511E+02  0.52158807511E+02  0.00000000000E+00 0.  1.
         25    2    1    2    0    0  0.46981150444E+02 -0.57095741617E+02  0.80771706284E+02  0.16624794156E+03  0.12508859792E+03 0.  0.
          5    1    3    3  502    0  0.23303455587E+02  0.39336648289E+02  0.26482669607E+02  0.53002142696E+02  0.41800000000E+01 0.  1.
         -5    1    3    3    0  502  0.23677694857E+02 -0.96432389906E+02  0.54289036677E+02  0.11324579886E+03  0.41800000000E+01 0.  1.
        -11    1    1    2    0    0 -0.85745951648E+01 -0.21457353240E+02  0.35262891030E+02  0.42159378246E+02  0.00000000000E+00 0.  1.
         11    1    1    2    0    0 -0.38406555280E+02  0.78553094857E+02  0.31406610494E+03  0.32601099747E+03  0.00000000000E+00 0. -1.
</event>
<event>
 7    1  0.2688177E-009  0.6905392E+02  0.7561462E-02  0.1363340E+00
          1   -1    0    0  501    0  0.00000000000E+00  0.00000000000E+00  0.49934841787E+02  0.49934841787E+02  0.00000000000E+00 0. -1.
         -1   -1    0    0    0  501 -0.00000000000E+00 -0.00000000000E+00 -0.26307347025E+03  0.26307347025E+03  0.00000000000E+00 0.  1.
         25    2    1    2    0    0 -0.14935601587E+02 -0.35413161049E+02 -0.12391659272E+03  0.18022288126E+03  0.12509116999E+03 0.  0.
          5    1    3    3  502    0 -0.42723441820E+01  0.12292316628E+01 -0.13888379787E+03  0.13901778896E+03  0.41800000000E+01 0.  1.
         -5    1    3    3    0  502 -0.10663257405E+02 -0.36642392711E+02  0.14967205150E+02  0.41205092308E+02  0.41800000000E+01 0.  1.
        -11    1    1    2    0    0 -0.32695403528E+02 -0.24229614107E+01 -0.13006364710E+02  0.35270748175E+02  0.00000000000E+00 0. -1.
         11    1    1    2    0    0  0.47631005116E+02  0.37836122459E+02 -0.76215671029E+02  0.97514682594E+02  0.00000000000E+00 0.  1.
</event>
<event>
 7    1  0.2688177E-009  0.1162816E+03  0.7561462E-02  0.1249360E+00
         -1   -1    0    0    0  501 -0.00000000000E+00  0.00000000000E+00  0.13172613316E+03  0.13172613316E+03  0.00000000000E+00 0.  1.
          1   -1    0    0  501    0  0.00000000000E+00 -0.00000000000E+00 -0.13826699985E+03  0.13826699985E+03  0.00000000000E+00 0. -1.
         25    2    1    2    0    0  0.71315589444E+02  0.32082300185E+02  0.13644500536E+02  0.14815043849E+03  0.12508873949E+03 0.  0.
          5    1    3    3  502    0  0.39868666745E+02 -0.44720836122E+02 -0.11880462838E+02  0.61221577640E+02  0.41800000000E+01 0. -1.
         -5    1    3    3    0  502  0.31446922699E+02  0.76803136308E+02  0.25524963374E+02  0.86928860853E+02  0.41800000000E+01 0. -1.
        -11    1    1    2    0    0 -0.79245500489E+01  0.10417435581E+02  0.28468869179E+02  0.31333655547E+02  0.00000000000E+00 0.  1.
         11    1    1    2    0    0 -0.63391039395E+02 -0.42499735767E+02 -0.48654236399E+02  0.90509038971E+02  0.00000000000E+00 0. -1.
</event>
<event>
 7    1  0.2688177E-009  0.8411021E+02  0.7561462E-02  0.1317776E+00
         -1   -1    0    0    0  501 -0.00000000000E+00  0.00000000000E+00  0.20552314062E+03  0.20552314062E+03  0.00000000000E+00 0.  1.
          1   -1    0    0  501    0  0.00000000000E+00 -0.00000000000E+00 -0.66609265528E+02  0.66609265528E+02  0.00000000000E+00 0. -1.
         25    2    1    2    0    0  0.38574483987E+02 -0.16449954655E+01  0.50585259499E+02  0.14034410683E+03  0.12508758139E+03 0.  0.
          5    1    3    3  502    0  0.69455430303E+02  0.57236105880E+01 -0.11242971025E+02  0.70715580421E+02  0.41800000000E+01 0.  1.
         -5    1    3    3    0  502 -0.30880946316E+02 -0.73686060535E+01  0.61828230523E+02  0.69628526411E+02  0.41800000000E+01 0.  1.
        -11    1    1    2    0    0  0.29765344783E+01  0.20527465336E+02  0.83332764164E+02  0.85875410764E+02  0.00000000000E+00 0.  1.
         11    1    1    2    0    0 -0.41551018466E+02 -0.18882469871E+02  0.49958514324E+01  0.45912888555E+02  0.00000000000E+00 0. -1.
</event>
<event>
 7    1  0.2688177E-009  0.8505502E+02  0.7561462E-02  0.1315289E+00
         -1   -1    0    0    0  501 -0.00000000000E+00  0.00000000000E+00  0.25073513717E+02  0.25073513717E+02  0.00000000000E+00 0.  1.
          1   -1    0    0  501    0  0.00000000000E+00 -0.00000000000E+00 -0.68049022314E+03  0.68049022314E+03  0.00000000000E+00 0. -1.
         25    2    1    2    0    0  0.34916507025E+02  0.15823899562E+02 -0.52868069097E+03  0.54462747250E+03  0.12508498126E+03 0.  0.
          5    1    3    3  502    0 -0.31002129091E+02 -0.24145322673E+02 -0.31419793653E+03  0.31667324538E+03  0.41800000000E+01 0.  1.
         -5    1    3    3    0  502  0.65918636115E+02  0.39969222234E+02 -0.21448275443E+03  0.22795422712E+03  0.41800000000E+01 0.  1.
        -11    1    1    2    0    0 -0.24796833601E+02 -0.28102686691E+02 -0.13697844632E+03  0.14201316387E+03  0.00000000000E+00 0. -1.
         11    1    1    2    0    0 -0.10119673423E+02  0.12278787129E+02  0.10242427865E+02  0.18923100489E+02  0.00000000000E+00 0.  1.
</event>
<event>
 7    1  0.2688177E-009  0.9851788E+02  0.7561462E-02  0.1283444E+00
          1   -1    0    0  501    0  0.00000000000E+00  0.00000000000E+00  0.54925440732E+02  0.54925440732E+02  0.00000000000E+00 0. -1.
         -1   -1    0    0    0  501 -0.00000000000E+00 -0.00000000000E+00 -0.28002855039E+03  0.28002855039E+03  0.00000000000E+00 0.  1.
         25    2    1    2    0    0  0.46085262646E+02  0.85733288160E+01 -0.17228935777E+03  0.21800947751E+03  0.12508859293E+03 0.  0.
          5    1    3    3  502    0  0.44444619291E+02  0.40829188885E+02 -0.22221525926E+02  0.64448548963E+02  0.41800000000E+01 0. -1.
         -5    1    3    3    0  502  0.16406433550E+01 -0.32255860069E+02 -0.15006783185E+03  0.15356092854E+03  0.41800000000E+01 0. -1.
        -11    1    1    2    0    0 -0.74626767278E+02 -0.18500292004E+01 -0.42252141286E+02  0.85777738637E+02  0.00000000000E+00 0.  1.
         11    1    1    2    0    0  0.28541504632E+02 -0.67232996155E+01 -0.10561610603E+02  0.31166774984E+02  0.00000000000E+00 0. -1.
</event>
<event>
 7    1  0.2688177E-009  0.1331583E+03  0.7561462E-02  0.1222843E+00
         -2   -1    0    0    0  501 -0.00000000000E+00  0.00000000000E+00  0.35582444266E+02  0.35582444266E+02  0.00000000000E+00 0.  1.
          2   -1    0    0  501    0  0.00000000000E+00 -0.00000000000E+00 -0.68831770182E+03  0.68831770182E+03  0.00000000000E+00 0. -1.
         25    2    1    2    0    0  0.58127491645E+02 -0.83852927695E+02 -0.24355668047E+03  0.29219510957E+03  0.12509199288E+03 0.  0.
          5    1    3    3  502    0  0.46845241713E+02 -0.27652998623E+01 -0.15095258053E+02  0.49471838153E+02  0.41800000000E+01 0. -1.
         -5    1    3    3    0  502  0.11282249932E+02 -0.81087627833E+02 -0.22846142242E+03  0.24272327141E+03  0.41800000000E+01 0. -1.
        -11    1    1    2    0    0 -0.28710844017E+02 -0.16182733303E+02 -0.84793220660E+02  0.90972983304E+02  0.00000000000E+00 0.  1.
         11    1    1    2    0    0 -0.29416647628E+02  0.10003566100E+03 -0.32438535642E+03  0.34073205321E+03  0.00000000000E+00 0. -1.
</event>
<event>
 7    1  0.2688177E-009  0.1217178E+03  0.7561462E-02  0.1240290E+00
          2   -1    0    0  501    0  0.00000000000E+00  0.00000000000E+00  0.12544423052E+04  0.12544423052E+04  0.00000000000E+00 0. -1.
         -2   -1    0    0    0  501 -0.00000000000E+00 -0.00000000000E+00 -0.20299144735E+02  0.20299144735E+02  0.00000000000E+00 0.  1.
         25    2    1    2    0    0 -0.77332232294E+02 -0.51221144239E+02  0.94642731040E+03  0.95915404475E+03  0.12509175801E+03 0.  0.
          5    1    3    3  502    0 -0.15829109521E+01 -0.70406508063E+02  0.30955672754E+03  0.31749397152E+03  0.41800000000E+01 0.  1.
         -5    1    3    3    0  502 -0.75749321342E+02  0.19185363824E+02  0.63687058286E+03  0.64166007323E+03  0.41800000000E+01 0.  1.
        -11    1    1    2    0    0  0.34809539635E+02  0.34299047643E+02  0.25421684989E+03  0.25887127204E+03  0.00000000000E+00 0. -1.
         11    1    1    2    0    0  0.42522692658E+02  0.16922096595E+02  0.33499000128E+02  0.56716133099E+02  0.00000000000E+00 0.  1.
</event>
<event>
 7    1  0.2688177E-009  0.1116709E+03  0.7561462E-02  0.1257507E+00
         -1   -1    0    0    0  501 -0.00000000000E+00  0.00000000000E+00  0.79357097733E+02  0.79357097733E+02  0.00000000000E+00 0.  1.
          1   -1    0    0  501    0  0.00000000000E+00 -0.00000000000E+00 -0.16523788484E+03  0.16523788484E+03  0.00000000000E+00 0. -1.
         25    2    1    2    0    0 -0.26497369976E+01  0.34144434427E+02 -0.64394776059E+02  0.14479982981E+03  0.12508972788E+03 0.  0.
          5    1    3    3  502    0 -0.55904496266E+02 -0.13955735575E+02 -0.26939732911E+02  0.63743994756E+02  0.41800000000E+01 0. -1.
         -5    1    3    3    0  502  0.53254759268E+02  0.48100170002E+02 -0.37455043149E+02  0.81055835054E+02  0.41800000000E+01 0. -1.
        -11    1    1    2    0    0  0.20361602636E+02  0.24829627160E+02 -0.20717210466E+02  0.38213977237E+02  0.00000000000E+00 0. -1.
         11    1    1    2    0    0 -0.17711865638E+02 -0.58974061587E+02 -0.76880057856E+00  0.61581175523E+02  0.00000000000E+00 0.  1.
</event>
<event>
 7    1  0.2688177E-009  0.1108240E+03  0.7561462E-02  0.1259052E+00
         -4   -1    0    0    0  501 -0.00000000000E+00  0.00000000000E+00  0.15578036887E+03  0.15578036887E+03  0.00000000000E+00 0.  1.
          4   -1    0    0  501    0  0.00000000000E+00 -0.00000000000E+00 -0.10054292710E+03  0.10054292710E+03  0.00000000000E+00 0. -1.
         25    2    1    2    0    0  0.25965490229E+02  0.22921718988E+02  0.81988942667E+02  0.15352269743E+03  0.12508964794E+03 0.  0.
          5    1    3    3  502    0  0.65024408990E+02 -0.16215489866E+02  0.19376428498E+02  0.69885865935E+02  0.41800000000E+01 0. -1.
         -5    1    3    3    0  502 -0.39058918761E+02  0.39137208854E+02  0.62612514169E+02  0.83636831493E+02  0.41800000000E+01 0. -1.
        -11    1    1    2    0    0 -0.30791014939E+02  0.31714075378E+02 -0.86392335291E+01  0.45038933535E+02  0.00000000000E+00 0.  1.
         11    1    1    2    0    0  0.48255247095E+01 -0.54635794365E+02 -0.18112267366E+02  0.57761665002E+02  0.00000000000E+00 0. -1.
</event>
<event>
 7    1  0.2688177E-009  0.9136336E+02  0.7561462E-02  0.1299583E+00
         -3   -1    0    0    0  501 -0.00000000000E+00  0.00000000000E+00  0.79210594632E+02  0.79210594632E+02  0.00000000000E+00 0. -1.
          3   -1    0    0  501    0  0.00000000000E+00 -0.00000000000E+00 -0.17201018554E+03  0.17201018554E+03  0.00000000000E+00 0.  1.
         25    2    1    2    0    0  0.15132168736E+02 -0.22752646671E+02 -0.16279495562E+02  0.12906876049E+03  0.12508819887E+03 0.  0.
          5    1    3    3  502    0  0.96869304198E+01 -0.57642485101E+02  0.33799944266E+02  0.67649104517E+02  0.41800000000E+01 0.  1.
         -5    1    3    3    0  502  0.54452383162E+01  0.34889838430E+02 -0.50079439828E+02  0.61419655970E+02  0.41800000000E+01 0.  1.
        -11    1    1    2    0    0  0.13525171053E+02 -0.27540955500E+02 -0.49576941170E+02  0.58303581173E+02  0.00000000000E+00 0.  1.
         11    1    1    2    0    0 -0.28657339789E+02  0.50293602171E+02 -0.26943154173E+02  0.63848438509E+02  0.00000000000E+00 0. -1.
</event>
<event>
 7    1  0.2688177E-009  0.9947913E+02  0.7561462E-02  0.1281395E+00
          1   -1    0    0  501    0  0.00000000000E+00  0.00000000000E+00  0.34390556651E+03  0.34390556651E+03  0.00000000000E+00 0. -1.
         -1   -1    0    0    0  501 -0.00000000000E+00 -0.00000000000E+00 -0.41317958360E+02  0.41317958360E+02  0.00000000000E+00 0.  1.
         25    2    1    2    0    0 -0.24336553541E+00 -0.45259915076E+01  0.92031984457E+02  0.15536487360E+03  0.12509122255E+03 0.  0.
          5    1    3    3  502    0  0.55731288841E+02 -0.13359193274E+02  0.14540781103E+02  0.59273529639E+02  0.41800000000E+01 0. -1.
         -5    1    3    3    0  502 -0.55974654376E+02  0.88332017665E+01  0.77491203355E+02  0.96091343956E+02  0.41800000000E+01 0. -1.
        -11    1    1    2    0    0 -0.94388595889E+01 -0.38978857630E+02  0.55165933644E+02  0.68203545709E+02  0.00000000000E+00 0.  1.
         11    1    1    2    0    0  0.96822251243E+01  0.43504849138E+02  0.15538969005E+03  0.16165510557E+03  0.00000000000E+00 0. -1.
</event>
<event>
 7    1  0.2688177E-009  0.1622389E+03  0.7561462E-02  0.1186192E+00
          4   -1    0    0  501    0  0.00000000000E+00  0.00000000000E+00  0.38663862453E+03  0.38663862453E+03  0.00000000000E+00 0.  1.
         -4   -1    0    0    0  501 -0.00000000000E+00 -0.00000000000E+00 -0.97117185273E+02  0.97117185273E+02  0.00000000000E+00 0. -1.
         25    2    1    2    0    0 -0.76489768021E+02 -0.12385837121E+03  0.23508807743E+03  0.30348838517E+03  0.12508882865E+03 0.  0.
          5    1    3    3  502    0  0.20169479678E+02 -0.22404859460E+02  0.78131824063E+00  0.30444515041E+02  0.41800000000E+01 0. -1.
         -5    1    3    3    0  502 -0.96659247699E+02 -0.10145351175E+03  0.23430675919E+03  0.27304387013E+03  0.41800000000E+01 0. -1.
        -11    1    1    2    0    0  0.43261089643E+02  0.10934731895E+03  0.33728276374E+01  0.11764239884E+03  0.00000000000E+00 0. -1.
         11    1    1    2    0    0  0.33228678378E+02  0.14511052258E+02  0.51060534184E+02  0.62625025793E+02  0.00000000000E+00 0.  1.
</event>
<event>
 7    1  0.2688177E-009  0.1926679E+03  0.7561462E-02  0.1156077E+00
         -1   -1    0    0    0  501 -0.00000000000E+00  0.00000000000E+00  0.52071089629E+03  0.52071089629E+03  0.00000000000E+00 0.  1.
          1   -1    0    0  501    0  0.00000000000E+00 -0.00000000000E+00 -0.91758570243E+02  0.91758570243E+02  0.00000000000E+00 0. -1.
         25    2    1    2    0    0  0.38740030376E+02  0.16384297566E+03  0.10151121813E+03  0.23301558589E+03  0.12508567158E+03 0.  0.
          5    1    3    3  502    0  0.76637716854E+02  0.14090090432E+03  0.98814698660E+02  0.18843625329E+03  0.41800000000E+01 0.  1.
         -5    1    3    3    0  502 -0.37897686479E+02  0.22942071342E+02  0.26965194703E+01  0.44579332601E+02  0.41800000000E+01 0.  1.
        -11    1    1    2    0    0 -0.53408566577E+02 -0.86443116525E+02  0.24593671105E+03  0.26610102070E+03  0.00000000000E+00 0.  1.
         11    1    1    2    0    0  0.14668536201E+02 -0.77399859132E+02  0.81504396874E+02  0.11335285994E+03  0.00000000000E+00 0. -1.
</event>
<event>
 7    1  0.2688177E-009  0.1022191E+03  0.7561462E-02  0.1275697E+00
         -3   -1    0    0    0  501 -0.00000000000E+00  0.00000000000E+00  0.18370711502E+03  0.18370711502E+03  0.00000000000E+00 0.  1.
          3   -1    0    0  501    0  0.00000000000E+00 -0.00000000000E+00 -0.94138646680E+02  0.94138646680E+02  0.00000000000E+00 0. -1.
         25    2    1    2    0    0  0.52415508014E+01 -0.32471863631E+02  0.11919959682E+03  0.17588471546E+03  0.12507994831E+03 0.  0.
          5    1    3    3  502    0 -0.51890409859E+02  0.14228969082E+02  0.37514024103E+02  0.65725585588E+02  0.41800000000E+01 0. -1.
         -5    1    3    3    0  502  0.57131960661E+02 -0.46700832713E+02  0.81685572714E+02  0.11015912987E+03  0.41800000000E+01 0. -1.
        -11    1    1    2    0    0  0.31852442626E+02  0.10983852019E+02  0.17735633663E+02  0.38075921628E+02  0.00000000000E+00 0.  1.
         11    1    1    2    0    0 -0.37093993427E+02  0.21488011612E+02 -0.47366762138E+02  0.63885124613E+02  0.00000000000E+00 0. -1.
</event>
<event>
 7    1  0.2688177E-009  0.1036577E+03  0.7561462E-02  0.1272787E+00
         -2   -1    0    0    0  501 -0.00000000000E+00  0.00000000000E+00  0.34150561165E+02  0.34150561165E+02  0.00000000000E+00 0.  1.
          2   -1    0    0  501    0  0.00000000000E+00 -0.00000000000E+00 -0.39206099211E+03  0.39206099211E+03  0.00000000000E+00 0. -1.
         25    2    1    2    0    0  0.60378735634E+01 -0.22549974921E+02 -0.26480997510E+03  0.29379700295E+03  0.12508956290E+03 0.  0.
          5    1    3    3  502    0  0.21347797171E+02 -0.64674998422E+02 -0.21976562704E+03  0.23011516050E+03  0.41800000000E+01 0.  1.
         -5    1    3    3    0  502 -0.15309923608E+02  0.42125023501E+02 -0.45044348061E+02  0.63681842452E+02  0.41800000000E+01 0.  1.
        -11    1    1    2    0    0 -0.42609941082E+02  0.35301254711E+02 -0.57666168795E+02  0.79919789081E+02  0.00000000000E+00 0.  1.
         11    1    1    2    0    0  0.36572067519E+02 -0.12751279791E+02 -0.35434287048E+02  0.52494761239E+02  0.00000000000E+00 0. -1.
</event>
<event>
 7    1  0.2688177E-009  0.7254555E+02  0.7561462E-02  0.1351645E+00
         -2   -1    0    0    0  501 -0.00000000000E+00  0.00000000000E+00  0.47813863161E+02  0.47813863161E+02  0.00000000000E+00 0.  1.
          2   -1    0    0  501    0  0.00000000000E+00 -0.00000000000E+00 -0.30084437451E+03  0.30084437451E+03  0.00000000000E+00 0. -1.
         25    2    1    2    0    0 -0.23058288304E+02  0.30109784731E+02 -0.12942729852E+03  0.18394846458E+03  0.12508928101E+03 0.  0.
          5    1    3    3  502    0 -0.41469710066E+02  0.37854529280E+02 -0.35373846915E+01  0.56415314680E+02  0.41800000000E+01 0.  1.
         -5    1    3    3    0  502  0.18411421762E+02 -0.77447445492E+01 -0.12588991383E+03  0.12753314990E+03  0.41800000000E+01 0.  1.
        -11    1    1    2    0    0  0.41257518594E+02 -0.12633359672E+02 -0.49823577509E+01  0.43435106836E+02  0.00000000000E+00 0.  1.
         11    1    1    2    0    0 -0.18199230290E+02 -0.17476425059E+02 -0.11862085507E+03  0.12127466625E+03  0.00000000000E+00 0. -1.
</event>
<event>
 7    1  0.2688177E-009  0.1864298E+03  0.7561462E-02  0.1161721E+00
         -2   -1    0    0    0  501 -0.00000000000E+00  0.00000000000E+00  0.16022512633E+03  0.16022512633E+03  0.00000000000E+00 0.  1.
          2   -1    0    0  501    0  0.00000000000E+00 -0.00000000000E+00 -0.22830705577E+03  0.22830705577E+03  0.00000000000E+00 0. -1.
         25    2    1    2    0    0  0.94328232280E+02  0.12645059650E+03 -0.41477480196E+02  0.20556209705E+03  0.12509126916E+03 0.  0.
          5    1    3    3  502    0  0.92677524506E+02  0.27244032937E+02  0.30287850926E+01  0.96736791441E+02  0.41800000000E+01 0.  1.
         -5    1    3    3    0  502  0.16507077742E+01  0.99206563567E+02 -0.44506265288E+02  0.10882530561E+03  0.41800000000E+01 0.  1.
        -11    1    1    2    0    0 -0.60995941846E+01 -0.73936210380E+02 -0.30522413319E+02  0.80220857446E+02  0.00000000000E+00 0. -1.
         11    1    1    2    0    0 -0.88228638095E+02 -0.52514386124E+02  0.39179640679E+01  0.10274922760E+03  0.00000000000E+00 0.  1.
</event>
<event>
 7    1  0.3141647E-009  0.2487187E+03  0.7561462E-02  0.1114117E+00
         -1   -1    0    0    0  501 -0.00000000000E+00  0.00000000000E+00  0.76558069046E+02  0.76558069046E+02  0.00000000000E+00 0.  1.
          1   -1    0    0  501    0  0.00000000000E+00 -0.00000000000E+00 -0.90509639162E+03  0.90509639162E+03  0.00000000000E+00 0. -1.
         25    2    1    2    0    0  0.74414126075E+02 -0.21234331782E+03 -0.27266043732E+03  0.37498978272E+03  0.12508587562E+03 0.  0.
          5    1    3    3  502    0  0.38692189273E+02  0.33874448137E+00 -0.63841028875E+02  0.74768640661E+02  0.41800000000E+01 0.  1.
         -5    1    3    3    0  502  0.35721936802E+02 -0.21268206231E+03 -0.20881940845E+03  0.30022114206E+03  0.41800000000E+01 0.  1.
        -11    1    1    2    0    0 -0.50650245177E+02  0.29868367167E+02 -0.12513788070E+03  0.13826444185E+03  0.00000000000E+00 0. -1.
         11    1    1    2    0    0 -0.23763880897E+02  0.18247495066E+03 -0.43074000455E+03  0.46840023610E+03  0.00000000000E+00 0.  1.
</event>
<event>
 7    1  0.2688177E-009  0.1044023E+03  0.7561462E-02  0.1271302E+00
          2   -1    0    0  501    0  0.00000000000E+00  0.00000000000E+00  0.14021690077E+03  0.14021690077E+03  0.00000000000E+00 0. -1.
         -2   -1    0    0    0  501 -0.00000000000E+00 -0.00000000000E+00 -0.13196480896E+03  0.13196480896E+03  0.00000000000E+00 0.  1.
         25    2    1    2    0    0 -0.47518810077E+01 -0.72078979806E+02  0.47347515946E+02  0.15200997222E+03  0.12508910698E+03 0.  0.
          5    1    3    3  502    0  0.24446399306E+02 -0.93388380563E+02  0.59701866755E+02  0.11358169464E+03  0.41800000000E+01 0.  1.
         -5    1    3    3    0  502 -0.29198280313E+02  0.21309400757E+02 -0.12354350809E+02  0.38428277580E+02  0.41800000000E+01 0.  1.
        -11    1    1    2    0    0  0.14086016640E+02  0.44312069413E+02  0.22731500624E+02  0.51756125058E+02  0.00000000000E+00 0. -1.
         11    1    1    2    0    0 -0.93341356324E+01  0.27766910393E+02 -0.61826924761E+02  0.68415612445E+02  0.00000000000E+00 0.  1.
</event>
<event>
 7    1  0.2688177E-009  0.1067131E+03  0.7561462E-02  0.1266781E+00
         -1   -1    0    0    0  501 -0.00000000000E+00  0.00000000000E+00  0.17062826580E+02  0.17062826580E+02  0.00000000000E+00 0.  1.
          1   -1    0    0  501    0  0.00000000000E+00 -0.00000000000E+00 -0.87214945733E+03  0.87214945733E+03  0.00000000000E+00 0. -1.
         25    2    1    2    0    0 -0.20541858949E+02  0.45478530981E+02 -0.48602734962E+03  0.50434192445E+03  0.12509167611E+03 0.  0.
          5    1    3    3  502    0 -0.16269425854E+02 -0.39970269084E+02 -0.10119601181E+03  0.11009278739E+03  0.41800000000E+01 0.  1.
         -5    1    3    3    0  502 -0.42724330949E+01  0.85448800065E+02 -0.38483133780E+03  0.39424913706E+03  0.41800000000E+01 0.  1.
        -11    1    1    2    0    0  0.29027115964E+02 -0.60531972942E+02 -0.35825498464E+03  0.36449050362E+03  0.00000000000E+00 0. -1.
         11    1    1    2    0    0 -0.84852570146E+01  0.15053441961E+02 -0.10804296500E+02  0.20379855847E+02  0.00000000000E+00 0.  1.
</event>
<event>
 7    1  0.2688177E-009  0.1077662E+03  0.7561462E-02  0.1264763E+00
          2   -1    0    0  501    0  0.00000000000E+00  0.00000000000E+00  0.86371694232E+03  0.86371694232E+03  0.00000000000E+00 0. -1.
         -2   -1    0    0    0  501 -0.00000000000E+00 -0.00000000000E+00 -0.39023919991E+02  0.39023919991E+02  0.00000000000E+00 0.  1.
         25    2    1    2    0    0 -0.19836038596E+02  0.35833020716E+02  0.78967066032E+03  0.80056523188E+03  0.12508982739E+03 0.  0.
          5    1    3    3  502    0 -0.42495360175E+02 -0.32172730492E+02  0.22078538759E+03  0.22716645879E+03  0.41800000000E+01 0. -1.
         -5    1    3    3    0  502  0.22659321579E+02  0.68005751208E+02  0.56888527273E+03  0.57339877309E+03  0.41800000000E+01 0. -1.
        -11    1    1    2    0    0  0.40953792040E+02  0.78922244819E+01 -0.99333102150E+00  0.41719144242E+02  0.00000000000E+00 0.  1.
         11    1    1    2    0    0 -0.21117753444E+02 -0.43725245198E+02  0.36015693021E+02  0.60456486186E+02  0.00000000000E+00 0. -1.
</event>
<event>
 6    1  0.2688177E-009  0.1369973E+03  0.7561462E-02  0.1217427E+00
         -1   -1    0    0    0  501 -0.00000000000E+00  0.00000000000E+00  0.45246730005E+02  0.45246730005E+02  0.00000000000E+00 0.  1.
          1   -1    0    0  501    0  0.00000000000E+00 -0.00000000000E+00 -0.42603247840E+03  0.42603247840E+03  0.00000000000E+00 0. -1.
          5    1    1    2  502    0 -0.91840110809E+02 -0.27053948074E+02 -0.15475785052E+03  0.18202743408E+03  0.41800000000E+01 0.  1.
         -5    1    1    2    0  502  0.39040422490E+02 -0.38735324379E+02 -0.84957592199E+02  0.10129089206E+03  0.41800000000E+01 0.  1.
        -11    1    1    2    0    0  0.75101648026E+02  0.30072233316E+02 -0.79945183688E+02  0.11373578657E+03  0.00000000000E+00 0.  1.
         11    1    1    2    0    0 -0.22301959708E+02  0.35717039138E+02 -0.61125121979E+02  0.74225095678E+02  0.00000000000E+00 0. -1.
</event>
<event>
 7    1  0.2688177E-009  0.1001839E+03  0.7561462E-02  0.1279910E+00
          4   -1    0    0  501    0  0.00000000000E+00  0.00000000000E+00  0.70797470212E+02  0.70797470212E+02  0.00000000000E+00 0. -1.
         -4   -1    0    0    0  501 -0.00000000000E+00 -0.00000000000E+00 -0.21838626613E+03  0.21838626613E+03  0.00000000000E+00 0.  1.
         25    2    1    2    0    0 -0.25484714713E+02 -0.24851773203E+02 -0.21324797051E+02  0.13179390111E+03  0.12509118308E+03 0.  0.
          5    1    3    3  502    0 -0.66853884003E+02 -0.50798464613E+01 -0.44169110218E+02  0.80396699831E+02  0.41800000000E+01 0. -1.
         -5    1    3    3    0  502  0.41369169290E+02 -0.19771926742E+02  0.22844313167E+02  0.51397201274E+02  0.41800000000E+01 0. -1.
        -11    1    1    2    0    0 -0.18142834778E+02  0.37557047685E+02 -0.90203658157E+02  0.99380049454E+02  0.00000000000E+00 0.  1.
         11    1    1    2    0    0  0.43627549491E+02 -0.12705274482E+02 -0.36060340707E+02  0.58009785780E+02  0.00000000000E+00 0. -1.
</event>
<event>
 7    1  0.2688177E-009  0.8898418E+02  0.7561462E-02  0.1305330E+00
         -1   -1    0    0    0  501 -0.00000000000E+00  0.00000000000E+00  0.19018670771E+03  0.19018670771E+03  0.00000000000E+00 0.  1.
          1   -1    0    0  501    0  0.00000000000E+00 -0.00000000000E+00 -0.64341282001E+02  0.64341282001E+02  0.00000000000E+00 0. -1.
         25    2    1    2    0    0 -0.11404625462E+02  0.46266982773E+01  0.50169965197E+02  0.13533678861E+03  0.12509016398E+03 0.  0.
          5    1    3    3  502    0 -0.67446387261E+01  0.64330325167E+02  0.18204538005E+02  0.67325763951E+02  0.41800000000E+01 0. -1.
         -5    1    3    3    0  502 -0.46599867361E+01 -0.59703626889E+02  0.31965427192E+02  0.68011024663E+02  0.41800000000E+01 0. -1.
        -11    1    1    2    0    0 -0.80319292961E+00  0.22948718282E+02 -0.12399340872E+02  0.26096598317E+02  0.00000000000E+00 0. -1.
         11    1    1    2    0    0  0.12207818392E+02 -0.27575416559E+02  0.88074801384E+02  0.93094602782E+02  0.00000000000E+00 0.  1.
</event>
<event>
 7    1  0.2688177E-009  0.1251142E+03  0.7561462E-02  0.1234891E+00
          2   -1    0    0  501    0  0.00000000000E+00  0.00000000000E+00  0.23086108948E+03  0.23086108948E+03  0.00000000000E+00 0. -1.
         -2   -1    0    0    0  501 -0.00000000000E+00 -0.00000000000E+00 -0.86837497089E+02  0.86837497089E+02  0.00000000000E+00 0.  1.
         25    2    1    2    0    0  0.30372051317E+02 -0.85988492101E+02  0.63179720697E+02  0.16719855976E+03  0.12508876450E+03 0.  0.
          5    1    3    3  502    0 -0.12449922884E+01 -0.10709939032E+03  0.70450085902E+02  0.12826736302E+03  0.41800000000E+01 0.  1.
         -5    1    3    3    0  502  0.31617043606E+02  0.21110898216E+02 -0.72703652054E+01  0.38931196746E+02  0.41800000000E+01 0.  1.
        -11    1    1    2    0    0 -0.23024273337E+02  0.51128463862E+01 -0.12566938513E+02  0.26724264339E+02  0.00000000000E+00 0.  1.
         11    1    1    2    0    0 -0.73477779805E+01  0.80875645714E+02  0.93410810207E+02  0.12377576247E+03  0.00000000000E+00 0. -1.
</event>
<event>
 7    1  0.2688177E-009  0.1572868E+03  0.7561462E-02  0.1191794E+00
          1   -1    0    0  501    0  0.00000000000E+00  0.00000000000E+00  0.48507554277E+03  0.48507554277E+03  0.00000000000E+00 0. -1.
         -1   -1    0    0    0  501 -0.00000000000E+00 -0.00000000000E+00 -0.91765960849E+02  0.91765960849E+02  0.00000000000E+00 0.  1.
         25    2    1    2    0    0  0.12364046517E+03  0.32465222041E+02  0.37767977291E+03  0.41788899965E+03  0.12509296501E+03 0.  0.
          5    1    3    3  502    0  0.12276397234E+02 -0.29586172432E+02  0.19636241361E+02  0.37803517072E+02  0.41800000000E+01 0.  1.
         -5    1    3    3    0  502  0.11136406794E+03  0.62051394473E+02  0.35804353155E+03  0.38008548258E+03  0.41800000000E+01 0.  1.
        -11    1    1    2    0    0 -0.28525112082E+02  0.29627914449E+02 -0.10393029808E+02  0.42420636517E+02  0.00000000000E+00 0.  1.
         11    1    1    2    0    0 -0.95115353090E+02 -0.62093136490E+02  0.26022838827E+02  0.11653186746E+03  0.00000000000E+00 0. -1.
</event>
<event>
 7    1  0.2688177E-009  0.2485628E+03  0.7561462E-02  0.1114216E+00
          1   -1    0    0  501    0  0.00000000000E+00  0.00000000000E+00  0.28036538350E+03  0.28036538350E+03  0.00000000000E+00 0. -1.
         -1   -1    0    0    0  501 -0.00000000000E+00 -0.00000000000E+00 -0.27048540719E+03  0.27048540719E+03  0.00000000000E+00 0.  1.
         25    2    1    2    0    0  0.11543451769E+03  0.21973079777E+03  0.52697276403E+02  0.28290095448E+03  0.12509674551E+03 0.  0.
          5    1    3    3  502    0  0.88182992328E+02  0.15229860554E+03 -0.23364483630E+02  0.17757949454E+03  0.41800000000E+01 0. -1.
         -5    1    3    3    0  502  0.27251525367E+02  0.67432192233E+02  0.76061760032E+02  0.10532145994E+03  0.41800000000E+01 0. -1.
        -11    1    1    2    0    0 -0.79544340408E+02 -0.15533873361E+03  0.13702709107E+02  0.17505767189E+03  0.00000000000E+00 0.  1.
         11    1    1    2    0    0 -0.35890177287E+02 -0.64392064163E+02 -0.56520009200E+02  0.92892164324E+02  0.00000000000E+00 0. -1.
</event>
<event>
 7    1  0.2688177E-009  0.1106179E+03  0.7561462E-02  0.1259430E+00
         -2   -1    0    0    0  501 -0.00000000000E+00  0.00000000000E+00  0.30219881243E+03  0.30219881243E+03  0.00000000000E+00 0. -1.
          2   -1    0    0  501    0  0.00000000000E+00 -0.00000000000E+00 -0.73145416098E+02  0.73145416098E+02  0.00000000000E+00 0.  1.
         25    2    1    2    0    0 -0.24887491892E+01 -0.10055648522E+03  0.14040229298E+03  0.21325778975E+03  0.12509308704E+03 0.  0.
          5    1    3    3  502    0 -0.50728280640E+01 -0.57825854963E+02  0.15677966604E+03  0.16723306841E+03  0.41800000000E+01 0. -1.
         -5    1    3    3    0  502  0.25840788748E+01 -0.42730630261E+02 -0.16377373064E+02  0.46024721342E+02  0.41800000000E+01 0. -1.
        -11    1    1    2    0    0  0.32031735916E+02  0.72596228843E+02  0.19261301088E+02  0.81653182839E+02  0.00000000000E+00 0.  1.
         11    1    1    2    0    0 -0.29542986727E+02  0.27960256381E+02  0.69389802266E+02  0.80433255934E+02  0.00000000000E+00 0. -1.
</event>
<event>
 7    1  0.2688177E-009  0.1046986E+03  0.7561462E-02  0.1270715E+00
          1   -1    0    0  501    0  0.00000000000E+00  0.00000000000E+00  0.20979880033E+03  0.20979880033E+03  0.00000000000E+00 0. -1.
         -1   -1    0    0    0  501 -0.00000000000E+00 -0.00000000000E+00 -0.73989836189E+02  0.73989836189E+02  0.00000000000E+00 0.  1.
         25    2    1    2    0    0 -0.17684186525E+02 -0.23788511849E+02  0.37756975392E+02  0.13398709143E+03  0.12509327612E+03 0.  0.
          5    1    3    3  502    0 -0.49953774612E+02 -0.35658886157E+02 -0.21653438506E+02  0.65217172271E+02  0.41800000000E+01 0.  1.
         -5    1    3    3    0  502  0.32269588087E+02  0.11870374309E+02  0.59410413897E+02  0.68769919158E+02  0.41800000000E+01 0.  1.
        -11    1    1    2    0    0  0.10160417858E+02  0.67818144690E+02  0.60367975779E+02  0.91360972739E+02  0.00000000000E+00 0.  1.
         11    1    1    2    0    0  0.75237686668E+01 -0.44029632842E+02  0.37684012971E+02  0.58440572351E+02  0.00000000000E+00 0. -1.
</event>
<event>
 7    1  0.2688177E-009  0.1648568E+03  0.7561462E-02  0.1183320E+00
          2   -1    0    0  501    0  0.00000000000E+00  0.00000000000E+00  0.65780301058E+03  0.65780301058E+03  0.00000000000E+00 0. -1.
         -2   -1    0    0    0  501 -0.00000000000E+00 -0.00000000000E+00 -0.50723313112E+02  0.50723313112E+02  0.00000000000E+00 0.  1.
         25    2    1    2    0    0  0.49337418406E+02 -0.13442426940E+03  0.32218951958E+03  0.37410067921E+03  0.12506464967E+03 0.  0.
          5    1    3    3  502    0  0.52172390598E+01  0.11254330680E+02  0.12139731218E+03  0.12210102107E+03  0.41800000000E+01 0.  1.
         -5    1    3    3    0  502  0.44120179346E+02 -0.14567860008E+03  0.20079220740E+03  0.25199965813E+03  0.41800000000E+01 0.  1.
        -11    1    1    2    0    0  0.22565167458E+02  0.35310112586E+02  0.29649465631E+02  0.51333046330E+02  0.00000000000E+00 0.  1.
         11    1    1    2    0    0 -0.71902585864E+02  0.99114156818E+02  0.25524071226E+03  0.28309259816E+03  0.00000000000E+00 0. -1.
</event>
<event>
 7    1  0.2688177E-009  0.9285728E+02  0.7561462E-02  0.1296076E+00
         -1   -1    0    0    0  501 -0.00000000000E+00  0.00000000000E+00  0.51212714453E+03  0.51212714453E+03  0.00000000000E+00 0.  1.
          1   -1    0    0  501    0  0.00000000000E+00 -0.00000000000E+00 -0.33713919898E+02  0.33713919898E+02  0.00000000000E+00 0. -1.
         25    2    1    2    0    0  0.29393657146E+02 -0.91564461017E+01  0.38668935659E+03  0.40758303170E+03  0.12508973436E+03 0.  0.
          5    1    3    3  502    0  0.52418795566E+02  0.41276448652E+02  0.14632599110E+03  0.16087337695E+03  0.41800000000E+01 0. -1.
         -5    1    3    3    0  502 -0.23025138420E+02 -0.50432894754E+02  0.24036336549E+03  0.24670965474E+03  0.41800000000E+01 0. -1.
        -11    1    1    2    0    0 -0.20922786325E+02  0.32377083712E+02  0.10381542324E+03  0.11074150369E+03  0.00000000000E+00 0.  1.
         11    1    1    2    0    0 -0.84708708212E+01 -0.23220637610E+02 -0.12091555195E+02  0.27516529042E+02  0.00000000000E+00 0. -1.
</event>
<event>
 7    1  0.2688177E-009  0.7823674E+02  0.7561462E-02  0.1334131E+00
          1   -1    0    0  501    0  0.00000000000E+00  0.00000000000E+00  0.99916609663E+02  0.99916609663E+02  0.00000000000E+00 0. -1.
         -1   -1    0    0    0  501 -0.00000000000E+00 -0.00000000000E+00 -0.14697991781E+03  0.14697991781E+03  0.00000000000E+00 0.  1.
         25    2    1    2    0    0 -0.26126329329E+02 -0.41456304951E+02 -0.52410158698E+02  0.14420576699E+03  0.12508904106E+03 0.  0.
          5    1    3    3  502    0 -0.95652508385E-01 -0.41001969669E+02  0.34271673871E+02  0.53602151973E+02  0.41800000000E+01 0. -1.
         -5    1    3    3    0  502 -0.26030676821E+02 -0.45433528156E+00 -0.86681832569E+02  0.90603615016E+02  0.41800000000E+01 0. -1.
        -11    1    1    2    0    0  0.22240063379E+02 -0.18426663244E+02  0.26366504127E+02  0.39106967119E+02  0.00000000000E+00 0. -1.
         11    1    1    2    0    0  0.38862659509E+01  0.59882968194E+02 -0.21019653580E+02  0.63583793371E+02  0.00000000000E+00 0.  1.
</event>
<event>
 7    1  0.2688177E-009  0.1828752E+03  0.7561462E-02  0.1165049E+00
          1   -1    0    0  501    0  0.00000000000E+00  0.00000000000E+00  0.23692188824E+03  0.23692188824E+03  0.00000000000E+00 0. -1.
         -1   -1    0    0    0  501 -0.00000000000E+00 -0.00000000000E+00 -0.19795571122E+03  0.19795571122E+03  0.00000000000E+00 0.  1.
         25    2    1    2    0    0 -0.59983252834E+02 -0.16539647107E+03 -0.43979371057E+02  0.22030775606E+03  0.12508932424E+03 0.  0.
          5    1    3    3  502    0 -0.15066927818E+02 -0.54255270283E+01 -0.51333374727E+02  0.53935483851E+02  0.41800000000E+01 0. -1.
         -5    1    3    3    0  502 -0.44916325016E+02 -0.15997094404E+03  0.73540036698E+01  0.16637227221E+03  0.41800000000E+01 0. -1.
        -11    1    1    2    0    0  0.15497975494E+02  0.46186915022E+01 -0.14204696989E+02  0.21524241500E+02  0.00000000000E+00 0.  1.
         11    1    1    2    0    0  0.44485277340E+02  0.16077777956E+03  0.97150245065E+02  0.19304560191E+03  0.00000000000E+00 0. -1.
</event>
<event>
 7    1  0.2688177E-009  0.9245446E+02  0.7561462E-02  0.1297014E+00
          2   -1    0    0  501    0  0.00000000000E+00  0.00000000000E+00  0.15456632994E+03  0.15456632994E+03  0.00000000000E+00 0. -1.
         -2   -1    0    0    0  501 -0.00000000000E+00 -0.00000000000E+00 -0.90446491119E+02  0.90446491119E+02  0.00000000000E+00 0.  1.
         25    2    1    2    0    0  0.36702163892E+02  0.71926979306E+01  0.51527908189E+01  0.13066578761E+03  0.12509281778E+03 0.  0.
          5    1    3    3  502    0  0.22572064021E+02 -0.37222872841E+02  0.49599625589E+02  0.66125907142E+02  0.41800000000E+01 0.  1.
         -5    1    3    3    0  502  0.14130099870E+02  0.44415570772E+02 -0.44446834770E+02  0.64539880465E+02  0.41800000000E+01 0.  1.
        -11    1    1    2    0    0  0.12239568101E+02 -0.35701256044E+02  0.39050918616E+02  0.54308019253E+02  0.00000000000E+00 0.  1.
         11    1    1    2    0    0 -0.48941731992E+02  0.28508558113E+02  0.19916129382E+02  0.60039014196E+02  0.00000000000E+00 0. -1.
</event>
<event>
 7    1  0.2688177E-009  0.1025115E+03  0.7561462E-02  0.1275101E+00
          2   -1    0    0  501    0  0.00000000000E+00  0.00000000000E+00  0.78420360879E+02  0.78420360879E+02  0.00000000000E+00 0.  1.
         -2   -1    0    0    0  501 -0.00000000000E+00 -0.00000000000E+00 -0.17031594936E+03  0.17031594936E+03  0.00000000000E+00 0. -1.
         25    2    1    2    0    0  0.26702734939E+02  0.15435477183E+02 -0.79120383961E+02  0.15119054259E+03  0.12508898833E+03 0.  0.
          5    1    3    3  502    0  0.16405157349E+01 -0.54064996885E+02 -0.40633602063E+02  0.67781097635E+02  0.41800000000E+01 0. -1.
         -5    1    3    3    0  502  0.25062219204E+02  0.69500474068E+02 -0.38486781898E+02  0.83409444956E+02  0.41800000000E+01 0. -1.
        -11    1    1    2    0    0 -0.25395621465E+02 -0.42589938923E+02  0.21288692969E+02  0.53963403667E+02  0.00000000000E+00 0.  1.
         11    1    1    2    0    0 -0.13071134732E+01  0.27154461740E+02 -0.34063897487E+02  0.43582363979E+02  0.00000000000E+00 0. -1.
</event>
<event>
 7    1  0.2688177E-009  0.1399574E+03  0.7561462E-02  0.1213386E+00
         -2   -1    0    0    0  501 -0.00000000000E+00  0.00000000000E+00  0.14694921009E+03  0.14694921009E+03  0.00000000000E+00 0.  1.
          2   -1    0    0  501    0  0.00000000000E+00 -0.00000000000E+00 -0.16948646479E+03  0.16948646479E+03  0.00000000000E+00 0. -1.
         25    2    1    2    0    0  0.87195767471E+02 -0.62770029117E+02  0.26347452715E+02  0.16698776387E+03  0.12509015388E+03 0.  0.
          5    1    3    3  502    0  0.45402791020E+02  0.32199137935E+02  0.29426045808E+02  0.63099623517E+02  0.41800000000E+01 0. -1.
         -5    1    3    3    0  502  0.41792976451E+02 -0.94969167052E+02 -0.30785930931E+01  0.10388814036E+03  0.41800000000E+01 0. -1.
        -11    1    1    2    0    0 -0.29874817314E+02 -0.62640804120E+01  0.19855630838E+02  0.36414138585E+02  0.00000000000E+00 0.  1.
         11    1    1    2    0    0 -0.57320950157E+02  0.69034109529E+02 -0.68740338252E+02  0.11303377242E+03  0.00000000000E+00 0. -1.
</event>
<event>
 7    1  0.2688177E-009  0.1346658E+03  0.7561462E-02  0.1220692E+00
          3   -1    0    0  501    0  0.00000000000E+00  0.00000000000E+00  0.69991769587E+02  0.69991769587E+02  0.00000000000E+00 0. -1.
         -3   -1    0    0    0  501 -0.00000000000E+00 -0.00000000000E+00 -0.44548272833E+03  0.44548272833E+03  0.00000000000E+00 0.  1.
         25    2    1    2    0    0  0.81210006740E+02  0.80396246360E+02 -0.31197482939E+03  0.35500438726E+03  0.12506477990E+03 0.  0.
          5    1    3    3  502    0  0.56019987950E+02  0.10288004779E+03 -0.15470756376E+03  0.19409906225E+03  0.41800000000E+01 0.  1.
         -5    1    3    3    0  502  0.25190018791E+02 -0.22483801434E+02 -0.15726726564E+03  0.16090532500E+03  0.41800000000E+01 0.  1.
        -11    1    1    2    0    0 -0.62014294363E+02 -0.76544072989E+02 -0.85919777444E+02  0.13071716020E+03  0.00000000000E+00 0.  1.
         11    1    1    2    0    0 -0.19195712377E+02 -0.38521733707E+01  0.22403648092E+02  0.29752950462E+02  0.00000000000E+00 0. -1.
</event>
<event>
 7    1  0.2688177E-009  0.8453803E+02  0.7561462E-02  0.1316645E+00
          1   -1    0    0  501    0  0.00000000000E+00  0.00000000000E+00  0.19678551062E+04  0.19678551062E+04  0.00000000000E+00 0. -1.
         -1   -1    0    0    0  501 -0.00000000000E+00 -0.00000000000E+00 -0.72535940911E+01  0.72535940911E+01  0.00000000000E+00 0.  1.
         25    2    1    2    0    0  0.28025075881E+02  0.77494742120E+01  0.14493015572E+04  0.14549803338E+04  0.12508920422E+03 0.  0.
          5    1    3    3  502    0 -0.90883510736E+01 -0.23197852591E+02  0.63650740235E+02  0.68480855884E+02  0.41800000000E+01 0. -1.
         -5    1    3    3    0  502  0.37113426955E+02  0.30947326803E+02  0.13856508169E+04  0.13864994780E+04  0.41800000000E+01 0. -1.
        -11    1    1    2    0    0 -0.41130823739E+02  0.32855110788E+02  0.29504917211E+03  0.29970855332E+03  0.00000000000E+00 0. -1.
         11    1    1    2    0    0  0.13105747858E+02 -0.40604585000E+02  0.21625078277E+03  0.22041981308E+03  0.00000000000E+00 0.  1.
</event>
<event>
 7    1  0.2688177E-009  0.1524784E+03  0.7561462E-02  0.1197460E+00
         -2   -1    0    0    0  501 -0.00000000000E+00  0.00000000000E+00  0.93220627609E+02  0.93220627609E+02  0.00000000000E+00 0.  1.
          2   -1    0    0  501    0  0.00000000000E+00 -0.00000000000E+00 -0.31948220046E+03  0.31948220046E+03  0.00000000000E+00 0. -1.
         25    2    1    2    0    0 -0.11847760746E+03  0.18132356979E+02 -0.19133229241E+03  0.25810984715E+03  0.12508765421E+03 0.  0.
          5    1    3    3  502    0 -0.10915961931E+03 -0.32580841177E+02 -0.93470066512E+02  0.14741594023E+03  0.41800000000E+01 0. -1.
         -5    1    3    3    0  502 -0.93179881461E+01  0.50713198155E+02 -0.97862225901E+02  0.11069390692E+03  0.41800000000E+01 0. -1.
        -11    1    1    2    0    0  0.12550266147E+03 -0.65363200820E+01 -0.49152566089E+02  0.13494301119E+03  0.00000000000E+00 0. -1.
         11    1    1    2    0    0 -0.70250540077E+01 -0.11596036897E+02  0.14223285655E+02  0.19649969729E+02  0.00000000000E+00 0.  1.
</event>
<event>
 7    1  0.2688177E-009  0.6551053E+02  0.7561462E-02  0.1376061E+00
          1   -1    0    0  501    0  0.00000000000E+00  0.00000000000E+00  0.32778195016E+03  0.32778195016E+03  0.00000000000E+00 0. -1.
         -1   -1    0    0    0  501 -0.00000000000E+00 -0.00000000000E+00 -0.40210124537E+02  0.40210124537E+02  0.00000000000E+00 0.  1.
         25    2    1    2    0    0  0.32843398828E+02  0.13138058855E+02  0.17251376605E+03  0.21600866292E+03  0.12508974994E+03 0.  0.
          5    1    3    3  502    0  0.14139473395E+02  0.50747166278E+01 -0.18313062963E+02  0.24052403868E+02  0.41800000000E+01 0.  1.
         -5    1    3    3    0  502  0.18703925433E+02  0.80633422272E+01  0.19082682902E+03  0.19195625905E+03  0.41800000000E+01 0.  1.
        -11    1    1    2    0    0 -0.17431610105E+02 -0.50925271072E+02  0.41895876960E+02  0.68209301205E+02  0.00000000000E+00 0.  1.
         11    1    1    2    0    0 -0.15411788723E+02  0.37787212217E+02  0.73162182605E+02  0.83774110573E+02  0.00000000000E+00 0. -1.
</event>
<event>
 7    1  0.2688177E-009  0.4742961E+02  0.7561462E-02  0.1459720E+00
         -1   -1    0    0    0  501 -0.00000000000E+00  0.00000000000E+00  0.15868884334E+02  0.15868884334E+02  0.00000000000E+00 0.  1.
          1   -1    0    0  501    0  0.00000000000E+00 -0.00000000000E+00 -0.11159214658E+04  0.11159214658E+04  0.00000000000E+00 0. -1.
         25    2    1    2    0    0 -0.77749818368E+01 -0.91899286190E+01 -0.93210168378E+03  0.94053471940E+03  0.12508838620E+03 0.  0.
          5    1    3    3  502    0  0.23856786309E+01  0.68076238225E+01 -0.10680617705E+00  0.83378061981E+01  0.41800000000E+01 0.  1.
         -5    1    3    3    0  502 -0.10160660468E+02 -0.15997552442E+02 -0.93199487760E+03  0.93219691320E+03  0.41800000000E+01 0.  1.
        -11    1    1    2    0    0 -0.22548791887E+02 -0.16036761683E+02 -0.11595427778E+02  0.30001328074E+02  0.00000000000E+00 0.  1.
         11    1    1    2    0    0  0.30323773724E+02  0.25226690302E+02 -0.15635546993E+03  0.16125430268E+03  0.00000000000E+00 0. -1.
</event>
<event>
 7    1  0.2688177E-009  0.1132490E+03  0.7561462E-02  0.1254669E+00
         -2   -1    0    0    0  501 -0.00000000000E+00  0.00000000000E+00  0.12602170130E+03  0.12602170130E+03  0.00000000000E+00 0.  1.
          2   -1    0    0  501    0  0.00000000000E+00 -0.00000000000E+00 -0.14813985671E+03  0.14813985671E+03  0.00000000000E+00 0. -1.
         25    2    1    2    0    0 -0.56706537631E+02 -0.30135823470E+02  0.40754290488E+02  0.14639718025E+03  0.12508965955E+03 0.  0.
          5    1    3    3  502    0 -0.78064472034E+02  0.22841845245E+02  0.35621005357E+02  0.88893982422E+02  0.41800000000E+01 0. -1.
         -5    1    3    3    0  502  0.21357934403E+02 -0.52977668715E+02  0.51332851310E+01  0.57503197830E+02  0.41800000000E+01 0. -1.
        -11    1    1    2    0    0  0.46793525998E+01  0.35196887939E+02  0.11086773674E+02  0.37197228551E+02  0.00000000000E+00 0.  1.
         11    1    1    2    0    0  0.52027185031E+02 -0.50610644694E+01 -0.73959219573E+02  0.90567149208E+02  0.00000000000E+00 0. -1.
</event>
<event>
 7    1  0.2688177E-009  0.1684443E+03  0.7561462E-02  0.1179480E+00
          3   -1    0    0  501    0  0.00000000000E+00  0.00000000000E+00  0.77465819987E+02  0.77465819987E+02  0.00000000000E+00 0. -1.
         -3   -1    0    0    0  501 -0.00000000000E+00 -0.00000000000E+00 -0.49523145074E+03  0.49523145074E+03  0.00000000000E+00 0.  1.
         25    2    1    2    0    0 -0.50970708628E+02  0.15124176430E+03 -0.16967401785E+03  0.26440258738E+03  0.12508945389E+03 0.  0.
          5    1    3    3  502    0 -0.26662754203E+02  0.59833971479E+02  0.48856576475E+01  0.65820579269E+02  0.41800000000E+01 0. -1.
         -5    1    3    3    0  502 -0.24307954426E+02  0.91407792816E+02 -0.17455967550E+03  0.19858200811E+03  0.41800000000E+01 0. -1.
        -11    1    1    2    0    0  0.46699000479E+02 -0.30547278866E+02 -0.43652031555E+02  0.70847955163E+02  0.00000000000E+00 0. -1.
         11    1    1    2    0    0  0.42717081494E+01 -0.12069448543E+03 -0.20443958135E+03  0.23744672819E+03  0.00000000000E+00 0.  1.
</event>
<event>
 7    1  0.2688177E-009  0.1091535E+03  0.7561462E-02  0.1262146E+00
         -2   -1    0    0    0  501 -0.00000000000E+00  0.00000000000E+00  0.22783825019E+02  0.22783825019E+02  0.00000000000E+00 0.  1.
          2   -1    0    0  501    0  0.00000000000E+00 -0.00000000000E+00 -0.81548260099E+03  0.81548260099E+03  0.00000000000E+00 0. -1.
         25    2    1    2    0    0  0.21868453224E+02 -0.15693978885E+01 -0.66914309065E+03  0.68108800169E+03  0.12509075916E+03 0.  0.
          5    1    3    3  502    0 -0.18521980639E+02  0.53507805212E+02 -0.24753120646E+03  0.25395928720E+03  0.41800000000E+01 0. -1.
         -5    1    3    3    0  502  0.40390433863E+02 -0.55077203101E+02 -0.42161188420E+03  0.42712871449E+03  0.41800000000E+01 0. -1.
        -11    1    1    2    0    0  0.32611066456E+02 -0.15367722722E+02 -0.27050811521E+02  0.45070999113E+02  0.00000000000E+00 0.  1.
         11    1    1    2    0    0 -0.54479519680E+02  0.16937120610E+02 -0.96504873800E+02  0.11210742521E+03  0.00000000000E+00 0. -1.
</event>
<event>
 7    1  0.2688177E-009  0.8930472E+02  0.7561462E-02  0.1304544E+00
         -3   -1    0    0    0  501 -0.00000000000E+00  0.00000000000E+00  0.25231670893E+02  0.25231670893E+02  0.00000000000E+00 0.  1.
          3   -1    0    0  501    0  0.00000000000E+00 -0.00000000000E+00 -0.50542980530E+03  0.50542980530E+03  0.00000000000E+00 0. -1.
         25    2    1    2    0    0  0.13636761088E+02  0.24014367284E+01 -0.27731979945E+03  0.30454194407E+03  0.12509115231E+03 0.  0.
          5    1    3    3  502    0  0.55804285206E+01  0.54791009071E+02 -0.63267213036E+02  0.83984573005E+02  0.41800000000E+01 0. -1.
         -5    1    3    3    0  502  0.80563325669E+01 -0.52389572342E+02 -0.21405258641E+03  0.22055737107E+03  0.41800000000E+01 0. -1.
        -11    1    1    2    0    0  0.25112294800E+02  0.13276747946E+02 -0.17153995834E+03  0.17387598078E+03  0.00000000000E+00 0. -1.
         11    1    1    2    0    0 -0.38749055888E+02 -0.15678184675E+02 -0.31338376625E+02  0.52243551338E+02  0.00000000000E+00 0.  1.
</event>
<event>
 7    1  0.2688177E-009  0.1226903E+03  0.7561462E-02  0.1238724E+00
         -2   -1    0    0    0  501 -0.00000000000E+00  0.00000000000E+00  0.75741893032E+03  0.75741893032E+03  0.00000000000E+00 0. -1.
          2   -1    0    0  501    0  0.00000000000E+00 -0.00000000000E+00 -0.34663542603E+02  0.34663542603E+02  0.00000000000E+00 0.  1.
         25    2    1    2    0    0 -0.84994400077E+02  0.55745323853E+02  0.53831290710E+03  0.56192251876E+03  0.12507814343E+03 0.  0.
          5    1    3    3  502    0  0.12797196046E+02 -0.14597321212E+02  0.23045699212E+03  0.23131093279E+03  0.41800000000E+01 0.  1.
         -5    1    3    3    0  502 -0.97791596124E+02  0.70342645065E+02  0.30785591498E+03  0.33061158597E+03  0.41800000000E+01 0.  1.
        -11    1    1    2    0    0  0.29322870492E+02 -0.34799181029E+02  0.11021662327E+02  0.46821904859E+02  0.00000000000E+00 0.  1.
         11    1    1    2    0    0  0.55671529585E+02 -0.20946142824E+02  0.17342081829E+03  0.18333804930E+03  0.00000000000E+00 0. -1.
</event>
<event>
 7    1  0.2688177E-009  0.1125884E+03  0.7561462E-02  0.1255850E+00
         -1   -1    0    0    0  501 -0.00000000000E+00  0.00000000000E+00  0.27369568292E+03  0.27369568292E+03  0.00000000000E+00 0.  1.
          1   -1    0    0  501    0  0.00000000000E+00 -0.00000000000E+00 -0.83193540531E+02  0.83193540531E+02  0.00000000000E+00 0. -1.
         25    2    1    2    0    0  0.48007846533E+02  0.28243860155E+02 -0.20383318015E+01  0.13694948391E+03  0.12509411409E+03 0.  0.
          5    1    3    3  502    0 -0.36784337832E+02  0.66290293670E+01  0.25126251379E+02  0.45230879368E+02  0.41800000000E+01 0.  1.
         -5    1    3    3    0  502  0.84792184365E+02  0.21614830788E+02 -0.27164583180E+02  0.91718604540E+02  0.41800000000E+01 0.  1.
        -11    1    1    2    0    0 -0.51048951693E+01 -0.51098288074E+02  0.61191566748E+02  0.79884309097E+02  0.00000000000E+00 0. -1.
         11    1    1    2    0    0 -0.42902951364E+02  0.22854427919E+02  0.13134890744E+03  0.14005543045E+03  0.00000000000E+00 0.  1.
</event>
<event>
 7    1  0.2688177E-009  0.1261137E+03  0.7561462E-02  0.1233339E+00
         -3   -1    0    0    0  501 -0.00000000000E+00  0.00000000000E+00  0.14770808704E+03  0.14770808704E+03  0.00000000000E+00 0.  1.
          3   -1    0    0  501    0  0.00000000000E+00 -0.00000000000E+00 -0.18631811567E+03  0.18631811567E+03  0.00000000000E+00 0. -1.
         25    2    1    2    0    0 -0.48971454733E+02 -0.10951608730E+03  0.14914911212E+02  0.17396261618E+03  0.12509420648E+03 0.  0.
          5    1    3    3  502    0 -0.15811584576E+02 -0.74602078669E+02  0.67937026223E+02  0.10221735802E+03  0.41800000000E+01 0. -1.
         -5    1    3    3    0  502 -0.33159870157E+02 -0.34914008634E+02 -0.53022115012E+02  0.71745258157E+02  0.41800000000E+01 0. -1.
        -11    1    1    2    0    0  0.32102348173E+01  0.60044402113E+02 -0.68377273325E+02  0.91055408077E+02  0.00000000000E+00 0. -1.
         11    1    1    2    0    0  0.45761219916E+02  0.49471685190E+02  0.14852333488E+02  0.69008178455E+02  0.00000000000E+00 0.  1.
</event>
<event>
 7    1  0.2688177E-009  0.1050845E+03  0.7561462E-02  0.1269953E+00
          2   -1    0    0  501    0  0.00000000000E+00  0.00000000000E+00  0.94416111358E+03  0.94416111358E+03  0.00000000000E+00 0. -1.
         -2   -1    0    0    0  501 -0.00000000000E+00 -0.00000000000E+00 -0.13970233876E+02  0.13970233876E+02  0.00000000000E+00 0.  1.
         25    2    1    2    0    0 -0.35308991059E+02 -0.13177419645E+02  0.56968851077E+03  0.58447682392E+03  0.12509112342E+03 0.  0.
          5    1    3    3  502    0 -0.78751138719E+02  0.11127944095E+02  0.31308890791E+03  0.32305991650E+03  0.41800000000E+01 0. -1.
         -5    1    3    3    0  502  0.43442147661E+02 -0.24305363739E+02  0.25659960285E+03  0.26141690742E+03  0.41800000000E+01 0. -1.
        -11    1    1    2    0    0 -0.69622825535E+01 -0.23559829980E+02  0.31641377181E+02  0.40058903092E+02  0.00000000000E+00 0.  1.
         11    1    1    2    0    0  0.42271273612E+02  0.36737249625E+02  0.32886099176E+03  0.33359562045E+03  0.00000000000E+00 0. -1.
</event>
<event>
 7    1  0.2688177E-009  0.3120556E+03  0.7561462E-02  0.1079365E+00
         -1   -1    0    0    0  501 -0.00000000000E+00  0.00000000000E+00  0.11510167264E+03  0.11510167264E+03  0.00000000000E+00 0.  1.
          1   -1    0    0  501    0  0.00000000000E+00 -0.00000000000E+00 -0.86531728454E+03  0.86531728454E+03  0.00000000000E+00 0. -1.
         25    2    1    2    0    0  0.25890606700E+03 -0.14202169837E+03 -0.36069157063E+03  0.48264903935E+03  0.12509664956E+03 0.  0.
          5    1    3    3  502    0  0.56240137930E+02 -0.94213235218E+02 -0.96063009094E+02  0.14589263491E+03  0.41800000000E+01 0. -1.
         -5    1    3    3    0  502  0.20266592907E+03 -0.47808463149E+02 -0.26462856153E+03  0.33675640444E+03  0.41800000000E+01 0. -1.
        -11    1    1    2    0    0 -0.18782569069E+03  0.14115338883E+03 -0.32975406217E+03  0.40489567888E+03  0.00000000000E+00 0. -1.
         11    1    1    2    0    0 -0.71080376315E+02  0.86830953615E+00 -0.59769979095E+02  0.92874238945E+02  0.00000000000E+00 0.  1.
</event>
<event>
 7    1  0.2688177E-009  0.1857924E+03  0.7561462E-02  0.1162312E+00
         -2   -1    0    0    0  501 -0.00000000000E+00  0.00000000000E+00  0.49604796600E+03  0.49604796600E+03  0.00000000000E+00 0. -1.
          2   -1    0    0  501    0  0.00000000000E+00 -0.00000000000E+00 -0.80882429323E+02  0.80882429323E+02  0.00000000000E+00 0.  1.
         25    2    1    2    0    0  0.15660635008E+03 -0.39302863683E+02  0.24911170755E+03  0.32214084019E+03  0.12509122313E+03 0.  0.
          5    1    3    3  502    0  0.78124852515E+02  0.18987710465E+02  0.37113968000E+02  0.88650689506E+02  0.41800000000E+01 0.  1.
         -5    1    3    3    0  502  0.78481497566E+02 -0.58290574148E+02  0.21199773955E+03  0.23349015069E+03  0.41800000000E+01 0.  1.
        -11    1    1    2    0    0 -0.13828508317E+03 -0.11947705895E+02  0.12085436503E+03  0.18404154273E+03  0.00000000000E+00 0. -1.
         11    1    1    2    0    0 -0.18321266909E+02  0.51250569579E+02  0.45199464101E+02  0.70748012398E+02  0.00000000000E+00 0.  1.
</event>
<event>
 7    1  0.2688177E-009  0.9550929E+02  0.7561462E-02  0.1290033E+00
          3   -1    0    0  501    0  0.00000000000E+00  0.00000000000E+00  0.42692990430E+03  0.42692990430E+03  0.00000000000E+00 0. -1.
         -3   -1    0    0    0  501 -0.00000000000E+00 -0.00000000000E+00 -0.46903341989E+02  0.46903341989E+02  0.00000000000E+00 0.  1.
         25    2    1    2    0    0  0.63588492520E+02 -0.35314236691E+02  0.29678933281E+03  0.33018453632E+03  0.12508928115E+03 0.  0.
          5    1    3    3  502    0 -0.17766006975E+02  0.14015679803E+02  0.17032521432E+03  0.17187268927E+03  0.41800000000E+01 0.  1.
         -5    1    3    3    0  502  0.81354499495E+02 -0.49329916494E+02  0.12646411849E+03  0.15831184704E+03  0.41800000000E+01 0.  1.
        -11    1    1    2    0    0 -0.25924769542E+02  0.15698293499E+02  0.94890587602E+02  0.99613019782E+02  0.00000000000E+00 0. -1.
         11    1    1    2    0    0 -0.37663722978E+02  0.19615943192E+02 -0.11653358097E+02  0.44035690193E+02  0.00000000000E+00 0.  1.
</event>
<event>
 7    1  0.2688177E-009  0.1004234E+03  0.7561462E-02  0.1279408E+00
         -2   -1    0    0    0  501 -0.00000000000E+00  0.00000000000E+00  0.12451398435E+03  0.12451398435E+03  0.00000000000E+00 0.  1.
          2   -1    0    0  501    0  0.00000000000E+00 -0.00000000000E+00 -0.12986586806E+03  0.12986586806E+03  0.00000000000E+00 0. -1.
         25    2    1    2    0    0 -0.58662805445E+01 -0.61575936290E+02  0.13797669914E+02  0.14024631088E+03  0.12511052251E+03 0.  0.
          5    1    3    3  502    0  0.27009097666E+02 -0.14909946874E+02 -0.47236490034E+02  0.56573459000E+02  0.41800000000E+01 0. -1.
         -5    1    3    3    0  502 -0.32875378211E+02 -0.46665989416E+02  0.61034159947E+02  0.83672851877E+02  0.41800000000E+01 0. -1.
        -11    1    1    2    0    0 -0.32575567244E+02 -0.74976465111E+01 -0.43359092517E+01  0.33707304750E+02  0.00000000000E+00 0.  1.
         11    1    1    2    0    0  0.38441847789E+02  0.69073582801E+02 -0.14813644373E+02  0.80426236776E+02  0.00000000000E+00 0. -1.
</event>
<event>
 7    1  0.2688177E-009  0.9631541E+02  0.7561462E-02  0.1288241E+00
          2   -1    0    0  501    0  0.00000000000E+00  0.00000000000E+00  0.24446905701E+03  0.24446905701E+03  0.00000000000E+00 0. -1.
         -2   -1    0    0    0  501 -0.00000000000E+00 -0.00000000000E+00 -0.73760465423E+02  0.73760465423E+02  0.00000000000E+00 0.  1.
         25    2    1    2    0    0 -0.49329049746E+02 -0.30898349181E+02  0.15974896141E+03  0.21108503283E+03  0.12509635198E+03 0.  0.
          5    1    3    3  502    0  0.15787758154E+02  0.72196117641E+01 -0.13293600070E+02  0.22261363489E+02  0.41800000000E+01 0. -1.
         -5    1    3    3    0  502 -0.65116807900E+02 -0.38117960946E+02  0.17304256148E+03  0.18882366934E+03  0.41800000000E+01 0. -1.
        -11    1    1    2    0    0 -0.21761940130E+02  0.18219091125E+00 -0.13883813074E+02  0.25814249887E+02  0.00000000000E+00 0.  1.
         11    1    1    2    0    0  0.71090989877E+02  0.30716158270E+02  0.24843443250E+02  0.81330239721E+02  0.00000000000E+00 0. -1.
</event>
<event>
 7    1  0.2688177E-009  0.1754542E+03  0.7561462E-02  0.1172276E+00
          4   -1    0    0  501    0  0.00000000000E+00  0.00000000000E+00  0.16419605560E+03  0.16419605560E+03  0.00000000000E+00 0. -1.
         -4   -1    0    0    0  501 -0.00000000000E+00 -0.00000000000E+00 -0.19261040436E+03  0.19261040436E+03  0.00000000000E+00 0.  1.
         25    2    1    2    0    0 -0.12505454598E+03  0.68386772733E+02 -0.23087000329E+02  0.19104060294E+03  0.12509241476E+03 0.  0.
          5    1    3    3  502    0 -0.54053873173E+02  0.95756323723E+02  0.41349481056E+01  0.11011659700E+03  0.41800000000E+01 0. -1.
         -5    1    3    3    0  502 -0.71000672810E+02 -0.27369550990E+02 -0.27221948435E+02  0.80924005940E+02  0.41800000000E+01 0. -1.
        -11    1    1    2    0    0  0.23829766170E+02 -0.58243496462E+02  0.68780254643E+01  0.63304580167E+02  0.00000000000E+00 0.  1.
         11    1    1    2    0    0  0.10122477981E+03 -0.10143276271E+02 -0.12205373896E+02  0.10246127685E+03  0.00000000000E+00 0. -1.
</event>
<event>
 7    1  0.2688177E-009  0.1226598E+03  0.7561462E-02  0.1238773E+00
          3   -1    0    0  501    0  0.00000000000E+00  0.00000000000E+00  0.31511457313E+03  0.31511457313E+03  0.00000000000E+00 0. -1.
         -3   -1    0    0    0  501 -0.00000000000E+00 -0.00000000000E+00 -0.52868075235E+02  0.52868075235E+02  0.00000000000E+00 0.  1.
         25    2    1    2    0    0  0.64980956886E+02 -0.49591984466E+01  0.18920103719E+03  0.23599113090E+03  0.12509061908E+03 0.  0.
          5    1    3    3  502    0 -0.36224050752E+02  0.11914027229E+02  0.51211643200E+02  0.63986175827E+02  0.41800000000E+01 0. -1.
         -5    1    3    3    0  502  0.10120500764E+03 -0.16873225675E+02  0.13798939399E+03  0.17200495507E+03  0.41800000000E+01 0. -1.
        -11    1    1    2    0    0 -0.73834757978E+02  0.28481600709E+02  0.35323232058E+02  0.86663162807E+02  0.00000000000E+00 0.  1.
         11    1    1    2    0    0  0.88538010918E+01 -0.23522402262E+02  0.37722228639E+02  0.45328354652E+02  0.00000000000E+00 0. -1.
</event>
<event>
 7    1  0.2688177E-009  0.2136148E+03  0.7561462E-02  0.1138735E+00
          1   -1    0    0  501    0  0.00000000000E+00  0.00000000000E+00  0.50160619428E+03  0.50160619428E+03  0.00000000000E+00 0. -1.
         -1   -1    0    0    0  501 -0.00000000000E+00 -0.00000000000E+00 -0.12783959271E+03  0.12783959271E+03  0.00000000000E+00 0.  1.
         25    2    1    2    0    0  0.16166558967E+03  0.12976985925E+03  0.72446673086E+02  0.25272899860E+03  0.12508975593E+03 0.  0.
          5    1    3    3  502    0  0.96847123514E+02  0.89192958330E+02  0.10603401783E+03  0.16910184649E+03  0.41800000000E+01 0.  1.
         -5    1    3    3    0  502  0.64818466155E+02  0.40576900921E+02 -0.33587344743E+02  0.83627152110E+02  0.41800000000E+01 0.  1.
        -11    1    1    2    0    0 -0.13744040214E+03 -0.69612916406E+02  0.16493021162E+03  0.22569403399E+03  0.00000000000E+00 0.  1.
         11    1    1    2    0    0 -0.24225187531E+02 -0.60156942845E+02  0.13638971686E+03  0.15102275440E+03  0.00000000000E+00 0. -1.
</event>
<event>
 7    1  0.2688177E-009  0.1372708E+03  0.7561462E-02  0.1217049E+00
         -2   -1    0    0    0  501 -0.00000000000E+00  0.00000000000E+00  0.85133451835E+02  0.85133451835E+02  0.00000000000E+00 0.  1.
          2   -1    0    0  501    0  0.00000000000E+00 -0.00000000000E+00 -0.36706974875E+03  0.36706974875E+03  0.00000000000E+00 0. -1.
         25    2    1    2    0    0  0.11683888719E+03  0.67854312989E+02 -0.11345989922E+03  0.21627871164E+03  0.12509116286E+03 0.  0.
          5    1    3    3  502    0  0.54449087529E+02  0.29573709449E+02  0.18946431059E+02  0.64928784627E+02  0.41800000000E+01 0.  1.
         -5    1    3    3    0  502  0.62389799662E+02  0.38280603540E+02 -0.13240633028E+03  0.15134992701E+03  0.41800000000E+01 0.  1.
        -11    1    1    2    0    0 -0.51552430293E+02 -0.11368328975E+02 -0.75828887746E+01  0.53332843305E+02  0.00000000000E+00 0.  1.
         11    1    1    2    0    0 -0.65286456898E+02 -0.56485984014E+02 -0.16089350892E+03  0.18259164564E+03  0.00000000000E+00 0. -1.
</event>
<event>
 7    1  0.2688177E-009  0.1142310E+03  0.7561462E-02  0.1252929E+00
          3   -1    0    0  501    0  0.00000000000E+00  0.00000000000E+00  0.11411030690E+03  0.11411030690E+03  0.00000000000E+00 0. -1.
         -3   -1    0    0    0  501 -0.00000000000E+00 -0.00000000000E+00 -0.13599203354E+03  0.13599203354E+03  0.00000000000E+00 0.  1.
         25    2    1    2    0    0 -0.56664374132E+02 -0.14488219860E+02  0.69523477817E+00  0.13808902798E+03  0.12508931404E+03 0.  0.
          5    1    3    3  502    0  0.23718188097E+02  0.22036128961E+02  0.30633305602E+02  0.44766228770E+02  0.41800000000E+01 0. -1.
         -5    1    3    3    0  502 -0.80382562229E+02 -0.36524348821E+02 -0.29938070824E+02  0.93322799208E+02  0.41800000000E+01 0. -1.
        -11    1    1    2    0    0  0.55539750347E+02  0.48295957491E+02 -0.25896685736E+02  0.78024366134E+02  0.00000000000E+00 0. -1.
         11    1    1    2    0    0  0.11246237857E+01 -0.33807737631E+02  0.33197243166E+01  0.33988946320E+02  0.00000000000E+00 0.  1.
</event>
<event>
 7    1  0.2688177E-009  0.9832866E+02  0.7561462E-02  0.1283850E+00
          2   -1    0    0  501    0  0.00000000000E+00  0.00000000000E+00  0.18195022684E+03  0.18195022684E+03  0.00000000000E+00 0. -1.
         -2   -1    0    0    0  501 -0.00000000000E+00 -0.00000000000E+00 -0.68213931990E+02  0.68213931990E+02  0.00000000000E+00 0.  1.
         25    2    1    2    0    0  0.15674671329E+02  0.19720034221E+02  0.61691978341E+02  0.14172629600E+03  0.12508344301E+03 0.  0.
          5    1    3    3  502    0 -0.41657677658E+02  0.39884939571E+01  0.69888737668E+02  0.81567016892E+02  0.41800000000E+01 0. -1.
         -5    1    3    3    0  502  0.57332348987E+02  0.15731540264E+02 -0.81967593273E+01  0.60159279109E+02  0.41800000000E+01 0. -1.
        -11    1    1    2    0    0 -0.46506329694E+02  0.14717925145E+02  0.29549479956E+02  0.57031813822E+02  0.00000000000E+00 0.  1.
         11    1    1    2    0    0  0.30831658364E+02 -0.34437959366E+02  0.22494836551E+02  0.51406049004E+02  0.00000000000E+00 0. -1.
</event>
<event>
 6    1  0.2688177E-009  0.1650022E+03  0.7561462E-02  0.1183162E+00
          1   -1    0    0  501    0  0.00000000000E+00  0.00000000000E+00  0.50314275452E+03  0.50314275452E+03  0.00000000000E+00 0. -1.
         -1   -1    0    0    0  501 -0.00000000000E+00 -0.00000000000E+00 -0.92838714946E+02  0.92838714946E+02  0.00000000000E+00 0.  1.
          5    1    1    2  502    0  0.10167023168E+03  0.21865613793E+02 -0.23196456772E+02  0.10663249544E+03  0.41800000000E+01 0. -1.
         -5    1    1    2    0  502  0.50898530060E+02 -0.92248165174E+01  0.86555560148E+02  0.10092123163E+03  0.41800000000E+01 0. -1.
        -11    1    1    2    0    0  0.58681732313E+01 -0.14434969910E+02  0.22618342724E+02  0.27466219998E+02  0.00000000000E+00 0.  1.
         11    1    1    2    0    0 -0.15843693497E+03  0.17941726346E+01  0.32432659348E+03  0.36096152240E+03  0.00000000000E+00 0. -1.
</event>
<event>
 7    1  0.2688177E-009  0.9729038E+02  0.7561462E-02  0.1286099E+00
         -1   -1    0    0    0  501 -0.00000000000E+00  0.00000000000E+00  0.44177987822E+02  0.44177987822E+02  0.00000000000E+00 0. -1.
          1   -1    0    0  501    0  0.00000000000E+00 -0.00000000000E+00 -0.36324499536E+03  0.36324499536E+03  0.00000000000E+00 0.  1.
         25    2    1    2    0    0  0.14883124461E+02 -0.41279199713E+02 -0.25385868609E+03  0.28638711269E+03  0.12509143091E+03 0.  0.
          5    1    3    3  502    0  0.85281881402E+01 -0.66444161881E+02 -0.25114351016E+03  0.25995786531E+03  0.41800000000E+01 0.  1.
         -5    1    3    3    0  502  0.63549363209E+01  0.25164962167E+02 -0.27151759298E+01  0.26429247376E+02  0.41800000000E+01 0.  1.
        -11    1    1    2    0    0  0.29811783512E+02 -0.11551269540E+02 -0.27821774119E+02  0.42381899194E+02  0.00000000000E+00 0.  1.
         11    1    1    2    0    0 -0.44694907973E+02  0.52830469253E+02 -0.37386547325E+02  0.78653971299E+02  0.00000000000E+00 0. -1.
</event>
<event>
 7    1  0.2688177E-009  0.3708179E+03  0.7561462E-02  0.1054381E+00
         -1   -1    0    0    0  501 -0.00000000000E+00  0.00000000000E+00  0.21931506589E+04  0.21931506589E+04  0.00000000000E+00 0.  1.
          1   -1    0    0  501    0  0.00000000000E+00 -0.00000000000E+00 -0.72984235653E+02  0.72984235653E+02  0.00000000000E+00 0. -1.
         25    2    1    2    0    0  0.28107004745E+03 -0.22975811175E+03  0.71119545197E+03  0.80823016502E+03  0.12509143556E+03 0.  0.
          5    1    3    3  502    0  0.39234611293E+02 -0.93749347826E+01  0.17860620008E+03  0.18315264462E+03  0.41800000000E+01 0.  1.
         -5    1    3    3    0  502  0.24183543616E+03 -0.22038317697E+03  0.53258925189E+03  0.62507752040E+03  0.41800000000E+01 0.  1.
        -11    1    1    2    0    0 -0.13968406030E+03  0.17088395834E+03  0.87465843824E+03  0.90207557749E+03  0.00000000000E+00 0. -1.
         11    1    1    2    0    0 -0.14138598715E+03  0.58874153413E+02  0.53431253299E+03  0.55582915200E+03  0.00000000000E+00 0.  1.
</event>
<event>
 7    1  0.4783562E-009  0.1202341E+03  0.7561462E-02  0.1242711E+00
         -2   -1    0    0    0  501 -0.00000000000E+00  0.00000000000E+00  0.33571306571E+02  0.33571306571E+02  0.00000000000E+00 0.  1.
          2   -1    0    0  501    0  0.00000000000E+00 -0.00000000000E+00 -0.65550993819E+03  0.65550993819E+03  0.00000000000E+00 0. -1.
         25    2    1    2    0    0 -0.69331050184E+02 -0.72499151851E+02 -0.30991905736E+03  0.34894190960E+03  0.12509081750E+03 0.  0.
          5    1    3    3  502    0 -0.17476271740E+02  0.24306527347E+02 -0.14072648491E+02  0.33342753053E+02  0.41800000000E+01 0.  1.
         -5    1    3    3    0  502 -0.51854778444E+02 -0.96805679198E+02 -0.29584640887E+03  0.31559915655E+03  0.41800000000E+01 0.  1.
        -11    1    1    2    0    0  0.34724591079E+02  0.34602978405E+02 -0.39856271729E+02  0.63179788985E+02  0.00000000000E+00 0.  1.
         11    1    1    2    0    0  0.34606459105E+02  0.37896173446E+02 -0.27216330253E+03  0.27695954618E+03  0.00000000000E+00 0. -1.
</event>
<event>
 7    1  0.2688177E-009  0.1427837E+03  0.7561462E-02  0.1209632E+00
          2   -1    0    0  501    0  0.00000000000E+00  0.00000000000E+00  0.11858165752E+04  0.11858165752E+04  0.00000000000E+00 0. -1.
         -2   -1    0    0    0  501 -0.00000000000E+00 -0.00000000000E+00 -0.17610151348E+02  0.17610151348E+02  0.00000000000E+00 0.  1.
         25    2    1    2    0    0 -0.89971869714E+02 -0.28275892363E+02  0.58187128971E+03  0.60259106174E+03  0.12508927399E+03 0.  0.
          5    1    3    3  502    0 -0.21261154527E+02  0.47381407588E+02  0.24749657174E+03  0.25292105468E+03  0.41800000000E+01 0.  1.
         -5    1    3    3    0  502 -0.68710715188E+02 -0.75657299952E+02  0.33437471798E+03  0.34967000706E+03  0.41800000000E+01 0.  1.
        -11    1    1    2    0    0  0.10613494266E+03  0.97322050308E+01  0.48090908939E+03  0.49257780515E+03  0.00000000000E+00 0.  1.
         11    1    1    2    0    0 -0.16163072947E+02  0.18543687332E+02  0.10542604479E+03  0.10825785970E+03  0.00000000000E+00 0. -1.
</event>
<event>
 7    1  0.3070892E-009  0.1301442E+03  0.7561462E-02  0.1227242E+00
         -2   -1    0    0    0  501 -0.00000000000E+00  0.00000000000E+00  0.15091876398E+02  0.15091876398E+02  0.00000000000E+00 0.  1.
          2   -1    0    0  501    0  0.00000000000E+00 -0.00000000000E+00 -0.15471494060E+04  0.15471494060E+04  0.00000000000E+00 0. -1.
         25    2    1    2    0    0 -0.44380666286E+02  0.60677690181E+02 -0.12149246511E+04  0.12236588290E+04  0.12509035262E+03 0.  0.
          5    1    3    3  502    0 -0.76777430910E+02  0.77522514711E+02 -0.90684314937E+03  0.91339284218E+03  0.41800000000E+01 0.  1.
         -5    1    3    3    0  502  0.32396764623E+02 -0.16844824530E+02 -0.30808150169E+03  0.31026598678E+03  0.41800000000E+01 0.  1.
        -11    1    1    2    0    0 -0.12930697572E+02 -0.55292081181E+02 -0.20246066058E+03  0.21027300412E+03  0.00000000000E+00 0. -1.
         11    1    1    2    0    0  0.57311363858E+02 -0.53856090008E+01 -0.11467221801E+03  0.12830944936E+03  0.00000000000E+00 0.  1.
</event>
<event>
 7    1  0.2688177E-009  0.1114206E+03  0.7561462E-02  0.1257961E+00
         -1   -1    0    0    0  501 -0.00000000000E+00  0.00000000000E+00  0.31012316469E+03  0.31012316469E+03  0.00000000000E+00 0.  1.
          1   -1    0    0  501    0  0.00000000000E+00 -0.00000000000E+00 -0.78361045297E+02  0.78361045297E+02  0.00000000000E+00 0. -1.
         25    2    1    2    0    0  0.69800502971E+02 -0.86276013936E+02  0.11895885662E+03  0.20521513755E+03  0.12508550002E+03 0.  0.
          5    1    3    3  502    0  0.48801746753E+02 -0.57705642150E+02 -0.53515649785E+01  0.75879267721E+02  0.41800000000E+01 0.  1.
         -5    1    3    3    0  502  0.20998756218E+02 -0.28570371786E+02  0.12431042160E+03  0.12933586983E+03  0.41800000000E+01 0.  1.
        -11    1    1    2    0    0 -0.14395094013E+02  0.11740790995E+02  0.84004981384E+02  0.86034305961E+02  0.00000000000E+00 0.  1.
         11    1    1    2    0    0 -0.55405408958E+02  0.74535222940E+02  0.28798281388E+02  0.97234766475E+02  0.00000000000E+00 0. -1.
</event>
<event>
 7    1  0.2688177E-009  0.8733240E+02  0.7561462E-02  0.1309443E+00
         -1   -1    0    0    0  501 -0.00000000000E+00  0.00000000000E+00  0.56251175591E+02  0.56251175591E+02  0.00000000000E+00 0.  1.
          1   -1    0    0  501    0  0.00000000000E+00 -0.00000000000E+00 -0.28355675288E+03  0.28355675288E+03  0.00000000000E+00 0. -1.
         25    2    1    2    0    0 -0.47788717501E+02 -0.44685328907E+02 -0.12878677451E+03  0.19108775719E+03  0.12509179637E+03 0.  0.
          5    1    3    3  502    0  0.12512896553E+02  0.66162784689E+01  0.18591815036E+02  0.23737643254E+02  0.41800000000E+01 0. -1.
         -5    1    3    3    0  502 -0.60301614054E+02 -0.51301607376E+02 -0.14737858955E+03  0.16735011393E+03  0.41800000000E+01 0. -1.
        -11    1    1    2    0    0  0.10867993458E+02  0.42247618674E+02 -0.15083043678E+00  0.43623357450E+02  0.00000000000E+00 0.  1.
         11    1    1    2    0    0  0.36920724043E+02  0.24377102334E+01 -0.98367972346E+02  0.10509681384E+03  0.00000000000E+00 0. -1.
</event>
<event>
 6    1  0.2688177E-009  0.1762040E+03  0.7561462E-02  0.1171528E+00
         -2   -1    0    0    0  501 -0.00000000000E+00  0.00000000000E+00  0.41560556407E+02  0.41560556407E+02  0.00000000000E+00 0.  1.
          2   -1    0    0  501    0  0.00000000000E+00 -0.00000000000E+00 -0.13863343251E+04  0.13863343251E+04  0.00000000000E+00 0. -1.
          5    1    1    2  502    0  0.66267561038E+02 -0.97981312861E+02 -0.45348189830E+03  0.46867369437E+03  0.41800000000E+01 0.  1.
         -5    1    1    2    0  502 -0.25141450701E+02 -0.54390994604E+02 -0.67129257387E+03  0.67397452842E+03  0.41800000000E+01 0.  1.
        -11    1    1    2    0    0 -0.12527346184E+02  0.14348893398E+03 -0.14450035158E+03  0.20402539102E+03  0.00000000000E+00 0.  1.
         11    1    1    2    0    0 -0.28598764154E+02  0.88833734882E+01 -0.75498944995E+02  0.81221267725E+02  0.00000000000E+00 0. -1.
</event>
<event>
 7    1  0.2688177E-009  0.8133033E+02  0.7561462E-02  0.1325318E+00
         -2   -1    0    0    0  501 -0.00000000000E+00  0.00000000000E+00  0.30664869242E+02  0.30664869242E+02  0.00000000000E+00 0.  1.
          2   -1    0    0  501    0  0.00000000000E+00 -0.00000000000E+00 -0.60703487738E+03  0.60703487738E+03  0.00000000000E+00 0. -1.
         25    2    1    2    0    0 -0.13540046471E+02 -0.23053448076E+02 -0.48239753426E+03  0.49907005681E+03  0.12509494882E+03 0.  0.
          5    1    3    3  502    0 -0.48301988113E+01 -0.40442893625E+02 -0.43560992704E+02  0.59782865025E+02  0.41800000000E+01 0.  1.
         -5    1    3    3    0  502 -0.87098476594E+01  0.17389445549E+02 -0.43883654155E+03  0.43928719178E+03  0.41800000000E+01 0.  1.
        -11    1    1    2    0    0  0.32874979790E+01  0.61726783960E+02 -0.59950463695E+02  0.86110751931E+02  0.00000000000E+00 0. -1.
         11    1    1    2    0    0  0.10252548492E+02 -0.38673335884E+02 -0.34022010183E+02  0.52518937878E+02  0.00000000000E+00 0.  1.
</event>
<event>
 7    1  0.2688177E-009  0.1263487E+03  0.7561462E-02  0.1232976E+00
          2   -1    0    0  501    0  0.00000000000E+00  0.00000000000E+00  0.81459177746E+03  0.81459177746E+03  0.00000000000E+00 0.  1.
         -2   -1    0    0    0  501 -0.00000000000E+00 -0.00000000000E+00 -0.27866560684E+02  0.27866560684E+02  0.00000000000E+00 0. -1.
         25    2    1    2    0    0 -0.50591799582E+02  0.88662548235E+02  0.35791574255E+03  0.39264735597E+03  0.12509072604E+03 0.  0.
          5    1    3    3  502    0  0.29122522511E+02  0.13566044433E+02  0.21633980074E+02  0.38957160739E+02  0.41800000000E+01 0. -1.
         -5    1    3    3    0  502 -0.79714322093E+02  0.75096503802E+02  0.33628176247E+03  0.35369019523E+03  0.41800000000E+01 0. -1.
        -11    1    1    2    0    0  0.28343088721E+02 -0.11827683603E+02  0.29558034483E+02  0.42625135544E+02  0.00000000000E+00 0.  1.
         11    1    1    2    0    0  0.22248710861E+02 -0.76834864632E+02  0.39925143975E+03  0.40718584664E+03  0.00000000000E+00 0. -1.
</event>
<event>
 7    1  0.2688177E-009  0.1077027E+03  0.7561462E-02  0.1264884E+00
         -1   -1    0    0    0  501 -0.00000000000E+00  0.00000000000E+00  0.42746433363E+02  0.42746433363E+02  0.00000000000E+00 0.  1.
          1   -1    0    0  501    0  0.00000000000E+00 -0.00000000000E+00 -0.36120273538E+03  0.36120273538E+03  0.00000000000E+00 0. -1.
         25    2    1    2    0    0  0.43027751197E+02 -0.13760473191E+02 -0.23152387195E+03  0.26700587969E+03  0.12509235993E+03 0.  0.
          5    1    3    3  502    0 -0.35938977701E+02 -0.16458802828E+02 -0.27938280071E+02  0.48585205588E+02  0.41800000000E+01 0.  1.
         -5    1    3    3    0  502  0.78966728898E+02  0.26983296372E+01 -0.20358559188E+03  0.21842067410E+03  0.41800000000E+01 0.  1.
        -11    1    1    2    0    0 -0.10574412067E+01  0.44498274579E+02 -0.68620151811E+02  0.81792052529E+02  0.00000000000E+00 0. -1.
         11    1    1    2    0    0 -0.41970309990E+02 -0.30737801388E+02 -0.18312278256E+02  0.55151236521E+02  0.00000000000E+00 0.  1.
</event>
<event>
 7    1  0.2688177E-009  0.1029830E+03  0.7561462E-02  0.1274145E+00
         -1   -1    0    0    0  501 -0.00000000000E+00  0.00000000000E+00  0.22080683645E+02  0.22080683645E+02  0.00000000000E+00 0.  1.
          1   -1    0    0  501    0  0.00000000000E+00 -0.00000000000E+00 -0.59691082659E+03  0.59691082659E+03  0.00000000000E+00 0. -1.
         25    2    1    2    0    0 -0.34025263064E+02  0.94081057631E+01 -0.28808985836E+03  0.31605261057E+03  0.12508898903E+03 0.  0.
          5    1    3    3  502    0 -0.22167748866E+02  0.61350365170E+02 -0.21993650933E+03  0.22944458357E+03  0.41800000000E+01 0. -1.
         -5    1    3    3    0  502 -0.11857514199E+02 -0.51942259407E+02 -0.68153349031E+02  0.86608026992E+02  0.41800000000E+01 0. -1.
        -11    1    1    2    0    0 -0.15000896562E+02 -0.30343041260E+02 -0.50749531741E+02  0.61001983758E+02  0.00000000000E+00 0.  1.
         11    1    1    2    0    0  0.49026159627E+02  0.20934935496E+02 -0.23599075285E+03  0.24193691592E+03  0.00000000000E+00 0. -1.
</event>
<event>
 7    1  0.2688177E-009  0.1021308E+03  0.7561462E-02  0.1275878E+00
         -1   -1    0    0    0  501 -0.00000000000E+00  0.00000000000E+00  0.13170705640E+03  0.13170705640E+03  0.00000000000E+00 0.  1.
          1   -1    0    0  501    0  0.00000000000E+00 -0.00000000000E+00 -0.22965627396E+03  0.22965627396E+03  0.00000000000E+00 0. -1.
         25    2    1    2    0    0 -0.27706217867E+02 -0.28183825044E+02  0.83154947763E+02  0.15531927881E+03  0.12508945012E+03 0.  0.
          5    1    3    3  502    0 -0.38879716525E+02  0.33722637590E+02  0.75981818057E+02  0.91867065472E+02  0.41800000000E+01 0. -1.
         -5    1    3    3    0  502  0.11173498659E+02 -0.61906462634E+02  0.71731297052E+01  0.63452213341E+02  0.41800000000E+01 0. -1.
        -11    1    1    2    0    0  0.13750989213E+02 -0.28264476675E+02 -0.10885368927E+03  0.11330090914E+03  0.00000000000E+00 0. -1.
         11    1    1    2    0    0  0.13955228654E+02  0.56448301718E+02 -0.72250476046E+02  0.92743142402E+02  0.00000000000E+00 0.  1.
</event>
<event>
 7    1  0.2688177E-009  0.8377816E+02  0.7561462E-02  0.1318659E+00
         -2   -1    0    0    0  501 -0.00000000000E+00  0.00000000000E+00  0.17958243439E+03  0.17958243439E+03  0.00000000000E+00 0.  1.
          2   -1    0    0  501    0  0.00000000000E+00 -0.00000000000E+00 -0.67058895925E+02  0.67058895925E+02  0.00000000000E+00 0. -1.
         25    2    1    2    0    0 -0.18956140444E+02 -0.55734223965E+01  0.62706950264E+02  0.14131417090E+03  0.12508850862E+03 0.  0.
          5    1    3    3  502    0  0.41799333254E+02 -0.38615413103E+02  0.33125073627E+02  0.65977854560E+02  0.41800000000E+01 0. -1.
         -5    1    3    3    0  502 -0.60755473698E+02  0.33041990706E+02  0.29581876638E+02  0.75336316339E+02  0.41800000000E+01 0. -1.
        -11    1    1    2    0    0 -0.30474681509E+01 -0.12419266175E+02  0.69555963622E+02  0.70721689105E+02  0.00000000000E+00 0.  1.
         11    1    1    2    0    0  0.22003608595E+02  0.17992688571E+02 -0.19739375423E+02  0.34605470309E+02  0.00000000000E+00 0. -1.
</event>
<event>
 7    1  0.2688177E-009  0.2330496E+03  0.7561462E-02  0.1124512E+00
         -2   -1    0    0    0  501 -0.00000000000E+00  0.00000000000E+00  0.81262013731E+02  0.81262013731E+02  0.00000000000E+00 0.  1.
          2   -1    0    0  501    0  0.00000000000E+00 -0.00000000000E+00 -0.77886527101E+03  0.77886527101E+03  0.00000000000E+00 0. -1.
         25    2    1    2    0    0 -0.17819808493E+03  0.13967333795E+03 -0.35363602151E+03  0.43814110769E+03  0.12508395471E+03 0.  0.
          5    1    3    3  502    0 -0.59611651397E+02  0.11713872863E+02 -0.18770714638E+03  0.19733780429E+03  0.41800000000E+01 0. -1.
         -5    1    3    3    0  502 -0.11858643353E+03  0.12795946509E+03 -0.16592887513E+03  0.24080330340E+03  0.41800000000E+01 0. -1.
        -11    1    1    2    0    0  0.10751592950E+03 -0.56212306818E+02 -0.24963358465E+03  0.27755436426E+03  0.00000000000E+00 0.  1.
         11    1    1    2    0    0  0.70682155426E+02 -0.83461031135E+02 -0.94333651114E+02  0.14443181279E+03  0.00000000000E+00 0. -1.
</event>
<event>
 7    1  0.2688177E-009  0.1353998E+03  0.7561462E-02  0.1219656E+00
          1   -1    0    0  501    0  0.00000000000E+00  0.00000000000E+00  0.19924061359E+03  0.19924061359E+03  0.00000000000E+00 0. -1.
         -1   -1    0    0    0  501 -0.00000000000E+00 -0.00000000000E+00 -0.12893275585E+03  0.12893275585E+03  0.00000000000E+00 0.  1.
         25    2    1    2    0    0  0.10792058956E+03  0.86515284840E+01  0.18283186964E+01  0.16545170091E+03  0.12509684244E+03 0.  0.
          5    1    3    3  502    0  0.53102167962E+02  0.41563844669E+02  0.51025933321E+02  0.84667063828E+02  0.41800000000E+01 0.  1.
         -5    1    3    3    0  502  0.54818421600E+02 -0.32912316185E+02 -0.49197614625E+02  0.80784637080E+02  0.41800000000E+01 0.  1.
        -11    1    1    2    0    0  0.14702752172E+02  0.55528240334E+01  0.29232509655E+02  0.33189522396E+02  0.00000000000E+00 0. -1.
         11    1    1    2    0    0 -0.12262334173E+03 -0.14204352517E+02  0.39247029391E+02  0.12953214614E+03  0.00000000000E+00 0.  1.
</event>
<event>
 7    1  0.2688177E-009  0.1469509E+03  0.7561462E-02  0.1204271E+00
         -1   -1    0    0    0  501 -0.00000000000E+00  0.00000000000E+00  0.12946021977E+03  0.12946021977E+03  0.00000000000E+00 0.  1.
          1   -1    0    0  501    0  0.00000000000E+00 -0.00000000000E+00 -0.22372679878E+03  0.22372679878E+03  0.00000000000E+00 0. -1.
         25    2    1    2    0    0 -0.76077320388E+02  0.85955951901E+02 -0.11991342223E+03  0.20785046244E+03  0.12508557696E+03 0.  0.
          5    1    3    3  502    0  0.21484317364E+02 -0.21549780407E+01 -0.58878632921E+02  0.62852093343E+02  0.41800000000E+01 0.  1.
         -5    1    3    3    0  502 -0.97561637753E+02  0.88110929942E+02 -0.61034789305E+02  0.14499836910E+03  0.41800000000E+01 0.  1.
        -11    1    1    2    0    0  0.53365384835E+02 -0.10023397403E+03  0.31573401241E+02  0.11786260439E+03  0.00000000000E+00 0.  1.
         11    1    1    2    0    0  0.22711935553E+02  0.14278022128E+02 -0.59265580285E+01  0.27473951709E+02  0.00000000000E+00 0. -1.
</event>
<event>
 7    1  0.2688177E-009  0.1328191E+03  0.7561462E-02  0.1223332E+00
         -2   -1    0    0    0  501 -0.00000000000E+00  0.00000000000E+00  0.43667200650E+03  0.43667200650E+03  0.00000000000E+00 0.  1.
          2   -1    0    0  501    0  0.00000000000E+00 -0.00000000000E+00 -0.54067301853E+02  0.54067301853E+02  0.00000000000E+00 0. -1.
         25    2    1    2    0    0 -0.11741081298E+02 -0.10793637144E+03  0.20243177016E+03  0.26156138188E+03  0.12509045389E+03 0.  0.
          5    1    3    3  502    0  0.42598932546E+02 -0.30660855482E+02  0.20461186378E+02  0.56487960319E+02  0.41800000000E+01 0.  1.
         -5    1    3    3    0  502 -0.54340013843E+02 -0.77275515957E+02  0.18197058378E+03  0.20507342156E+03  0.41800000000E+01 0.  1.
        -11    1    1    2    0    0 -0.17677890250E+02  0.56135929435E+02  0.15255885268E+03  0.16351744221E+03  0.00000000000E+00 0.  1.
         11    1    1    2    0    0  0.29418971547E+02  0.51800442004E+02  0.27614081809E+02  0.65660484258E+02  0.00000000000E+00 0. -1.
</event>
<event>
 7    1  0.2688177E-009  0.9337463E+02  0.7561462E-02  0.1294879E+00
         -1   -1    0    0    0  501 -0.00000000000E+00  0.00000000000E+00  0.52761187234E+02  0.52761187234E+02  0.00000000000E+00 0.  1.
          1   -1    0    0  501    0  0.00000000000E+00 -0.00000000000E+00 -0.37628489523E+03  0.37628489523E+03  0.00000000000E+00 0. -1.
         25    2    1    2    0    0  0.18807514289E+02  0.94335163565E+01 -0.30720258054E+03  0.33236192037E+03  0.12509319245E+03 0.  0.
          5    1    3    3  502    0  0.39853873590E+02 -0.42324758270E+02 -0.84044258734E+02  0.10227720288E+03  0.41800000000E+01 0.  1.
         -5    1    3    3    0  502 -0.21046359301E+02  0.51758274627E+02 -0.22315832180E+03  0.23008471749E+03  0.41800000000E+01 0.  1.
        -11    1    1    2    0    0  0.35897197806E+01  0.28314721059E+02  0.23841910439E+02  0.37189329251E+02  0.00000000000E+00 0.  1.
         11    1    1    2    0    0 -0.22397234070E+02 -0.37748237415E+02 -0.40163037900E+02  0.59494832845E+02  0.00000000000E+00 0. -1.
</event>
<event>
 7    1  0.2688177E-009  0.1041384E+03  0.7561462E-02  0.1271827E+00
          2   -1    0    0  501    0  0.00000000000E+00  0.00000000000E+00  0.73347893344E+02  0.73347893344E+02  0.00000000000E+00 0.  1.
         -2   -1    0    0    0  501 -0.00000000000E+00 -0.00000000000E+00 -0.19491609475E+03  0.19491609475E+03  0.00000000000E+00 0. -1.
         25    2    1    2    0    0 -0.30715594722E+02 -0.30246585104E+02 -0.93764865109E+02  0.16216478147E+03  0.12508901931E+03 0.  0.
          5    1    3    3  502    0  0.22020038530E+02 -0.63901740268E+02 -0.62285138939E+02  0.92006659752E+02  0.41800000000E+01 0.  1.
         -5    1    3    3    0  502 -0.52735633252E+02  0.33655155164E+02 -0.31479726170E+02  0.70158121720E+02  0.41800000000E+01 0.  1.
        -11    1    1    2    0    0  0.32391171061E+02 -0.12764442926E+02  0.21289312056E+02  0.40808746289E+02  0.00000000000E+00 0.  1.
         11    1    1    2    0    0 -0.16755763384E+01  0.43011028030E+02 -0.49092648357E+02  0.65290460337E+02  0.00000000000E+00 0. -1.
</event>
<event>
 7    1  0.2688177E-009  0.3682134E+03  0.7561462E-02  0.1055378E+00
          4   -1    0    0  501    0  0.00000000000E+00  0.00000000000E+00  0.21514517962E+03  0.21514517962E+03  0.00000000000E+00 0. -1.
         -4   -1    0    0    0  501 -0.00000000000E+00 -0.00000000000E+00 -0.68244543666E+03  0.68244543666E+03  0.00000000000E+00 0.  1.
         25    2    1    2    0    0 -0.32770325480E+03  0.15180589512E+03 -0.15882146999E+03  0.41389180560E+03  0.12509082465E+03 0.  0.
          5    1    3    3  502    0 -0.16559491706E+03  0.44540614762E+02 -0.13444451135E+03  0.21794114332E+03  0.41800000000E+01 0.  1.
         -5    1    3    3    0  502 -0.16210833774E+03  0.10726528036E+03 -0.24376958646E+02  0.19595066228E+03  0.41800000000E+01 0.  1.
        -11    1    1    2    0    0  0.20176554704E+03 -0.48334679572E+02 -0.14709782732E+03  0.25432921190E+03  0.00000000000E+00 0. -1.
         11    1    1    2    0    0  0.12593770776E+03 -0.10347121555E+03 -0.16138095973E+03  0.22936959878E+03  0.00000000000E+00 0.  1.
</event>
<event>
 7    1  0.2688177E-009  0.1742671E+03  0.7561462E-02  0.1173470E+00
          3   -1    0    0  501    0  0.00000000000E+00  0.00000000000E+00  0.56447658841E+02  0.56447658841E+02  0.00000000000E+00 0. -1.
         -3   -1    0    0    0  501 -0.00000000000E+00 -0.00000000000E+00 -0.60102041367E+03  0.60102041367E+03  0.00000000000E+00 0.  1.
         25    2    1    2    0    0  0.10866324468E+03 -0.10090034184E+03 -0.28160639098E+03  0.34196330995E+03  0.12509263041E+03 0.  0.
          5    1    3    3  502    0  0.12886431012E+03 -0.10510920666E+03 -0.21336358829E+03  0.27054657446E+03  0.41800000000E+01 0.  1.
         -5    1    3    3    0  502 -0.20201065441E+02  0.42088648226E+01 -0.68242802693E+02  0.71416735485E+02  0.41800000000E+01 0.  1.
        -11    1    1    2    0    0 -0.55680334699E+02  0.10962902505E+02 -0.40353328841E+02  0.69633871443E+02  0.00000000000E+00 0. -1.
         11    1    1    2    0    0 -0.52982909981E+02  0.89937439331E+02 -0.22261303501E+03  0.24587089112E+03  0.00000000000E+00 0.  1.
</event>
<event>
 7    1  0.2688177E-009  0.1024725E+03  0.7561462E-02  0.1275181E+00
         -2   -1    0    0    0  501 -0.00000000000E+00  0.00000000000E+00  0.23212568313E+02  0.23212568313E+02  0.00000000000E+00 0.  1.
          2   -1    0    0  501    0  0.00000000000E+00 -0.00000000000E+00 -0.64660323211E+03  0.64660323211E+03  0.00000000000E+00 0. -1.
         25    2    1    2    0    0 -0.53522526341E+01  0.17036074300E+02 -0.50194074272E+03  0.51760058476E+03  0.12508789589E+03 0.  0.
          5    1    3    3  502    0 -0.51786011274E+02 -0.30111017940E+02 -0.23964820935E+03  0.24705708046E+03  0.41800000000E+01 0. -1.
         -5    1    3    3    0  502  0.46433758639E+02  0.47147092239E+02 -0.26229253338E+03  0.27054350429E+03  0.41800000000E+01 0. -1.
        -11    1    1    2    0    0  0.16505050834E+02  0.27831256664E+02 -0.14028898405E+02  0.35267627380E+02  0.00000000000E+00 0.  1.
         11    1    1    2    0    0 -0.11152798200E+02 -0.44867330964E+02 -0.10742102266E+03  0.11694758828E+03  0.00000000000E+00 0. -1.
</event>
<event>
 7    1  0.2688177E-009  0.9388900E+02  0.7561462E-02  0.1293698E+00
          1   -1    0    0  501    0  0.00000000000E+00  0.00000000000E+00  0.45200638381E+02  0.45200638381E+02  0.00000000000E+00 0. -1.
         -1   -1    0    0    0  501 -0.00000000000E+00 -0.00000000000E+00 -0.36824296985E+03  0.36824296985E+03  0.00000000000E+00 0.  1.
         25    2    1    2    0    0 -0.36295061695E+02  0.40396381198E+02 -0.26601904674E+03  0.29893238527E+03  0.12508092828E+03 0.  0.
          5    1    3    3  502    0  0.24638005451E+02  0.31375265183E+02 -0.21537794025E+03  0.21908119072E+03  0.41800000000E+01 0.  1.
         -5    1    3    3    0  502 -0.60933067146E+02  0.90211160150E+01 -0.50641106490E+02  0.79851194559E+02  0.41800000000E+01 0.  1.
        -11    1    1    2    0    0  0.55631571761E+02 -0.24048873215E+02 -0.64104333064E+02  0.88218963932E+02  0.00000000000E+00 0.  1.
         11    1    1    2    0    0 -0.19336510066E+02 -0.16347507983E+02  0.70810483413E+01  0.26292259021E+02  0.00000000000E+00 0. -1.
</event>
<event>
 7    1  0.3727120E-009  0.1387602E+03  0.7561462E-02  0.1215007E+00
         -1   -1    0    0    0  501 -0.00000000000E+00  0.00000000000E+00  0.87121576487E+02  0.87121576487E+02  0.00000000000E+00 0.  1.
          1   -1    0    0  501    0  0.00000000000E+00 -0.00000000000E+00 -0.38281334024E+03  0.38281334024E+03  0.00000000000E+00 0. -1.
         25    2    1    2    0    0  0.41032523923E+02  0.12614916286E+03 -0.75902927110E+02  0.19748396510E+03  0.12506551411E+03 0.  0.
          5    1    3    3  502    0  0.37991077828E+02  0.13178565982E+03 -0.17205730631E+02  0.13829060596E+03  0.41800000000E+01 0.  1.
         -5    1    3    3    0  502  0.30414460949E+01 -0.56364969641E+01 -0.58697196478E+02  0.59193359144E+02  0.41800000000E+01 0.  1.
        -11    1    1    2    0    0 -0.13434779551E+02 -0.40333652160E+02 -0.15684963270E+03  0.16250878153E+03  0.00000000000E+00 0. -1.
         11    1    1    2    0    0 -0.27597744372E+02 -0.85815510699E+02 -0.62939203943E+02  0.10994217009E+03  0.00000000000E+00 0.  1.
</event>
<event>
 7    1  0.2688177E-009  0.3094861E+03  0.7561462E-02  0.1080592E+00
          1   -1    0    0  501    0  0.00000000000E+00  0.00000000000E+00  0.10600782948E+04  0.10600782948E+04  0.00000000000E+00 0. -1.
         -1   -1    0    0    0  501 -0.00000000000E+00 -0.00000000000E+00 -0.91398259854E+02  0.91398259854E+02  0.00000000000E+00 0.  1.
         25    2    1    2    0    0  0.23626057360E+03 -0.16757479859E+03  0.55305566287E+03  0.63672470788E+03  0.12508963040E+03 0.  0.
          5    1    3    3  502    0  0.21403270611E+03 -0.85978806169E+02  0.39589118843E+03  0.45820264062E+03  0.41800000000E+01 0.  1.
         -5    1    3    3    0  502  0.22227867481E+02 -0.81595992422E+02  0.15716447444E+03  0.17852206726E+03  0.41800000000E+01 0.  1.
        -11    1    1    2    0    0 -0.12576130905E+03  0.34052950410E+02  0.17246697901E+03  0.21614895127E+03  0.00000000000E+00 0.  1.
         11    1    1    2    0    0 -0.11049926454E+03  0.13352184818E+03  0.24315739311E+03  0.29860289555E+03  0.00000000000E+00 0. -1.
</event>
<event>
 7    1  0.2688177E-009  0.1109554E+03  0.7561462E-02  0.1258811E+00
         -2   -1    0    0    0  501 -0.00000000000E+00  0.00000000000E+00  0.54899755687E+02  0.54899755687E+02  0.00000000000E+00 0.  1.
          2   -1    0    0  501    0  0.00000000000E+00 -0.00000000000E+00 -0.22834138051E+03  0.22834138051E+03  0.00000000000E+00 0. -1.
         25    2    1    2    0    0 -0.24614957373E+01 -0.31281400275E+02 -0.10410349005E+03  0.16574077742E+03  0.12509150129E+03 0.  0.
          5    1    3    3  502    0 -0.58540078112E+02  0.72615051490E+01 -0.35248617840E+02  0.68844808533E+02  0.41800000000E+01 0.  1.
         -5    1    3    3    0  502  0.56078582375E+02 -0.38542905424E+02 -0.68854872207E+02  0.96895968886E+02  0.41800000000E+01 0.  1.
        -11    1    1    2    0    0 -0.36917558486E+02  0.39824786462E+02 -0.35462327089E+02  0.64857508307E+02  0.00000000000E+00 0.  1.
         11    1    1    2    0    0  0.39379054223E+02 -0.85433861866E+01 -0.33875807686E+02  0.52642850468E+02  0.00000000000E+00 0. -1.
</event>
<event>
 7    1  0.2688177E-009  0.1097319E+03  0.7561462E-02  0.1261067E+00
          4   -1    0    0  501    0  0.00000000000E+00  0.00000000000E+00  0.13311290719E+03  0.13311290719E+03  0.00000000000E+00 0. -1.
         -4   -1    0    0    0  501 -0.00000000000E+00 -0.00000000000E+00 -0.13510252784E+03  0.13510252784E+03  0.00000000000E+00 0.  1.
         25    2    1    2    0    0  0.68376726684E+02  0.69450738576E+01 -0.39287372662E+02  0.14804228866E+03  0.12509760500E+03 0.  0.
          5    1    3    3  502    0 -0.27599448843E+02  0.30904566130E+02 -0.33653179618E+00  0.41646217568E+02  0.41800000000E+01 0.  1.
         -5    1    3    3    0  502  0.95976175527E+02 -0.23959492272E+02 -0.38950840866E+02  0.10639607109E+03  0.41800000000E+01 0.  1.
        -11    1    1    2    0    0 -0.42552335084E+02  0.14796230856E+02  0.63206651961E+02  0.77619008759E+02  0.00000000000E+00 0. -1.
         11    1    1    2    0    0 -0.25824391601E+02 -0.21741304713E+02 -0.25908899944E+02  0.42554137619E+02  0.00000000000E+00 0.  1.
</event>
<event>
 7    1  0.2688177E-009  0.1481166E+03  0.7561462E-02  0.1202807E+00
          1   -1    0    0  501    0  0.00000000000E+00  0.00000000000E+00  0.16125220492E+04  0.16125220492E+04  0.00000000000E+00 0. -1.
         -1   -1    0    0    0  501 -0.00000000000E+00 -0.00000000000E+00 -0.17122103370E+02  0.17122103370E+02  0.00000000000E+00 0.  1.
         25    2    1    2    0    0  0.77459575739E+02  0.77802729924E+02  0.11520352790E+04  0.11639966638E+04  0.12509875564E+03 0.  0.
          5    1    3    3  502    0  0.76176542966E+02 -0.32304967368E+01  0.74833425839E+03  0.75222000537E+03  0.41800000000E+01 0.  1.
         -5    1    3    3    0  502  0.12830327737E+01  0.81033226661E+02  0.40370102057E+03  0.41177665841E+03  0.41800000000E+01 0.  1.
        -11    1    1    2    0    0 -0.77960488712E+02 -0.19426676997E+02  0.20363045334E+03  0.21890773195E+03  0.00000000000E+00 0.  1.
         11    1    1    2    0    0  0.50091297302E+00 -0.58376052927E+02  0.23973421349E+03  0.24673975680E+03  0.00000000000E+00 0. -1.
</event>
<event>
 7    1  0.3327019E-009  0.1137596E+03  0.7561462E-02  0.1253762E+00
          2   -1    0    0  501    0  0.00000000000E+00  0.00000000000E+00  0.35336824692E+03  0.35336824692E+03  0.00000000000E+00 0. -1.
         -2   -1    0    0    0  501 -0.00000000000E+00 -0.00000000000E+00 -0.54447204747E+02  0.54447204747E+02  0.00000000000E+00 0.  1.
         25    2    1    2    0    0 -0.78369159238E+02 -0.14556138049E+02  0.11543282637E+03  0.18795365998E+03  0.12509290396E+03 0.  0.
          5    1    3    3  502    0 -0.94926955408E+02 -0.45353602409E+02  0.56992900625E+02  0.11972359515E+03  0.41800000000E+01 0.  1.
         -5    1    3    3    0  502  0.16557796170E+02  0.30797464360E+02  0.58439925748E+02  0.68230064828E+02  0.41800000000E+01 0.  1.
        -11    1    1    2    0    0  0.13101743217E+02 -0.10816913049E+02 -0.58659223399E+01  0.17974157230E+02  0.00000000000E+00 0.  1.
         11    1    1    2    0    0  0.65267416021E+02  0.25373051098E+02  0.18935413814E+03  0.20188763446E+03  0.00000000000E+00 0. -1.
</event>
<event>
 7    1  0.2688177E-009  0.1501945E+03  0.7561462E-02  0.1200234E+00
          1   -1    0    0  501    0  0.00000000000E+00  0.00000000000E+00  0.45679214431E+03  0.45679214431E+03  0.00000000000E+00 0. -1.
         -1   -1    0    0    0  501 -0.00000000000E+00 -0.00000000000E+00 -0.54372287436E+02  0.54372287436E+02  0.00000000000E+00 0.  1.
         25    2    1    2    0    0 -0.35067730528E+02 -0.10923789705E+03  0.26887694060E+03  0.31797052343E+03  0.12509108965E+03 0.  0.
          5    1    3    3  502    0 -0.47430795071E+02  0.10740064044E+02  0.69936841660E+02  0.85285775591E+02  0.41800000000E+01 0. -1.
         -5    1    3    3    0  502  0.12363064543E+02 -0.11997796109E+03  0.19894009894E+03  0.23268474784E+03  0.41800000000E+01 0. -1.
        -11    1    1    2    0    0  0.34803956250E+02  0.17142516018E+02  0.11821031450E+02  0.40557588817E+02  0.00000000000E+00 0.  1.
         11    1    1    2    0    0  0.26377427814E+00  0.92095381030E+02  0.12172188483E+03  0.15263631950E+03  0.00000000000E+00 0. -1.
</event>
<event>
 7    1  0.2688177E-009  0.1457176E+03  0.7561462E-02  0.1205836E+00
          1   -1    0    0  501    0  0.00000000000E+00  0.00000000000E+00  0.38567457512E+03  0.38567457512E+03  0.00000000000E+00 0. -1.
         -1   -1    0    0    0  501 -0.00000000000E+00 -0.00000000000E+00 -0.13746882559E+03  0.13746882559E+03  0.00000000000E+00 0.  1.
         25    2    1    2    0    0  0.18350467469E+02  0.14413336908E+03 -0.32630977646E+02  0.19448253140E+03  0.12508999391E+03 0.  0.
          5    1    3    3  502    0  0.10299172059E+02  0.11672392870E+03 -0.77913917980E+02  0.14077854770E+03  0.41800000000E+01 0.  1.
         -5    1    3    3    0  502  0.80512954101E+01  0.27409440380E+02  0.45282940334E+02  0.53703983698E+02  0.41800000000E+01 0.  1.
        -11    1    1    2    0    0 -0.11703777522E+02 -0.99498274929E+02  0.26061896506E+03  0.27921162238E+03  0.00000000000E+00 0. -1.
         11    1    1    2    0    0 -0.66466899465E+01 -0.44635094156E+02  0.20217762116E+02  0.49449246936E+02  0.00000000000E+00 0.  1.
</event>
<event>
 7    1  0.2688177E-009  0.1268073E+03  0.7561462E-02  0.1232272E+00
          1   -1    0    0  501    0  0.00000000000E+00  0.00000000000E+00  0.10093473051E+03  0.10093473051E+03  0.00000000000E+00 0. -1.
         -1   -1    0    0    0  501 -0.00000000000E+00 -0.00000000000E+00 -0.25430353986E+03  0.25430353986E+03  0.00000000000E+00 0.  1.
         25    2    1    2    0    0  0.51199672584E+01 -0.10119551773E+03 -0.15318794317E+02  0.16170222692E+03  0.12508476269E+03 0.  0.
          5    1    3    3  502    0  0.77861249248E+00  0.19101194930E+02  0.27602760288E+02  0.33835582759E+02  0.41800000000E+01 0. -1.
         -5    1    3    3    0  502  0.43413547659E+01 -0.12029671266E+03 -0.42921554605E+02  0.12786664416E+03  0.41800000000E+01 0. -1.
        -11    1    1    2    0    0  0.12758677934E+02  0.21334855001E+01 -0.71967415805E+02  0.73120753283E+02  0.00000000000E+00 0.  1.
         11    1    1    2    0    0 -0.17878645193E+02  0.99062032233E+02 -0.66082599227E+02  0.12041529016E+03  0.00000000000E+00 0. -1.
</event>
<event>
 7    1  0.2688177E-009  0.2394164E+03  0.7561462E-02  0.1120182E+00
         -2   -1    0    0    0  501 -0.00000000000E+00  0.00000000000E+00  0.12828824537E+03  0.12828824537E+03  0.00000000000E+00 0.  1.
          2   -1    0    0  501    0  0.00000000000E+00 -0.00000000000E+00 -0.56369596603E+03  0.56369596603E+03  0.00000000000E+00 0. -1.
         25    2    1    2    0    0  0.21515685786E+03  0.89409846445E+01 -0.37815283977E+03  0.45279083108E+03  0.12509017465E+03 0.  0.
          5    1    3    3  502    0  0.19858788410E+03 -0.34328019364E+02 -0.32173727123E+03  0.37966815079E+03  0.41800000000E+01 0. -1.
         -5    1    3    3    0  502  0.16568973761E+02  0.43269004009E+02 -0.56415568539E+02  0.73122680291E+02  0.41800000000E+01 0. -1.
        -11    1    1    2    0    0 -0.12267159193E+03 -0.46122857982E+02 -0.45936323042E+02  0.13887326333E+03  0.00000000000E+00 0.  1.
         11    1    1    2    0    0 -0.92485265936E+02  0.37181873338E+02 -0.11318557842E+02  0.10032011698E+03  0.00000000000E+00 0. -1.
</event>
<event>
 7    1  0.2688177E-009  0.1899764E+03  0.7561462E-02  0.1158483E+00
         -1   -1    0    0    0  501 -0.00000000000E+00  0.00000000000E+00  0.35372837318E+02  0.35372837318E+02  0.00000000000E+00 0.  1.
          1   -1    0    0  501    0  0.00000000000E+00 -0.00000000000E+00 -0.13643956464E+04  0.13643956464E+04  0.00000000000E+00 0. -1.
         25    2    1    2    0    0  0.13136234147E+03  0.12213787080E+03 -0.48970343816E+03  0.53631256108E+03  0.12509189257E+03 0.  0.
          5    1    3    3  502    0 -0.11061185186E+02  0.77154913350E+00 -0.13263220232E+03  0.13316049939E+03  0.41800000000E+01 0.  1.
         -5    1    3    3    0  502  0.14242352665E+03  0.12136632167E+03 -0.35707123584E+03  0.40315206169E+03  0.41800000000E+01 0.  1.
        -11    1    1    2    0    0 -0.36555554756E+02 -0.49325742383E+02 -0.12568485744E+03  0.13987859319E+03  0.00000000000E+00 0. -1.
         11    1    1    2    0    0 -0.94806786710E+02 -0.72812128418E+02 -0.71363451353E+03  0.72357732949E+03  0.00000000000E+00 0.  1.
</event>
<event>
 7    1  0.2688177E-009  0.1774033E+03  0.7561462E-02  0.1170340E+00
         -1   -1    0    0    0  501 -0.00000000000E+00  0.00000000000E+00  0.21595466583E+03  0.21595466583E+03  0.00000000000E+00 0.  1.
          1   -1    0    0  501    0  0.00000000000E+00 -0.00000000000E+00 -0.19317428132E+03  0.19317428132E+03  0.00000000000E+00 0. -1.
         25    2    1    2    0    0 -0.23333779451E+02 -0.17050272593E+03  0.81880076581E+01  0.21291012097E+03  0.12509209140E+03 0.  0.
          5    1    3    3  502    0 -0.17429542507E+02 -0.72557307584E+02 -0.57891680369E+02  0.94537140278E+02  0.41800000000E+01 0.  1.
         -5    1    3    3    0  502 -0.59042369443E+01 -0.97945418343E+02  0.66079688028E+02  0.11837298069E+03  0.41800000000E+01 0.  1.
        -11    1    1    2    0    0  0.42919789228E+02  0.10341668466E+03  0.44122790802E+02  0.12034924030E+03  0.00000000000E+00 0.  1.
         11    1    1    2    0    0 -0.19586009777E+02  0.67086041267E+02 -0.29530413951E+02  0.75869585869E+02  0.00000000000E+00 0. -1.
</event>
<event>
 7    1  0.2688177E-009  0.2473921E+03  0.7561462E-02  0.1114964E+00
         -2   -1    0    0    0  501 -0.00000000000E+00  0.00000000000E+00  0.40781128155E+02  0.40781128155E+02  0.00000000000E+00 0.  1.
          2   -1    0    0  501    0  0.00000000000E+00 -0.00000000000E+00 -0.15205544229E+04  0.15205544229E+04  0.00000000000E+00 0. -1.
         25    2    1    2    0    0  0.10271884987E+03 -0.19775419147E+03 -0.82802929145E+03  0.86656658584E+03  0.12508899963E+03 0.  0.
          5    1    3    3  502    0 -0.28075044660E+02 -0.28484308812E+02 -0.10106542388E+03  0.10877157848E+03  0.41800000000E+01 0. -1.
         -5    1    3    3    0  502  0.13079389453E+03 -0.16926988266E+03 -0.72696386758E+03  0.75779500736E+03  0.41800000000E+01 0. -1.
        -11    1    1    2    0    0 -0.79874353739E+02  0.57262272993E+02 -0.25758015292E+03  0.27569261047E+03  0.00000000000E+00 0.  1.
         11    1    1    2    0    0 -0.22844496134E+02  0.14049191848E+03 -0.39416385037E+03  0.41907635473E+03  0.00000000000E+00 0. -1.
</event>
<event>
 7    1  0.2688177E-009  0.1206314E+03  0.7561462E-02  0.1242059E+00
          2   -1    0    0  501    0  0.00000000000E+00  0.00000000000E+00  0.99374252840E+02  0.99374252840E+02  0.00000000000E+00 0. -1.
         -2   -1    0    0    0  501 -0.00000000000E+00 -0.00000000000E+00 -0.33692416970E+03  0.33692416970E+03  0.00000000000E+00 0.  1.
         25    2    1    2    0    0 -0.10819653608E+03  0.47152121894E+02 -0.20448306132E+02  0.17319506016E+03  0.12509429491E+03 0.  0.
          5    1    3    3  502    0 -0.33507928712E+02 -0.17412605007E+01  0.49335166199E+02  0.59810068539E+02  0.41800000000E+01 0.  1.
         -5    1    3    3    0  502 -0.74688607373E+02  0.48893382394E+02 -0.69783472331E+02  0.11338499162E+03  0.41800000000E+01 0.  1.
        -11    1    1    2    0    0  0.79831428731E+02 -0.36567275267E+02 -0.21559462707E+03  0.23279017560E+03  0.00000000000E+00 0.  1.
         11    1    1    2    0    0  0.28365107354E+02 -0.10584846627E+02 -0.15069836554E+01  0.30313186785E+02  0.00000000000E+00 0. -1.
</event>
<event>
 7    1  0.2688177E-009  0.2729494E+03  0.7561462E-02  0.1099603E+00
          1   -1    0    0  501    0  0.00000000000E+00  0.00000000000E+00  0.27130651545E+03  0.27130651545E+03  0.00000000000E+00 0. -1.
         -1   -1    0    0    0  501 -0.00000000000E+00 -0.00000000000E+00 -0.44832123767E+03  0.44832123767E+03  0.00000000000E+00 0.  1.
         25    2    1    2    0    0  0.24868384999E+02 -0.25609699552E+03  0.12501840862E+03  0.31222199126E+03  0.12509541019E+03 0.  0.
          5    1    3    3  502    0  0.20524615578E+02 -0.27006413718E+03  0.11900325989E+03  0.29586339128E+03  0.41800000000E+01 0. -1.
         -5    1    3    3    0  502  0.43437694200E+01  0.13967141668E+02  0.60151487271E+01  0.16358599981E+02  0.41800000000E+01 0. -1.
        -11    1    1    2    0    0 -0.28646915767E+02  0.11012049858E+03 -0.71084652649E+02  0.13416481593E+03  0.00000000000E+00 0. -1.
         11    1    1    2    0    0  0.37785307689E+01  0.14597649694E+03 -0.23094847819E+03  0.27324094593E+03  0.00000000000E+00 0.  1.
</event>
<event>
 7    1  0.2688177E-009  0.3096715E+03  0.7561462E-02  0.1080503E+00
          1   -1    0    0  501    0  0.00000000000E+00  0.00000000000E+00  0.46872190407E+03  0.46872190407E+03  0.00000000000E+00 0. -1.
         -1   -1    0    0    0  501 -0.00000000000E+00 -0.00000000000E+00 -0.21741173109E+03  0.21741173109E+03  0.00000000000E+00 0.  1.
         25    2    1    2    0    0 -0.20065781377E+03  0.22314304105E+03  0.12128011393E+03  0.34700590667E+03  0.12509139951E+03 0.  0.
          5    1    3    3  502    0 -0.16175570900E+03  0.21424462739E+03  0.13992826586E+03  0.30275908202E+03  0.41800000000E+01 0.  1.
         -5    1    3    3    0  502 -0.38902104770E+02  0.88984136618E+01 -0.18648151928E+02  0.44246824649E+02  0.41800000000E+01 0.  1.
        -11    1    1    2    0    0  0.20840772663E+03 -0.21337976657E+03  0.11517170702E+03  0.31973305647E+03  0.00000000000E+00 0.  1.
         11    1    1    2    0    0 -0.77499128655E+01 -0.97632744861E+01  0.14858352018E+02  0.19394672021E+02  0.00000000000E+00 0. -1.
</event>
<event>
 7    1  0.2842276E-009  0.1324286E+03  0.7561462E-02  0.1223896E+00
          2   -1    0    0  501    0  0.00000000000E+00  0.00000000000E+00  0.30178688456E+03  0.30178688456E+03  0.00000000000E+00 0. -1.
         -2   -1    0    0    0  501 -0.00000000000E+00 -0.00000000000E+00 -0.82818411522E+02  0.82818411522E+02  0.00000000000E+00 0.  1.
         25    2    1    2    0    0  0.12106971706E+02 -0.11048979046E+03  0.85372227455E+02  0.18785732275E+03  0.12508950368E+03 0.  0.
          5    1    3    3  502    0  0.25484205400E+02 -0.12752463979E+03  0.37916747333E+02  0.13552538731E+03  0.41800000000E+01 0. -1.
         -5    1    3    3    0  502 -0.13377233694E+02  0.17034849334E+02  0.47455480121E+02  0.52331935438E+02  0.41800000000E+01 0. -1.
        -11    1    1    2    0    0 -0.15949685224E+02  0.61157548459E+02  0.10487761568E+02  0.64067396818E+02  0.00000000000E+00 0.  1.
         11    1    1    2    0    0  0.38427135176E+01  0.49332241996E+02  0.12310848402E+03  0.13268057652E+03  0.00000000000E+00 0. -1.
</event>
<event>
 7    1  0.2688177E-009  0.1164279E+03  0.7561462E-02  0.1249109E+00
         -1   -1    0    0    0  501 -0.00000000000E+00  0.00000000000E+00  0.17958713497E+03  0.17958713497E+03  0.00000000000E+00 0.  1.
          1   -1    0    0  501    0  0.00000000000E+00 -0.00000000000E+00 -0.10721835016E+03  0.10721835016E+03  0.00000000000E+00 0. -1.
         25    2    1    2    0    0 -0.61902874622E+02  0.14406198883E+01  0.10115361692E+03  0.17237732534E+03  0.12509135383E+03 0.  0.
          5    1    3    3  502    0 -0.67052396231E+02 -0.41739825240E+02  0.22210664825E+02  0.82152436868E+02  0.41800000000E+01 0.  1.
         -5    1    3    3    0  502  0.51495216100E+01  0.43180445129E+02  0.78942952099E+02  0.90224888475E+02  0.41800000000E+01 0.  1.
        -11    1    1    2    0    0  0.74174668956E+02 -0.29207635763E+02 -0.26403990951E+02  0.83977010186E+02  0.00000000000E+00 0. -1.
         11    1    1    2    0    0 -0.12271794335E+02  0.27767015875E+02 -0.23808411628E+01  0.30451149591E+02  0.00000000000E+00 0.  1.
</event>
<event>
 7    1  0.2688177E-009  0.1801176E+03  0.7561462E-02  0.1167689E+00
         -1   -1    0    0    0  501 -0.00000000000E+00  0.00000000000E+00  0.12928780948E+03  0.12928780948E+03  0.00000000000E+00 0.  1.
          1   -1    0    0  501    0  0.00000000000E+00 -0.00000000000E+00 -0.51586667884E+03  0.51586667884E+03  0.00000000000E+00 0. -1.
         25    2    1    2    0    0 -0.68952201044E+02 -0.13874791488E+03  0.19128470251E+02  0.20004724010E+03  0.12509040725E+03 0.  0.
          5    1    3    3  502    0 -0.71646089497E+02 -0.15393183343E+03  0.39287005278E+02  0.17432473338E+03  0.41800000000E+01 0. -1.
         -5    1    3    3    0  502  0.26938884525E+01  0.15183918553E+02 -0.20158535026E+02  0.25722506721E+02  0.41800000000E+01 0. -1.
        -11    1    1    2    0    0  0.16271674830E+02  0.11583110299E+03 -0.20166636436E+03  0.23313286842E+03  0.00000000000E+00 0.  1.
         11    1    1    2    0    0  0.52680526214E+02  0.22916811890E+02 -0.20404097526E+03  0.21197437980E+03  0.00000000000E+00 0. -1.
</event>
<event>
 7    1  0.2688177E-009  0.9999276E+02  0.7561462E-02  0.1280311E+00
          2   -1    0    0  501    0  0.00000000000E+00  0.00000000000E+00  0.11750034346E+04  0.11750034346E+04  0.00000000000E+00 0. -1.
         -2   -1    0    0    0  501 -0.00000000000E+00 -0.00000000000E+00 -0.12096248377E+02  0.12096248377E+02  0.00000000000E+00 0.  1.
         25    2    1    2    0    0  0.60632233258E+01 -0.22291127907E+02  0.89684890738E+03  0.90582619117E+03  0.12509783725E+03 0.  0.
          5    1    3    3  502    0 -0.81017095989E+01  0.42879921188E+02  0.59766024699E+03  0.59926585800E+03  0.41800000000E+01 0.  1.
         -5    1    3    3    0  502  0.14164932925E+02 -0.65171049095E+02  0.29918866039E+03  0.30656033317E+03  0.41800000000E+01 0.  1.
        -11    1    1    2    0    0 -0.45165486077E+02  0.18560062028E+01  0.10578482140E+03  0.11503822986E+03  0.00000000000E+00 0. -1.
         11    1    1    2    0    0  0.39102262751E+02  0.20435121704E+02  0.16027345741E+03  0.16623526191E+03  0.00000000000E+00 0.  1.
</event>
<event>
 7    1  0.2688177E-009  0.9474069E+02  0.7561462E-02  0.1291761E+00
          1   -1    0    0  501    0  0.00000000000E+00  0.00000000000E+00  0.40203918489E+03  0.40203918489E+03  0.00000000000E+00 0. -1.
         -1   -1    0    0    0  501 -0.00000000000E+00 -0.00000000000E+00 -0.40686832408E+02  0.40686832408E+02  0.00000000000E+00 0.  1.
         25    2    1    2    0    0  0.25783891535E+02 -0.57039326372E+02  0.15392076108E+03  0.20798187175E+03  0.12508622814E+03 0.  0.
          5    1    3    3  502    0 -0.79735002096E+01 -0.70537298161E+02  0.27285158119E+02  0.76164554690E+02  0.41800000000E+01 0. -1.
         -5    1    3    3    0  502  0.33757391744E+02  0.13497971789E+02  0.12663560296E+03  0.13181731706E+03  0.41800000000E+01 0. -1.
        -11    1    1    2    0    0 -0.11769555713E+01 -0.10152519880E+02 -0.44192780059E+01  0.11135030418E+02  0.00000000000E+00 0.  1.
         11    1    1    2    0    0 -0.24606935963E+02  0.67191846252E+02  0.21185086940E+03  0.22360911513E+03  0.00000000000E+00 0. -1.
</event>
<event>
 6    1  0.2688177E-009  0.1113062E+03  0.7561462E-02  0.1258170E+00
          2   -1    0    0  501    0  0.00000000000E+00  0.00000000000E+00  0.18412772232E+03  0.18412772232E+03  0.00000000000E+00 0. -1.
         -2   -1    0    0    0  501 -0.00000000000E+00 -0.00000000000E+00 -0.73374217531E+02  0.73374217531E+02  0.00000000000E+00 0.  1.
          5    1    1    2  502    0  0.17635764057E+02 -0.44104295430E+02  0.42301321233E+01  0.47870402829E+02  0.41800000000E+01 0.  1.
         -5    1    1    2    0  502 -0.51699766709E+01  0.82001325017E+02  0.30328222585E+02  0.87682492257E+02  0.41800000000E+01 0.  1.
        -11    1    1    2    0    0 -0.81086777093E+01 -0.64850553534E+02  0.40050766131E+02  0.76651215356E+02  0.00000000000E+00 0.  1.
         11    1    1    2    0    0 -0.43571096769E+01  0.26953523948E+02  0.36144383949E+02  0.45297829407E+02  0.00000000000E+00 0. -1.
</event>
<event>
 7    1  0.2688177E-009  0.1066366E+03  0.7561462E-02  0.1266928E+00
         -1   -1    0    0    0  501 -0.00000000000E+00  0.00000000000E+00  0.60086308786E+02  0.60086308786E+02  0.00000000000E+00 0.  1.
          1   -1    0    0  501    0  0.00000000000E+00 -0.00000000000E+00 -0.39533866511E+03  0.39533866511E+03  0.00000000000E+00 0. -1.
         25    2    1    2    0    0  0.32347716941E+02 -0.33600758914E+02 -0.35328208296E+02  0.13810492785E+03  0.12509797362E+03 0.  0.
          5    1    3    3  502    0  0.77821088713E+02 -0.29037919627E+02 -0.39408049762E+02  0.92031458811E+02  0.41800000000E+01 0.  1.
         -5    1    3    3    0  502 -0.45473371772E+02 -0.45628392873E+01  0.40798414664E+01  0.46073469036E+02  0.41800000000E+01 0.  1.
        -11    1    1    2    0    0  0.16794145761E+02 -0.91091417256E+01 -0.13017752676E+02  0.23118859824E+02  0.00000000000E+00 0.  1.
         11    1    1    2    0    0 -0.49141862703E+02  0.42709900640E+02 -0.28690639535E+03  0.29420118622E+03  0.00000000000E+00 0. -1.
</event>
<event>
 7    1  0.2688177E-009  0.9864602E+02  0.7561462E-02  0.1283169E+00
         -1   -1    0    0    0  501 -0.00000000000E+00  0.00000000000E+00  0.67156020003E+02  0.67156020003E+02  0.00000000000E+00 0.  1.
          1   -1    0    0  501    0  0.00000000000E+00 -0.00000000000E+00 -0.18702183514E+03  0.18702183514E+03  0.00000000000E+00 0. -1.
         25    2    1    2    0    0 -0.25996141203E+02  0.98462519063E+01 -0.82570234525E+02  0.15244035342E+03  0.12508984646E+03 0.  0.
          5    1    3    3  502    0 -0.67036423130E+02  0.29684033694E+02 -0.76876186579E+02  0.10631295474E+03  0.41800000000E+01 0.  1.
         -5    1    3    3    0  502  0.41040281927E+02 -0.19837781788E+02 -0.56940479459E+01  0.46127398680E+02  0.41800000000E+01 0.  1.
        -11    1    1    2    0    0  0.25312847398E+02 -0.40317418654E+02  0.68470609736E+01  0.48094872224E+02  0.00000000000E+00 0.  1.
         11    1    1    2    0    0  0.68329380485E+00  0.30471166748E+02 -0.44142641585E+02  0.53642629498E+02  0.00000000000E+00 0. -1.
</event>
<event>
 7    1  0.2688177E-009  0.2490772E+03  0.7561462E-02  0.1113889E+00
         -1   -1    0    0    0  501 -0.00000000000E+00  0.00000000000E+00  0.61689478576E+02  0.61689478576E+02  0.00000000000E+00 0.  1.
          1   -1    0    0  501    0  0.00000000000E+00 -0.00000000000E+00 -0.11354040568E+04  0.11354040568E+04  0.00000000000E+00 0. -1.
         25    2    1    2    0    0 -0.16215019425E+03  0.15954562109E+03 -0.36664416427E+03  0.44924825661E+03  0.12509421319E+03 0.  0.
          5    1    3    3  502    0 -0.62733215230E+02  0.14114515529E+03 -0.25837569320E+03  0.30105295613E+03  0.41800000000E+01 0.  1.
         -5    1    3    3    0  502 -0.99416979022E+02  0.18400465803E+02 -0.10826847106E+03  0.14819530049E+03  0.41800000000E+01 0.  1.
        -11    1    1    2    0    0  0.44278905256E+02 -0.10217291065E+03 -0.28935534937E+03  0.31004264760E+03  0.00000000000E+00 0.  1.
         11    1    1    2    0    0  0.11787128900E+03 -0.57372710434E+02 -0.41771506463E+03  0.43780263121E+03  0.00000000000E+00 0. -1.
</event>
<event>
 7    1  0.2688177E-009  0.1840674E+03  0.7561462E-02  0.1163924E+00
          1   -1    0    0  501    0  0.00000000000E+00  0.00000000000E+00  0.11434418070E+04  0.11434418070E+04  0.00000000000E+00 0. -1.
         -1   -1    0    0    0  501 -0.00000000000E+00 -0.00000000000E+00 -0.31143862651E+02  0.31143862651E+02  0.00000000000E+00 0.  1.
         25    2    1    2    0    0 -0.90705202969E+02  0.12398775948E+03  0.63443393890E+03  0.66464823624E+03  0.12510178562E+03 0.  0.
          5    1    3    3  502    0  0.76370205798E+01 -0.16918498151E+02  0.24864477992E+02  0.31309332935E+02  0.41800000000E+01 0.  1.
         -5    1    3    3    0  502 -0.98342223549E+02  0.14090625763E+03  0.60956946090E+03  0.63333890330E+03  0.41800000000E+01 0.  1.
        -11    1    1    2    0    0  0.79677406503E+02 -0.34105389302E+02  0.25740172621E+03  0.27160139054E+03  0.00000000000E+00 0.  1.
         11    1    1    2    0    0  0.11027796466E+02 -0.89882370174E+02  0.22046227923E+03  0.23833604286E+03  0.00000000000E+00 0. -1.
</event>
<event>
 7    1  0.2688177E-009  0.1649253E+03  0.7561462E-02  0.1183246E+00
          1   -1    0    0  501    0  0.00000000000E+00  0.00000000000E+00  0.12349831345E+03  0.12349831345E+03  0.00000000000E+00 0. -1.
         -1   -1    0    0    0  501 -0.00000000000E+00 -0.00000000000E+00 -0.27292231853E+03  0.27292231853E+03  0.00000000000E+00 0.  1.
         25    2    1    2    0    0 -0.12923944967E+03  0.39296063256E+02 -0.13747809007E+02  0.18462165205E+03  0.12509650760E+03 0.  0.
          5    1    3    3  502    0  0.88172620774E+01  0.35375542050E+02 -0.27365245868E+02  0.45776655265E+02  0.41800000000E+01 0.  1.
         -5    1    3    3    0  502 -0.13805671174E+03  0.39205212066E+01  0.13617436861E+02  0.13884499678E+03  0.41800000000E+01 0.  1.
        -11    1    1    2    0    0 -0.28383839572E+01 -0.21523914922E+02 -0.12851478417E+00  0.21710639169E+02  0.00000000000E+00 0.  1.
         11    1    1    2    0    0  0.13207783362E+03 -0.17772148334E+02 -0.13554768130E+03  0.19008834077E+03  0.00000000000E+00 0. -1.
</event>
<event>
 7    1  0.2688177E-009  0.1480846E+03  0.7561462E-02  0.1202847E+00
          1   -1    0    0  501    0  0.00000000000E+00  0.00000000000E+00  0.51816398297E+02  0.51816398297E+02  0.00000000000E+00 0. -1.
         -1   -1    0    0    0  501 -0.00000000000E+00 -0.00000000000E+00 -0.63368470783E+03  0.63368470783E+03  0.00000000000E+00 0.  1.
         25    2    1    2    0    0 -0.50276568631E+02 -0.10712327393E+03 -0.46408208267E+03  0.49500154997E+03  0.12510485939E+03 0.  0.
          5    1    3    3  502    0  0.35182361044E+02 -0.35734963696E+02 -0.23407889069E+03  0.23942678552E+03  0.41800000000E+01 0. -1.
         -5    1    3    3    0  502 -0.85458929675E+02 -0.71388310237E+02 -0.23000319198E+03  0.25557476445E+03  0.41800000000E+01 0. -1.
        -11    1    1    2    0    0  0.65734236433E+02  0.86443998039E+02 -0.12308362764E+03  0.16414363841E+03  0.00000000000E+00 0.  1.
         11    1    1    2    0    0 -0.15457667802E+02  0.20679275894E+02  0.52974007821E+01  0.26355917749E+02  0.00000000000E+00 0. -1.
</event>
<event>
 7    1  0.2688177E-009  0.8027710E+02  0.7561462E-02  0.1328267E+00
          2   -1    0    0  501    0  0.00000000000E+00  0.00000000000E+00  0.13143155499E+03  0.13143155499E+03  0.00000000000E+00 0. -1.
         -2   -1    0    0    0  501 -0.00000000000E+00 -0.00000000000E+00 -0.11249197999E+03  0.11249197999E+03  0.00000000000E+00 0.  1.
         25    2    1    2    0    0  0.53618575083E+02 -0.64478792811E+01  0.14970950075E+02  0.13707217752E+03  0.12509246885E+03 0.  0.
          5    1    3    3  502    0  0.62680351105E+02 -0.50511085990E+01  0.62338418121E+02  0.88644745397E+02  0.41800000000E+01 0. -1.
         -5    1    3    3    0  502 -0.90617760219E+01 -0.13967706821E+01 -0.47367468045E+02  0.48427432123E+02  0.41800000000E+01 0. -1.
        -11    1    1    2    0    0  0.16291053279E+02 -0.39851086402E+01 -0.25294514185E+02  0.30349496795E+02  0.00000000000E+00 0.  1.
         11    1    1    2    0    0 -0.69909628362E+02  0.10432987921E+02  0.29263139116E+02  0.76501860668E+02  0.00000000000E+00 0. -1.
</event>
<event>
 7    1  0.2688177E-009  0.8383305E+02  0.7561462E-02  0.1318513E+00
         -1   -1    0    0    0  501 -0.00000000000E+00  0.00000000000E+00  0.26853522498E+02  0.26853522498E+02  0.00000000000E+00 0.  1.
          1   -1    0    0  501    0  0.00000000000E+00 -0.00000000000E+00 -0.46616272151E+03  0.46616272151E+03  0.00000000000E+00 0. -1.
         25    2    1    2    0    0 -0.21679154118E+02 -0.10072964057E+02 -0.29361564623E+03  0.32004635033E+03  0.12509223925E+03 0.  0.
          5    1    3    3  502    0 -0.56909340495E+02 -0.11928634015E+02 -0.27261338929E+03  0.27877678843E+03  0.41800000000E+01 0. -1.
         -5    1    3    3    0  502  0.35230186377E+02  0.18556699576E+01 -0.21002256939E+02  0.41269561903E+02  0.41800000000E+01 0. -1.
        -11    1    1    2    0    0  0.57612656741E+01  0.39751261494E+02 -0.24196388757E+02  0.46891579216E+02  0.00000000000E+00 0.  1.
         11    1    1    2    0    0  0.15917888444E+02 -0.29678297436E+02 -0.12149716403E+03  0.12607831446E+03  0.00000000000E+00 0. -1.
</event>
<event>
 7    1  0.2688177E-009  0.1671759E+03  0.7561462E-02  0.1180825E+00
         -2   -1    0    0    0  501 -0.00000000000E+00  0.00000000000E+00  0.60551062365E+02  0.60551062365E+02  0.00000000000E+00 0.  1.
          2   -1    0    0  501    0  0.00000000000E+00 -0.00000000000E+00 -0.66087550192E+03  0.66087550192E+03  0.00000000000E+00 0. -1.
         25    2    1    2    0    0  0.63970567801E+01 -0.16275760777E+03 -0.30628941531E+03  0.36877103433E+03  0.12509160087E+03 0.  0.
          5    1    3    3  502    0 -0.15750548498E+02 -0.97509651397E+02 -0.66261398280E+02  0.11901368491E+03  0.41800000000E+01 0.  1.
         -5    1    3    3    0  502  0.22147605278E+02 -0.65247956376E+02 -0.24002801703E+03  0.24975734943E+03  0.41800000000E+01 0.  1.
        -11    1    1    2    0    0 -0.20370198676E+02  0.11069996548E+03 -0.27210158870E+03  0.29446341355E+03  0.00000000000E+00 0. -1.
         11    1    1    2    0    0  0.13973141896E+02  0.52057642296E+02 -0.21933435544E+02  0.58192116395E+02  0.00000000000E+00 0.  1.
</event>
<event>
 7    1  0.2688177E-009  0.1196549E+03  0.7561462E-02  0.1243668E+00
          2   -1    0    0  501    0  0.00000000000E+00  0.00000000000E+00  0.36342423702E+02  0.36342423702E+02  0.00000000000E+00 0. -1.
         -2   -1    0    0    0  501 -0.00000000000E+00 -0.00000000000E+00 -0.40319378117E+03  0.40319378117E+03  0.00000000000E+00 0.  1.
         25    2    1    2    0    0  0.30700375320E+02 -0.42575595482E+02 -0.21192098031E+03  0.25162219457E+03  0.12509209620E+03 0.  0.
          5    1    3    3  502    0 -0.47761597847E+02 -0.48116439588E+01 -0.67611371735E+02  0.83024647752E+02  0.41800000000E+01 0.  1.
         -5    1    3    3    0  502  0.78461973167E+02 -0.37763951523E+02 -0.14430960857E+03  0.16859754682E+03  0.41800000000E+01 0.  1.
        -11    1    1    2    0    0 -0.56284079802E+02  0.24220079901E+01 -0.63925313067E+02  0.85206862474E+02  0.00000000000E+00 0.  1.
         11    1    1    2    0    0  0.25583704482E+02  0.40153587492E+02 -0.91005064088E+02  0.10270714782E+03  0.00000000000E+00 0. -1.
</event>
<event>
 7    1  0.2688177E-009  0.1005583E+03  0.7561462E-02  0.1279126E+00
         -2   -1    0    0    0  501 -0.00000000000E+00  0.00000000000E+00  0.28522635125E+03  0.28522635125E+03  0.00000000000E+00 0.  1.
          2   -1    0    0  501    0  0.00000000000E+00 -0.00000000000E+00 -0.42201306842E+02  0.42201306842E+02  0.00000000000E+00 0. -1.
         25    2    1    2    0    0 -0.15401847853E+02 -0.77041141132E+01  0.18587136394E+03  0.22470355778E+03  0.12508778780E+03 0.  0.
          5    1    3    3  502    0 -0.21988349012E+01  0.56241040581E+02  0.57220923418E+02  0.80371611887E+02  0.41800000000E+01 0. -1.
         -5    1    3    3    0  502 -0.13203012952E+02 -0.63945154694E+02  0.12865044052E+03  0.14433194589E+03  0.41800000000E+01 0. -1.
        -11    1    1    2    0    0  0.31960860074E+02  0.34954063643E+02  0.52148837899E+02  0.70447032840E+02  0.00000000000E+00 0.  1.
         11    1    1    2    0    0 -0.16559012221E+02 -0.27249949529E+02  0.50048425682E+01  0.32277067466E+02  0.00000000000E+00 0. -1.
</event>
<event>
 7    1  0.2688177E-009  0.1221257E+03  0.7561462E-02  0.1239631E+00
          1   -1    0    0  501    0  0.00000000000E+00  0.00000000000E+00  0.28321453354E+03  0.28321453354E+03  0.00000000000E+00 0. -1.
         -1   -1    0    0    0  501 -0.00000000000E+00 -0.00000000000E+00 -0.12002960771E+03  0.12002960771E+03  0.00000000000E+00 0.  1.
         25    2    1    2    0    0 -0.98118125141E+02  0.25231435984E+02 -0.32829301953E+02  0.16429235474E+03  0.12510165034E+03 0.  0.
          5    1    3    3  502    0 -0.68310266685E+02 -0.45590756010E+01  0.40469770752E+02  0.79638887797E+02  0.41800000000E+01 0.  1.
         -5    1    3    3    0  502 -0.29807858457E+02  0.29790511585E+02 -0.73299072705E+02  0.84653466944E+02  0.41800000000E+01 0.  1.
        -11    1    1    2    0    0  0.62325141967E+02  0.28674924612E+02  0.74456812047E+02  0.10124471089E+03  0.00000000000E+00 0.  1.
         11    1    1    2    0    0  0.35792983175E+02 -0.53906360596E+02  0.12155741574E+03  0.13770707563E+03  0.00000000000E+00 0. -1.
</event>
<event>
 7    1  0.2688177E-009  0.1165545E+03  0.7561462E-02  0.1248892E+00
          1   -1    0    0  501    0  0.00000000000E+00  0.00000000000E+00  0.82013494221E+02  0.82013494221E+02  0.00000000000E+00 0. -1.
         -1   -1    0    0    0  501 -0.00000000000E+00 -0.00000000000E+00 -0.18896571831E+03  0.18896571831E+03  0.00000000000E+00 0.  1.
         25    2    1    2    0    0  0.15529435257E+02 -0.46570501692E+02 -0.19331870726E+02  0.13576333260E+03  0.12509191127E+03 0.  0.
          5    1    3    3  502    0 -0.15615767796E+01 -0.86498889022E+02 -0.28490459308E+02  0.91179356192E+02  0.41800000000E+01 0.  1.
         -5    1    3    3    0  502  0.17091012037E+02  0.39928387330E+02  0.91585885820E+01  0.44583976404E+02  0.41800000000E+01 0.  1.
        -11    1    1    2    0    0  0.34226249019E+02  0.40047369283E+02 -0.41561900953E+02  0.67101561228E+02  0.00000000000E+00 0.  1.
         11    1    1    2    0    0 -0.49755684276E+02  0.65231324088E+01 -0.46058452406E+02  0.68114318702E+02  0.00000000000E+00 0. -1.
</event>
<event>
 7    1  0.2688177E-009  0.9075461E+02  0.7561462E-02  0.1301035E+00
         -1   -1    0    0    0  501 -0.00000000000E+00  0.00000000000E+00  0.95293965828E+02  0.95293965828E+02  0.00000000000E+00 0.  1.
          1   -1    0    0  501    0  0.00000000000E+00 -0.00000000000E+00 -0.16923543158E+03  0.16923543158E+03  0.00000000000E+00 0. -1.
         25    2    1    2    0    0 -0.20923204669E+02 -0.42986031288E+02 -0.88370197265E+02  0.16044383281E+03  0.12508937742E+03 0.  0.
          5    1    3    3  502    0 -0.38473744873E+02 -0.47138437833E+02  0.87151191341E+01  0.61609147595E+02  0.41800000000E+01 0. -1.
         -5    1    3    3    0  502  0.17550540205E+02  0.41524065454E+01 -0.97085316400E+02  0.98834685217E+02  0.41800000000E+01 0. -1.
        -11    1    1    2    0    0  0.41243523434E+02 -0.12353680522E+02 -0.12906754706E+01  0.43073280475E+02  0.00000000000E+00 0.  1.
         11    1    1    2    0    0 -0.20320318765E+02  0.55339711810E+02  0.15719406982E+02  0.61012284122E+02  0.00000000000E+00 0. -1.
</event>
<event>
 7    1  0.2688177E-009  0.1009337E+03  0.7561462E-02  0.1278345E+00
          2   -1    0    0  501    0  0.00000000000E+00  0.00000000000E+00  0.88486338065E+03  0.88486338065E+03  0.00000000000E+00 0. -1.
         -2   -1    0    0    0  501 -0.00000000000E+00 -0.00000000000E+00 -0.20964052001E+02  0.20964052001E+02  0.00000000000E+00 0.  1.
         25    2    1    2    0    0  0.67794629824E+02 -0.46632952949E+02  0.42537557638E+03  0.45095759192E+03  0.12509046565E+03 0.  0.
          5    1    3    3  502    0  0.64041191134E+02 -0.48513305005E+02  0.11401718655E+03  0.13954284702E+03  0.41800000000E+01 0. -1.
         -5    1    3    3    0  502  0.37534386895E+01  0.18803520564E+01  0.31135838983E+03  0.31141474491E+03  0.41800000000E+01 0. -1.
        -11    1    1    2    0    0 -0.11627690758E+02  0.57174561516E+02  0.15440435446E+03  0.16506010527E+03  0.00000000000E+00 0.  1.
         11    1    1    2    0    0 -0.56166939066E+02 -0.10541608567E+02  0.28411939781E+03  0.28980973546E+03  0.00000000000E+00 0. -1.
</event>
<event>
 7    1  0.2688177E-009  0.1036549E+03  0.7561462E-02  0.1272793E+00
          2   -1    0    0  501    0  0.00000000000E+00  0.00000000000E+00  0.77546827451E+03  0.77546827451E+03  0.00000000000E+00 0. -1.
         -2   -1    0    0    0  501 -0.00000000000E+00 -0.00000000000E+00 -0.23988791744E+02  0.23988791744E+02  0.00000000000E+00 0.  1.
         25    2    1    2    0    0 -0.34080728413E+02 -0.16007684108E+01  0.63040348646E+03  0.64359943062E+03  0.12509041868E+03 0.  0.
          5    1    3    3  502    0  0.36918101201E+02 -0.10298997533E+02  0.41073423963E+03  0.41253982057E+03  0.41800000000E+01 0. -1.
         -5    1    3    3    0  502 -0.70998829614E+02  0.86982291217E+01  0.21966924683E+03  0.23105961006E+03  0.41800000000E+01 0. -1.
        -11    1    1    2    0    0  0.53967286984E+02 -0.28496833284E+02  0.86714267043E+02  0.10603726553E+03  0.00000000000E+00 0. -1.
         11    1    1    2    0    0 -0.19886558570E+02  0.30097601695E+02  0.34361729258E+02  0.49820370103E+02  0.00000000000E+00 0.  1.
</event>
<event>
 7    1  0.2688177E-009  0.1147398E+03  0.7561462E-02  0.1252036E+00
         -2   -1    0    0    0  501 -0.00000000000E+00  0.00000000000E+00  0.15925035707E+03  0.15925035707E+03  0.00000000000E+00 0. -1.
          2   -1    0    0  501    0  0.00000000000E+00 -0.00000000000E+00 -0.12033376155E+03  0.12033376155E+03  0.00000000000E+00 0.  1.
         25    2    1    2    0    0 -0.80984259825E+02 -0.24371267824E+02  0.28367108157E+02  0.15363765974E+03  0.12508968235E+03 0.  0.
          5    1    3    3  502    0 -0.62176936718E+01  0.39081143504E+02  0.37990032767E+02  0.55015547637E+02  0.41800000000E+01 0.  1.
         -5    1    3    3    0  502 -0.74766566153E+02 -0.63452411328E+02 -0.96229246095E+01  0.98622112104E+02  0.41800000000E+01 0.  1.
        -11    1    1    2    0    0  0.76628218794E+02  0.10927477865E+02 -0.29993224226E+02  0.83011367821E+02  0.00000000000E+00 0.  1.
         11    1    1    2    0    0  0.43560410311E+01  0.13443789959E+02  0.40542711583E+02  0.42935091061E+02  0.00000000000E+00 0. -1.
</event>
<event>
 7    1  0.2688177E-009  0.6803867E+02  0.7561462E-02  0.1366893E+00
          3   -1    0    0  501    0  0.00000000000E+00  0.00000000000E+00  0.10758282997E+03  0.10758282997E+03  0.00000000000E+00 0. -1.
         -3   -1    0    0    0  501 -0.00000000000E+00 -0.00000000000E+00 -0.11256933831E+03  0.11256933831E+03  0.00000000000E+00 0.  1.
         25    2    1    2    0    0 -0.13967925513E+02 -0.17240288093E+02  0.10643910586E+02  0.12749094978E+03  0.12509324109E+03 0.  0.
          5    1    3    3  502    0  0.17188245733E+02 -0.41260524862E+02  0.53050175010E+02  0.69495756503E+02  0.41800000000E+01 0.  1.
         -5    1    3    3    0  502 -0.31156171246E+02  0.24020236769E+02 -0.42406264424E+02  0.57995193280E+02  0.41800000000E+01 0.  1.
        -11    1    1    2    0    0  0.27380022246E+02  0.24173846809E+02 -0.46005088782E+02  0.58741030648E+02  0.00000000000E+00 0.  1.
         11    1    1    2    0    0 -0.13412096733E+02 -0.69335587157E+01  0.30374669855E+02  0.33920187854E+02  0.00000000000E+00 0. -1.
</event>
<event>
 7    1  0.2688177E-009  0.8246320E+02  0.7561462E-02  0.1322203E+00
         -2   -1    0    0    0  501 -0.00000000000E+00  0.00000000000E+00  0.50567702893E+02  0.50567702893E+02  0.00000000000E+00 0.  1.
          2   -1    0    0  501    0  0.00000000000E+00 -0.00000000000E+00 -0.28727898460E+03  0.28727898460E+03  0.00000000000E+00 0. -1.
         25    2    1    2    0    0  0.12644535866E+02 -0.31871010832E+02 -0.12399453486E+03  0.17943681169E+03  0.12508908465E+03 0.  0.
          5    1    3    3  502    0 -0.32573212292E+02 -0.66681468972E+01  0.10618419500E+02  0.35152547201E+02  0.41800000000E+01 0.  1.
         -5    1    3    3    0  502  0.45217748158E+02 -0.25202863935E+02 -0.13461295436E+03  0.14428426449E+03  0.41800000000E+01 0.  1.
        -11    1    1    2    0    0  0.29977533749E+02  0.16152814629E+02 -0.10740324306E+03  0.11267219076E+03  0.00000000000E+00 0. -1.
         11    1    1    2    0    0 -0.42622069615E+02  0.15718196203E+02 -0.53135037844E+01  0.45737685038E+02  0.00000000000E+00 0.  1.
</event>
<event>
 7    1  0.2688177E-009  0.1652227E+03  0.7561462E-02  0.1182923E+00
          2   -1    0    0  501    0  0.00000000000E+00  0.00000000000E+00  0.20564246785E+03  0.20564246785E+03  0.00000000000E+00 0.  1.
         -2   -1    0    0    0  501 -0.00000000000E+00 -0.00000000000E+00 -0.15839739254E+03  0.15839739254E+03  0.00000000000E+00 0. -1.
         25    2    1    2    0    0 -0.12901918426E+03  0.10866778948E+02  0.87749106777E+02  0.20028079373E+03  0.12509378003E+03 0.  0.
          5    1    3    3  502    0 -0.89381154983E+02  0.65192686145E+02  0.68573109178E+02  0.13022603770E+03  0.41800000000E+01 0. -1.
         -5    1    3    3    0  502 -0.39638029280E+02 -0.54325907196E+02  0.19175997599E+02  0.70054756026E+02  0.41800000000E+01 0. -1.
        -11    1    1    2    0    0  0.61773571419E+02  0.34960652719E+02  0.38410872433E+01  0.71084283183E+02  0.00000000000E+00 0.  1.
         11    1    1    2    0    0  0.67245612845E+02 -0.45827431668E+02 -0.44345118708E+02  0.92674783481E+02  0.00000000000E+00 0. -1.
</event>
<event>
 7    1  0.2688177E-009  0.1369310E+03  0.7561462E-02  0.1217519E+00
         -2   -1    0    0    0  501 -0.00000000000E+00  0.00000000000E+00  0.60886569031E+02  0.60886569031E+02  0.00000000000E+00 0.  1.
          2   -1    0    0  501    0  0.00000000000E+00 -0.00000000000E+00 -0.39024228383E+03  0.39024228383E+03  0.00000000000E+00 0. -1.
         25    2    1    2    0    0 -0.94708118148E+02  0.40711633248E+02 -0.23104432920E+03  0.28223218915E+03  0.12508581779E+03 0.  0.
          5    1    3    3  502    0 -0.82509014018E+02  0.75433543204E+02 -0.21396135288E+03  0.24144334690E+03  0.41800000000E+01 0. -1.
         -5    1    3    3    0  502 -0.12199104131E+02 -0.34721909956E+02 -0.17082976322E+02  0.40788842256E+02  0.41800000000E+01 0. -1.
        -11    1    1    2    0    0 -0.10820115429E+02 -0.10747453547E+02  0.70438063112E+01  0.16798745875E+02  0.00000000000E+00 0.  1.
         11    1    1    2    0    0  0.10552823358E+03 -0.29964179701E+02 -0.10535519191E+03  0.15209791783E+03  0.00000000000E+00 0. -1.
</event>
<event>
 7    1  0.2688177E-009  0.1577588E+03  0.7561462E-02  0.1191251E+00
          1   -1    0    0  501    0  0.00000000000E+00  0.00000000000E+00  0.19833199564E+03  0.19833199564E+03  0.00000000000E+00 0. -1.
         -1   -1    0    0    0  501 -0.00000000000E+00 -0.00000000000E+00 -0.13163080579E+03  0.13163080579E+03  0.00000000000E+00 0.  1.
         25    2    1    2    0    0 -0.11800692056E+03 -0.23404882281E+02  0.40112448900E+02  0.17812695535E+03  0.12508709706E+03 0.  0.
          5    1    3    3  502    0 -0.11890678477E+03 -0.61573409091E+02  0.22384990183E+02  0.13582587514E+03  0.41800000000E+01 0. -1.
         -5    1    3    3    0  502  0.89986421565E+00  0.38168526810E+02  0.17727458717E+02  0.42301080211E+02  0.41800000000E+01 0. -1.
        -11    1    1    2    0    0  0.24324659905E+02 -0.27343390438E+02 -0.12006307407E+02  0.38516249788E+02  0.00000000000E+00 0.  1.
         11    1    1    2    0    0  0.93682260653E+02  0.50748272719E+02  0.38595048354E+02  0.11331959629E+03  0.00000000000E+00 0. -1.
</event>
<event>
 7    1  0.2688177E-009  0.9052724E+02  0.7561462E-02  0.1301580E+00
         -1   -1    0    0    0  501 -0.00000000000E+00  0.00000000000E+00  0.56810027670E+02  0.56810027670E+02  0.00000000000E+00 0.  1.
          1   -1    0    0  501    0  0.00000000000E+00 -0.00000000000E+00 -0.25057968316E+03  0.25057968316E+03  0.00000000000E+00 0. -1.
         25    2    1    2    0    0 -0.19389851606E+02  0.23639909878E+02 -0.59751425675E+02  0.14195870499E+03  0.12508888587E+03 0.  0.
          5    1    3    3  502    0  0.27502748829E+02  0.27525484083E+02 -0.81154469615E+02  0.90097579355E+02  0.41800000000E+01 0.  1.
         -5    1    3    3    0  502 -0.46892600435E+02 -0.38855742058E+01  0.21403043940E+02  0.51861125637E+02  0.41800000000E+01 0.  1.
        -11    1    1    2    0    0 -0.30396562884E+02 -0.32069659734E+02 -0.44861545383E+02  0.62968026527E+02  0.00000000000E+00 0.  1.
         11    1    1    2    0    0  0.49786414490E+02  0.84297498568E+01 -0.89156684434E+02  0.10246297931E+03  0.00000000000E+00 0. -1.
</event>
<event>
 7    1  0.2688177E-009  0.2015811E+03  0.7561462E-02  0.1148412E+00
          2   -1    0    0  501    0  0.00000000000E+00  0.00000000000E+00  0.11425011236E+04  0.11425011236E+04  0.00000000000E+00 0. -1.
         -2   -1    0    0    0  501 -0.00000000000E+00 -0.00000000000E+00 -0.38599083887E+02  0.38599083887E+02  0.00000000000E+00 0.  1.
         25    2    1    2    0    0 -0.15479090759E+03 -0.87539198535E+02  0.63015860142E+03  0.66661447485E+03  0.12510658969E+03 0.  0.
          5    1    3    3  502    0  0.17499600889E+02 -0.17359268747E+02  0.34777619770E+02  0.42831477672E+02  0.41800000000E+01 0.  1.
         -5    1    3    3    0  502 -0.17229050848E+03 -0.70179929788E+02  0.59538098165E+03  0.62378299718E+03  0.41800000000E+01 0.  1.
        -11    1    1    2    0    0  0.11704772879E+03  0.26021305617E+02  0.21853958469E+03  0.24927260026E+03  0.00000000000E+00 0.  1.
         11    1    1    2    0    0  0.37743178807E+02  0.61517892918E+02  0.25520385359E+03  0.26521313238E+03  0.00000000000E+00 0. -1.
</event>
<event>
 7    1  0.2688177E-009  0.1164024E+03  0.7561462E-02  0.1249153E+00
         -2   -1    0    0    0  501 -0.00000000000E+00  0.00000000000E+00  0.55891279669E+02  0.55891279669E+02  0.00000000000E+00 0.  1.
          2   -1    0    0  501    0  0.00000000000E+00 -0.00000000000E+00 -0.34585895045E+03  0.34585895045E+03  0.00000000000E+00 0. -1.
         25    2    1    2    0    0 -0.11472073635E+01 -0.69729916510E+02 -0.93723944851E+02  0.17114532168E+03  0.12507184316E+03 0.  0.
          5    1    3    3  502    0  0.45659987439E+02 -0.37333895382E+02  0.25944726616E+01  0.59184946445E+02  0.41800000000E+01 0. -1.
         -5    1    3    3    0  502 -0.46807194802E+02 -0.32396021129E+02 -0.96318417512E+02  0.11196037523E+03  0.41800000000E+01 0. -1.
        -11    1    1    2    0    0 -0.80921040697E+01  0.92069312731E+02 -0.17710685145E+03  0.19977256399E+03  0.00000000000E+00 0. -1.
         11    1    1    2    0    0  0.92393114332E+01 -0.22339396221E+02 -0.19136874485E+02  0.30832344451E+02  0.00000000000E+00 0.  1.
</event>
<event>
 7    1  0.2688177E-009  0.1653044E+03  0.7561462E-02  0.1182835E+00
         -1   -1    0    0    0  501 -0.00000000000E+00  0.00000000000E+00  0.99277130810E+02  0.99277130810E+02  0.00000000000E+00 0.  1.
          1   -1    0    0  501    0  0.00000000000E+00 -0.00000000000E+00 -0.35718295863E+03  0.35718295863E+03  0.00000000000E+00 0. -1.
         25    2    1    2    0    0  0.35811451844E+02 -0.14850248146E+03 -0.11277065828E+03  0.22737760104E+03  0.12509158645E+03 0.  0.
          5    1    3    3  502    0  0.21949456049E+02 -0.26720655001E+02 -0.97812442904E+02  0.10382927531E+03  0.41800000000E+01 0.  1.
         -5    1    3    3    0  502  0.13861995795E+02 -0.12178182646E+03 -0.14958215378E+02  0.12354832573E+03  0.41800000000E+01 0. -1.
        -11    1    1    2    0    0  0.26140671195E+02  0.33309584382E+02 -0.58426420771E+02  0.72156148361E+02  0.00000000000E+00 0. -1.
         11    1    1    2    0    0 -0.61952123039E+02  0.11519289708E+03 -0.86708748764E+02  0.15692634004E+03  0.00000000000E+00 0.  1.
</event>
<event>
 7    1  0.2688177E-009  0.1155767E+03  0.7561462E-02  0.1250578E+00
         -1   -1    0    0    0  501 -0.00000000000E+00  0.00000000000E+00  0.25695595644E+02  0.25695595644E+02  0.00000000000E+00 0.  1.
          1   -1    0    0  501    0  0.00000000000E+00 -0.00000000000E+00 -0.76231261353E+03  0.76231261353E+03  0.00000000000E+00 0. -1.
         25    2    1    2    0    0  0.54565317495E+02 -0.61200715690E+02 -0.47907439428E+03  0.50187934505E+03  0.12509076808E+03 0.  0.
          5    1    3    3  502    0  0.80060818138E+02 -0.45938188971E+02 -0.45237049215E+03  0.46171050061E+03  0.41800000000E+01 0.  1.
         -5    1    3    3    0  502 -0.25495500642E+02 -0.15262526719E+02 -0.26703902138E+02  0.40168844448E+02  0.41800000000E+01 0.  1.
        -11    1    1    2    0    0  0.17523653980E+02  0.86830682188E+01 -0.80067414677E+01  0.21132487583E+02  0.00000000000E+00 0.  1.
         11    1    1    2    0    0 -0.72088971476E+02  0.52517647471E+02 -0.24953588214E+03  0.26499637654E+03  0.00000000000E+00 0. -1.
</event>
<event>
 7    1  0.4839812E-009  0.2085658E+03  0.7561462E-02  0.1142707E+00
         -2   -1    0    0    0  501 -0.00000000000E+00  0.00000000000E+00  0.20868260420E+02  0.20868260420E+02  0.00000000000E+00 0.  1.
          2   -1    0    0  501    0  0.00000000000E+00 -0.00000000000E+00 -0.23030731017E+04  0.23030731017E+04  0.00000000000E+00 0. -1.
         25    2    1    2    0    0 -0.87009026910E+02  0.16791631920E+03 -0.12922250628E+04  0.13119680809E+04  0.12509265071E+03 0.  0.
          5    1    3    3  502    0 -0.27547447397E+02  0.14434244722E+03 -0.64322637570E+03  0.65981152364E+03  0.41800000000E+01 0. -1.
         -5    1    3    3    0  502 -0.59461579513E+02  0.23573871982E+02 -0.64899868712E+03  0.65215655725E+03  0.41800000000E+01 0. -1.
        -11    1    1    2    0    0  0.16380774866E+02 -0.11897216849E+03 -0.66881323729E+03  0.67951000952E+03  0.00000000000E+00 0.  1.
         11    1    1    2    0    0  0.70628252044E+02 -0.48944150709E+02 -0.32116654121E+03  0.33246327176E+03  0.00000000000E+00 0. -1.
</event>
<event>
 6    1  0.2688177E-009  0.1655442E+03  0.7561462E-02  0.1182576E+00
          1   -1    0    0  501    0  0.00000000000E+00  0.00000000000E+00  0.15923250252E+03  0.15923250252E+03  0.00000000000E+00 0.  1.
         -1   -1    0    0    0  501 -0.00000000000E+00 -0.00000000000E+00 -0.19349217968E+03  0.19349217968E+03  0.00000000000E+00 0. -1.
          5    1    1    2  502    0 -0.10124983200E+03  0.53469036684E+02  0.15732840298E+02  0.11565232824E+03  0.41800000000E+01 0. -1.
         -5    1    1    2    0  502  0.14797057905E+02  0.55207299570E+02 -0.46298066079E+02  0.73673483500E+02  0.41800000000E+01 0. -1.
        -11    1    1    2    0    0  0.60606135129E+02 -0.11723648169E+03  0.11047242268E+02  0.13243692014E+03  0.00000000000E+00 0.  1.
         11    1    1    2    0    0  0.25846638965E+02  0.85601454397E+01 -0.14741693646E+02  0.30961950315E+02  0.00000000000E+00 0. -1.
</event>
<event>
 7    1  0.3110091E-009  0.9104932E+02  0.7561462E-02  0.1300330E+00
         -1   -1    0    0    0  501 -0.00000000000E+00  0.00000000000E+00  0.75602123035E+02  0.75602123035E+02  0.00000000000E+00 0.  1.
          1   -1    0    0  501    0  0.00000000000E+00 -0.00000000000E+00 -0.21421146093E+03  0.21421146093E+03  0.00000000000E+00 0. -1.
         25    2    1    2    0    0  0.93400723501E+01 -0.54267782597E+02 -0.35223355890E+02  0.14113874160E+03  0.12508889000E+03 0.  0.
          5    1    3    3  502    0 -0.44033109584E+02 -0.56716927387E+02 -0.47453149586E+02  0.86168430399E+02  0.41800000000E+01 0. -1.
         -5    1    3    3    0  502  0.53373181934E+02  0.24491447893E+01  0.12229793697E+02  0.54970311204E+02  0.41800000000E+01 0. -1.
        -11    1    1    2    0    0 -0.12564663652E+02  0.38907463772E+02 -0.11942751058E+03  0.12623229298E+03  0.00000000000E+00 0. -1.
         11    1    1    2    0    0  0.32245913015E+01  0.15360318825E+02  0.16041528573E+02  0.22442549374E+02  0.00000000000E+00 0.  1.
</event>
<event>
 7    1  0.2688177E-009  0.7988023E+02  0.7561462E-02  0.1329392E+00
          1   -1    0    0  501    0  0.00000000000E+00  0.00000000000E+00  0.34602316068E+02  0.34602316068E+02  0.00000000000E+00 0. -1.
         -1   -1    0    0    0  501 -0.00000000000E+00 -0.00000000000E+00 -0.39442285598E+03  0.39442285598E+03  0.00000000000E+00 0.  1.
         25    2    1    2    0    0 -0.51373340749E+01 -0.39045979396E+02 -0.14097949000E+03  0.19254568159E+03  0.12509053597E+03 0.  0.
          5    1    3    3  502    0 -0.50011988779E+01  0.22983396393E+02 -0.12646763749E+03  0.12870425102E+03  0.41800000000E+01 0. -1.
         -5    1    3    3    0  502 -0.13613519698E+00 -0.62029375789E+02 -0.14511852515E+02  0.63841430568E+02  0.41800000000E+01 0. -1.
        -11    1    1    2    0    0 -0.27330129877E+02  0.28684148088E+02 -0.18212183294E+03  0.18638153982E+03  0.00000000000E+00 0.  1.
         11    1    1    2    0    0  0.32467463952E+02  0.10361831307E+02 -0.36719216969E+02  0.50097950640E+02  0.00000000000E+00 0. -1.
</event>
<event>
 7    1  0.2688177E-009  0.2687593E+03  0.7561462E-02  0.1101992E+00
         -2   -1    0    0    0  501 -0.00000000000E+00  0.00000000000E+00  0.77018391155E+02  0.77018391155E+02  0.00000000000E+00 0.  1.
          2   -1    0    0  501    0  0.00000000000E+00 -0.00000000000E+00 -0.97891837244E+03  0.97891837244E+03  0.00000000000E+00 0. -1.
         25    2    1    2    0    0  0.10076982847E+03  0.22329913724E+03 -0.36465500453E+03  0.45676900090E+03  0.12509030672E+03 0.  0.
          5    1    3    3  502    0  0.12493605782E+03  0.21389615869E+03 -0.31668601436E+03  0.40207970520E+03  0.41800000000E+01 0. -1.
         -5    1    3    3    0  502 -0.24166229345E+02  0.94029785554E+01 -0.47968990167E+02  0.54689295700E+02  0.41800000000E+01 0. -1.
        -11    1    1    2    0    0 -0.83496877354E+00 -0.11919973559E+03 -0.20901307094E+03  0.24061533193E+03  0.00000000000E+00 0.  1.
         11    1    1    2    0    0 -0.99934859700E+02 -0.10409940165E+03 -0.32823190583E+03  0.35855243077E+03  0.00000000000E+00 0. -1.
</event>
<event>
 7    1  0.2688177E-009  0.9545030E+02  0.7561462E-02  0.1290165E+00
          2   -1    0    0  501    0  0.00000000000E+00  0.00000000000E+00  0.29499187170E+02  0.29499187170E+02  0.00000000000E+00 0. -1.
         -2   -1    0    0    0  501 -0.00000000000E+00 -0.00000000000E+00 -0.56100378990E+03  0.56100378990E+03  0.00000000000E+00 0.  1.
         25    2    1    2    0    0 -0.31207769577E+02  0.43751855753E+02 -0.19582563658E+03  0.23850201346E+03  0.12508949084E+03 0.  0.
          5    1    3    3  502    0 -0.35418444297E+02  0.78339317287E+02 -0.80125850774E+02  0.11759736048E+03  0.41800000000E+01 0.  1.
         -5    1    3    3    0  502  0.42106747192E+01 -0.34587461534E+02 -0.11569978580E+03  0.12090465298E+03  0.41800000000E+01 0.  1.
        -11    1    1    2    0    0  0.21950807882E+02 -0.52556905620E+02 -0.33433826539E+03  0.33915504125E+03  0.00000000000E+00 0.  1.
         11    1    1    2    0    0  0.92569616952E+01  0.88050498669E+01 -0.13407007592E+01  0.12845922369E+02  0.00000000000E+00 0. -1.
</event>
<event>
 7    1  0.2688177E-009  0.1150151E+03  0.7561462E-02  0.1251555E+00
          2   -1    0    0  501    0  0.00000000000E+00  0.00000000000E+00  0.58471430203E+02  0.58471430203E+02  0.00000000000E+00 0. -1.
         -2   -1    0    0    0  501 -0.00000000000E+00 -0.00000000000E+00 -0.25706711621E+03  0.25706711621E+03  0.00000000000E+00 0.  1.
         25    2    1    2    0    0  0.27526909838E+02  0.47302792621E+02 -0.12842390218E+03  0.18744113787E+03  0.12508475750E+03 0.  0.
          5    1    3    3  502    0  0.50888539349E+02  0.77093171716E+02 -0.11382436007E+03  0.14665080261E+03  0.41800000000E+01 0. -1.
         -5    1    3    3    0  502 -0.23361629511E+02 -0.29790379095E+02 -0.14599542113E+02  0.40790335252E+02  0.41800000000E+01 0. -1.
        -11    1    1    2    0    0  0.15928569867E+02 -0.53278782987E+02 -0.14967811675E+02  0.57588049463E+02  0.00000000000E+00 0. -1.
         11    1    1    2    0    0 -0.43455479705E+02  0.59759903657E+01 -0.55203972154E+02  0.70509359087E+02  0.00000000000E+00 0.  1.
</event>
<event>
 7    1  0.2688177E-009  0.1093718E+03  0.7561462E-02  0.1261738E+00
          1   -1    0    0  501    0  0.00000000000E+00  0.00000000000E+00  0.32819111990E+02  0.32819111990E+02  0.00000000000E+00 0. -1.
         -1   -1    0    0    0  501 -0.00000000000E+00 -0.00000000000E+00 -0.61947439658E+03  0.61947439658E+03  0.00000000000E+00 0.  1.
         25    2    1    2    0    0  0.89788728836E+02  0.14966064425E+02 -0.28605138270E+03  0.32520579228E+03  0.12508962738E+03 0.  0.
          5    1    3    3  502    0  0.48204965123E+02  0.17149474526E+02 -0.18756326812E+02  0.54654325854E+02  0.41800000000E+01 0. -1.
         -5    1    3    3    0  502  0.41583763713E+02 -0.21834101012E+01 -0.26729505588E+03  0.27055146642E+03  0.41800000000E+01 0. -1.
        -11    1    1    2    0    0 -0.89742810391E+01  0.31214908832E+02 -0.48696978861E+02  0.58534639349E+02  0.00000000000E+00 0. -1.
         11    1    1    2    0    0 -0.80814447797E+02 -0.46180973257E+02 -0.25190692303E+03  0.26855307694E+03  0.00000000000E+00 0.  1.
</event>
<event>
 7    1  0.2688177E-009  0.1413784E+03  0.7561462E-02  0.1211486E+00
         -1   -1    0    0    0  501 -0.00000000000E+00  0.00000000000E+00  0.13891233868E+03  0.13891233868E+03  0.00000000000E+00 0.  1.
          1   -1    0    0  501    0  0.00000000000E+00 -0.00000000000E+00 -0.17325963211E+03  0.17325963211E+03  0.00000000000E+00 0. -1.
         25    2    1    2    0    0  0.62785853923E+02  0.86404333300E+02  0.59466338222E+01  0.16459550512E+03  0.12509414689E+03 0.  0.
          5    1    3    3  502    0 -0.10691072039E+02  0.62847603000E+02 -0.39340950788E+02  0.75028681403E+02  0.41800000000E+01 0. -1.
         -5    1    3    3    0  502  0.73476925962E+02  0.23556730301E+02  0.45287584610E+02  0.89566823719E+02  0.41800000000E+01 0. -1.
        -11    1    1    2    0    0 -0.87450267090E+02 -0.65420938688E+02 -0.26523107794E+02  0.11238738221E+03  0.00000000000E+00 0.  1.
         11    1    1    2    0    0  0.24664413166E+02 -0.20983394613E+02 -0.13770819449E+02  0.35189083458E+02  0.00000000000E+00 0. -1.
</event>
<event>
 7    1  0.2688177E-009  0.1256473E+03  0.7561462E-02  0.1234061E+00
         -1   -1    0    0    0  501 -0.00000000000E+00  0.00000000000E+00  0.61742477039E+02  0.61742477039E+02  0.00000000000E+00 0.  1.
          1   -1    0    0  501    0  0.00000000000E+00 -0.00000000000E+00 -0.35726926213E+03  0.35726926213E+03  0.00000000000E+00 0. -1.
         25    2    1    2    0    0 -0.70958908580E+02 -0.36841904559E+02 -0.25149835925E+03  0.29204777379E+03  0.12509190554E+03 0.  0.
          5    1    3    3  502    0 -0.99542774983E+02 -0.53978796416E+02 -0.21037075350E+03  0.23894727628E+03  0.41800000000E+01 0.  1.
         -5    1    3    3    0  502  0.28583866403E+02  0.17136891857E+02 -0.41127605744E+02  0.53100497505E+02  0.41800000000E+01 0.  1.
        -11    1    1    2    0    0  0.22401891431E+02  0.49396512095E+02  0.78522652973E+01  0.54804363121E+02  0.00000000000E+00 0.  1.
         11    1    1    2    0    0  0.48557017149E+02 -0.12554607536E+02 -0.51880691137E+02  0.72159602255E+02  0.00000000000E+00 0. -1.
</event>
<event>
 7    1  0.2887560E-009  0.1236408E+03  0.7561462E-02  0.1237209E+00
          1   -1    0    0  501    0  0.00000000000E+00  0.00000000000E+00  0.16847565973E+03  0.16847565973E+03  0.00000000000E+00 0. -1.
         -1   -1    0    0    0  501 -0.00000000000E+00 -0.00000000000E+00 -0.11801717757E+03  0.11801717757E+03  0.00000000000E+00 0.  1.
         25    2    1    2    0    0  0.35626671370E+02 -0.67390106146E+02  0.75619132776E+02  0.16485623562E+03  0.12509452050E+03 0.  0.
          5    1    3    3  502    0 -0.26463271832E+02 -0.74359850998E+02  0.21045102797E+02  0.81792792765E+02  0.41800000000E+01 0.  1.
         -5    1    3    3    0  502  0.62089943202E+02  0.69697448520E+01  0.54574029979E+02  0.83063442851E+02  0.41800000000E+01 0.  1.
        -11    1    1    2    0    0 -0.58014735057E+02  0.55440351584E+02 -0.42592677908E+02  0.90848655900E+02  0.00000000000E+00 0.  1.
         11    1    1    2    0    0  0.22388063687E+02  0.11949754562E+02  0.17432027293E+02  0.30787945779E+02  0.00000000000E+00 0. -1.
</event>
<event>
 7    1  0.2688177E-009  0.1075217E+03  0.7561462E-02  0.1265229E+00
         -2   -1    0    0    0  501 -0.00000000000E+00  0.00000000000E+00  0.41071659242E+02  0.41071659242E+02  0.00000000000E+00 0.  1.
          2   -1    0    0  501    0  0.00000000000E+00 -0.00000000000E+00 -0.55537087506E+03  0.55537087506E+03  0.00000000000E+00 0. -1.
         25    2    1    2    0    0 -0.28446453906E+00  0.72550378378E+02 -0.42712981828E+03  0.45094443248E+03  0.12508941281E+03 0.  0.
          5    1    3    3  502    0 -0.41857566857E+02  0.66299006512E+02 -0.37835556003E+03  0.38641689453E+03  0.41800000000E+01 0. -1.
         -5    1    3    3    0  502  0.41573102318E+02  0.62513718662E+01 -0.48774258248E+02  0.64527537952E+02  0.41800000000E+01 0. -1.
        -11    1    1    2    0    0  0.22221530723E+02 -0.43597482576E+01  0.10019994354E+02  0.24762958616E+02  0.00000000000E+00 0.  1.
         11    1    1    2    0    0 -0.21937066184E+02 -0.68190630120E+02 -0.97189391885E+02  0.12073514320E+03  0.00000000000E+00 0. -1.
</event>
<event>
 7    1  0.2688177E-009  0.7971076E+02  0.7561462E-02  0.1329874E+00
          2   -1    0    0  501    0  0.00000000000E+00  0.00000000000E+00  0.30915078565E+03  0.30915078565E+03  0.00000000000E+00 0. -1.
         -2   -1    0    0    0  501 -0.00000000000E+00 -0.00000000000E+00 -0.39871993444E+02  0.39871993444E+02  0.00000000000E+00 0.  1.
         25    2    1    2    0    0 -0.10131839504E+02 -0.13536709643E+02  0.15146481773E+03  0.19717045578E+03  0.12509476785E+03 0.  0.
          5    1    3    3  502    0 -0.14720680730E+02  0.52129762977E+02  0.39315909324E+02  0.67062834381E+02  0.41800000000E+01 0. -1.
         -5    1    3    3    0  502  0.45888412269E+01 -0.65666472620E+02  0.11214890841E+03  0.13010762140E+03  0.41800000000E+01 0. -1.
        -11    1    1    2    0    0  0.16143462957E+02 -0.71019390794E+01 -0.11309833082E+02  0.20951402322E+02  0.00000000000E+00 0.  1.
         11    1    1    2    0    0 -0.60116234535E+01  0.20638648722E+02  0.12912380756E+03  0.13090092099E+03  0.00000000000E+00 0. -1.
</event>
<event>
 7    1  0.2688177E-009  0.1872052E+03  0.7561462E-02  0.1161007E+00
         -1   -1    0    0    0  501 -0.00000000000E+00  0.00000000000E+00  0.12619281285E+03  0.12619281285E+03  0.00000000000E+00 0.  1.
          1   -1    0    0  501    0  0.00000000000E+00 -0.00000000000E+00 -0.37445688799E+03  0.37445688799E+03  0.00000000000E+00 0. -1.
         25    2    1    2    0    0 -0.13397230064E+03 -0.12673431546E+03 -0.16441966504E+03  0.27693168618E+03  0.12508864259E+03 0.  0.
          5    1    3    3  502    0 -0.19367118236E+02 -0.89115321346E+01 -0.96702094967E+02  0.99112402074E+02  0.41800000000E+01 0.  1.
         -5    1    3    3    0  502 -0.11460518240E+03 -0.11782278333E+03 -0.67717570071E+02  0.17781928411E+03  0.41800000000E+01 0.  1.
        -11    1    1    2    0    0  0.11917286981E+03  0.92141239188E+02 -0.23294222312E+02  0.15242966133E+03  0.00000000000E+00 0.  1.
         11    1    1    2    0    0  0.14799430822E+02  0.34593076272E+02 -0.60550187798E+02  0.71288353333E+02  0.00000000000E+00 0. -1.
</event>
<event>
 7    1  0.2688177E-009  0.9342932E+02  0.7561462E-02  0.1294753E+00
         -3   -1    0    0    0  501 -0.00000000000E+00  0.00000000000E+00  0.52464273125E+02  0.52464273125E+02  0.00000000000E+00 0.  1.
          3   -1    0    0  501    0  0.00000000000E+00 -0.00000000000E+00 -0.24070686988E+03  0.24070686988E+03  0.00000000000E+00 0. -1.
         25    2    1    2    0    0 -0.85060291453E+01 -0.20201130030E+02 -0.14457612349E+03  0.19243221258E+03  0.12508981880E+03 0.  0.
          5    1    3    3  502    0 -0.45422934619E+01 -0.68549278958E+02 -0.46881604121E+02  0.83276607043E+02  0.41800000000E+01 0. -1.
         -5    1    3    3    0  502 -0.39637356834E+01  0.48348148928E+02 -0.97694519367E+02  0.10915560554E+03  0.41800000000E+01 0. -1.
        -11    1    1    2    0    0 -0.21781452506E+02  0.30387259272E+02 -0.55282960409E+02  0.66738466501E+02  0.00000000000E+00 0. -1.
         11    1    1    2    0    0  0.30287481651E+02 -0.10186129242E+02  0.11616487141E+02  0.34000463926E+02  0.00000000000E+00 0.  1.
</event>
<event>
 7    1  0.2688177E-009  0.1607957E+03  0.7561462E-02  0.1187801E+00
          1   -1    0    0  501    0  0.00000000000E+00  0.00000000000E+00  0.72733813511E+02  0.72733813511E+02  0.00000000000E+00 0. -1.
         -1   -1    0    0    0  501 -0.00000000000E+00 -0.00000000000E+00 -0.47165444734E+03  0.47165444734E+03  0.00000000000E+00 0.  1.
         25    2    1    2    0    0  0.10939718358E+03  0.93840914976E+02 -0.15173277131E+03  0.24381131480E+03  0.12508901726E+03 0.  0.
          5    1    3    3  502    0  0.95776499150E+02  0.11634993750E+03 -0.87587788959E+02  0.17435463550E+03  0.41800000000E+01 0. -1.
         -5    1    3    3    0  502  0.13620684427E+02 -0.22509022525E+02 -0.64144982346E+02  0.69456679300E+02  0.41800000000E+01 0. -1.
        -11    1    1    2    0    0 -0.83014986995E+02 -0.73574762520E+02 -0.98932978343E+02  0.14863535229E+03  0.00000000000E+00 0. -1.
         11    1    1    2    0    0 -0.26382196582E+02 -0.20266152455E+02 -0.14825488418E+03  0.15194159376E+03  0.00000000000E+00 0.  1.
</event>
<event>
 7    1  0.2688177E-009  0.1160455E+03  0.7561462E-02  0.1249767E+00
          1   -1    0    0  501    0  0.00000000000E+00  0.00000000000E+00  0.55079536399E+03  0.55079536399E+03  0.00000000000E+00 0. -1.
         -1   -1    0    0    0  501 -0.00000000000E+00 -0.00000000000E+00 -0.25023937204E+02  0.25023937204E+02  0.00000000000E+00 0.  1.
         25    2    1    2    0    0 -0.44195655601E+02  0.23595196213E+02  0.28471719304E+03  0.31499406953E+03  0.12508954620E+03 0.  0.
          5    1    3    3  502    0 -0.57173732001E+02  0.66696322387E+02  0.20989774206E+03  0.22757805161E+03  0.41800000000E+01 0. -1.
         -5    1    3    3    0  502  0.12978076400E+02 -0.43101126175E+02  0.74819450980E+02  0.87416017923E+02  0.41800000000E+01 0. -1.
        -11    1    1    2    0    0  0.29031296432E+02  0.30884271409E+02  0.11850788007E+03  0.12586012884E+03  0.00000000000E+00 0. -1.
         11    1    1    2    0    0  0.15164359170E+02 -0.54479467621E+02  0.12254635368E+03  0.13496510283E+03  0.00000000000E+00 0.  1.
</event>
<event>
 7    1  0.2688177E-009  0.1371834E+03  0.7561462E-02  0.1217170E+00
          1   -1    0    0  501    0  0.00000000000E+00  0.00000000000E+00  0.21637687445E+03  0.21637687445E+03  0.00000000000E+00 0.  1.
         -1   -1    0    0    0  501 -0.00000000000E+00 -0.00000000000E+00 -0.10293910484E+03  0.10293910484E+03  0.00000000000E+00 0. -1.
         25    2    1    2    0    0 -0.98694693732E+02  0.17323325774E+02  0.35696978972E+02  0.16421733701E+03  0.12510922939E+03 0.  0.
          5    1    3    3  502    0 -0.27480809502E+02 -0.52490230136E+02  0.41679434791E+01  0.59542113697E+02  0.41800000000E+01 0.  1.
         -5    1    3    3    0  502 -0.71213884230E+02  0.69813555910E+02  0.31529035493E+02  0.10467522331E+03  0.41800000000E+01 0.  1.
        -11    1    1    2    0    0  0.17130440962E+02 -0.28073320068E+02 -0.10435260024E+02  0.34503013766E+02  0.00000000000E+00 0. -1.
         11    1    1    2    0    0  0.81564252770E+02  0.10749994294E+02  0.88176050663E+02  0.12059562852E+03  0.00000000000E+00 0.  1.
</event>
<event>
 7    1  0.2688177E-009  0.1081090E+03  0.7561462E-02  0.1264112E+00
         -2   -1    0    0    0  501 -0.00000000000E+00  0.00000000000E+00  0.10332289140E+03  0.10332289140E+03  0.00000000000E+00 0.  1.
          2   -1    0    0  501    0  0.00000000000E+00 -0.00000000000E+00 -0.17420503649E+03  0.17420503649E+03  0.00000000000E+00 0. -1.
         25    2    1    2    0    0 -0.41966210397E+02 -0.60300608246E+02 -0.97741455209E+01  0.14539956350E+03  0.12509265756E+03 0.  0.
          5    1    3    3  502    0 -0.17799966362E+02  0.18455755806E+02  0.41000477358E+02  0.48538286625E+02  0.41800000000E+01 0.  1.
         -5    1    3    3    0  502 -0.24166244035E+02 -0.78756364052E+02 -0.50774622879E+02  0.96861276876E+02  0.41800000000E+01 0.  1.
        -11    1    1    2    0    0  0.10336606933E+02  0.72955983554E+02 -0.64454568924E+02  0.97896948034E+02  0.00000000000E+00 0. -1.
         11    1    1    2    0    0  0.31629603464E+02 -0.12655375308E+02  0.33465693601E+01  0.34231416359E+02  0.00000000000E+00 0.  1.
</event>
<event>
 7    1  0.2688177E-009  0.9668265E+02  0.7561462E-02  0.1287431E+00
         -2   -1    0    0    0  501 -0.00000000000E+00  0.00000000000E+00  0.96684822442E+02  0.96684822442E+02  0.00000000000E+00 0.  1.
          2   -1    0    0  501    0  0.00000000000E+00 -0.00000000000E+00 -0.15751902495E+03  0.15751902495E+03  0.00000000000E+00 0. -1.
         25    2    1    2    0    0  0.25262709106E+02  0.20459636418E+02 -0.80849020942E+02  0.15244700054E+03  0.12508686019E+03 0.  0.
          5    1    3    3  502    0  0.59597044795E+01 -0.40700850461E+02  0.86697203561E+01  0.42245872660E+02  0.41800000000E+01 0. -1.
         -5    1    3    3    0  502  0.19303004627E+02  0.61160486879E+02 -0.89518741298E+02  0.11020112788E+03  0.41800000000E+01 0. -1.
        -11    1    1    2    0    0  0.59462626398E+01  0.28814714774E+02  0.30630829544E+02  0.42472267957E+02  0.00000000000E+00 0.  1.
         11    1    1    2    0    0 -0.31208971746E+02 -0.49274351192E+02 -0.10616011113E+02  0.59284578895E+02  0.00000000000E+00 0. -1.
</event>
<event>
 7    1  0.2688177E-009  0.1139570E+03  0.7561462E-02  0.1253413E+00
         -2   -1    0    0    0  501 -0.00000000000E+00  0.00000000000E+00  0.18047544331E+03  0.18047544331E+03  0.00000000000E+00 0.  1.
          2   -1    0    0  501    0  0.00000000000E+00 -0.00000000000E+00 -0.83080403414E+02  0.83080403414E+02  0.00000000000E+00 0. -1.
         25    2    1    2    0    0  0.24936466407E+02  0.51841943987E+02  0.44228009434E+02  0.14461247774E+03  0.12508891792E+03 0.  0.
          5    1    3    3  502    0  0.11418439461E+02  0.85924163663E+02 -0.29948167350E+00  0.86780785605E+02  0.41800000000E+01 0. -1.
         -5    1    3    3    0  502  0.13518026946E+02 -0.34082219676E+02  0.44527491107E+02  0.57831692132E+02  0.41800000000E+01 0. -1.
        -11    1    1    2    0    0 -0.52662611818E+02 -0.55212825270E+02  0.49061488481E+02  0.90712934082E+02  0.00000000000E+00 0.  1.
         11    1    1    2    0    0  0.27726145411E+02  0.33708812825E+01  0.41055419810E+01  0.28230434905E+02  0.00000000000E+00 0. -1.
</event>
<event>
 7    1  0.2688177E-009  0.8125833E+02  0.7561462E-02  0.1325518E+00
         -3   -1    0    0    0  501 -0.00000000000E+00  0.00000000000E+00  0.45686656443E+02  0.45686656443E+02  0.00000000000E+00 0.  1.
          3   -1    0    0  501    0  0.00000000000E+00 -0.00000000000E+00 -0.30369875409E+03  0.30369875409E+03  0.00000000000E+00 0. -1.
         25    2    1    2    0    0 -0.51419474759E+00 -0.42865398201E+02 -0.16811470442E+03  0.21388564359E+03  0.12508720132E+03 0.  0.
          5    1    3    3  502    0 -0.37641767792E+02 -0.13309332616E+02 -0.16074252663E+03  0.16567942928E+03  0.41800000000E+01 0. -1.
         -5    1    3    3    0  502  0.37127573044E+02 -0.29556065586E+02 -0.73721777848E+01  0.48206214313E+02  0.41800000000E+01 0. -1.
        -11    1    1    2    0    0 -0.29025642796E+02  0.32141239343E+02 -0.33657441405E+01  0.43438179518E+02  0.00000000000E+00 0.  1.
         11    1    1    2    0    0  0.29539837543E+02  0.10724158858E+02 -0.86531649088E+02  0.92061587425E+02  0.00000000000E+00 0. -1.
</event>
<event>
 7    1  0.2688177E-009  0.1190191E+03  0.7561462E-02  0.1244724E+00
         -1   -1    0    0    0  501 -0.00000000000E+00  0.00000000000E+00  0.63250955333E+02  0.63250955333E+02  0.00000000000E+00 0.  1.
          1   -1    0    0  501    0  0.00000000000E+00 -0.00000000000E+00 -0.32602986306E+03  0.32602986306E+03  0.00000000000E+00 0. -1.
         25    2    1    2    0    0  0.77897071341E+02  0.30472264606E+02 -0.20055914167E+03  0.25073405233E+03  0.12508830103E+03 0.  0.
          5    1    3    3  502    0  0.68845016544E+01 -0.45016976451E+02 -0.48441190375E+02  0.66617909429E+02  0.41800000000E+01 0.  1.
         -5    1    3    3    0  502  0.71012569686E+02  0.75489241057E+02 -0.15211795130E+03  0.18411614290E+03  0.41800000000E+01 0.  1.
        -11    1    1    2    0    0 -0.64188287736E+02 -0.11556295979E+02  0.69015730733E+01  0.65584418653E+02  0.00000000000E+00 0.  1.
         11    1    1    2    0    0 -0.13708783605E+02 -0.18915968628E+02 -0.69121339131E+02  0.72962347415E+02  0.00000000000E+00 0. -1.
</event>
<event>
 7    1  0.2688177E-009  0.1051290E+03  0.7561462E-02  0.1269866E+00
         -1   -1    0    0    0  501 -0.00000000000E+00  0.00000000000E+00  0.18138666905E+02  0.18138666905E+02  0.00000000000E+00 0.  1.
          1   -1    0    0  501    0  0.00000000000E+00 -0.00000000000E+00 -0.69354075475E+03  0.69354075475E+03  0.00000000000E+00 0. -1.
         25    2    1    2    0    0 -0.17620778159E+02  0.17521364369E+02 -0.42375073023E+03  0.44252597705E+03  0.12508824472E+03 0.  0.
          5    1    3    3  502    0  0.91397904573E+01 -0.45638534567E+02 -0.27138326056E+03  0.27537748296E+03  0.41800000000E+01 0.  1.
         -5    1    3    3    0  502 -0.26760568616E+02  0.63159898936E+02 -0.15236746966E+03  0.16714849409E+03  0.41800000000E+01 0.  1.
        -11    1    1    2    0    0  0.59346409122E+01  0.37799166257E+02 -0.86285464661E+02  0.94388443913E+02  0.00000000000E+00 0.  1.
         11    1    1    2    0    0  0.11686137247E+02 -0.55320530626E+02 -0.16536589296E+03  0.17476500069E+03  0.00000000000E+00 0. -1.
</event>
<event>
 7    1  0.2688177E-009  0.8908392E+02  0.7561462E-02  0.1305085E+00
         -2   -1    0    0    0  501 -0.00000000000E+00  0.00000000000E+00  0.96874275853E+02  0.96874275853E+02  0.00000000000E+00 0.  1.
          2   -1    0    0  501    0  0.00000000000E+00 -0.00000000000E+00 -0.13181824589E+03  0.13181824589E+03  0.00000000000E+00 0. -1.
         25    2    1    2    0    0 -0.29479495484E+02  0.46971155829E+01 -0.32453307068E+02  0.13263323500E+03  0.12508898568E+03 0.  0.
          5    1    3    3  502    0 -0.69204176845E+00 -0.56320140307E+02  0.24996756946E+01  0.56534572649E+02  0.41800000000E+01 0.  1.
         -5    1    3    3    0  502 -0.28787453715E+02  0.61017255890E+02 -0.34952982763E+02  0.76098662352E+02  0.41800000000E+01 0.  1.
        -11    1    1    2    0    0  0.36696397047E+02  0.97265754743E+01  0.37240228617E+02  0.53179568014E+02  0.00000000000E+00 0.  1.
         11    1    1    2    0    0 -0.72169015630E+01 -0.14423691057E+02 -0.39730891582E+02  0.42879718724E+02  0.00000000000E+00 0. -1.
</event>
<event>
 7    1  0.2688177E-009  0.1155045E+03  0.7561462E-02  0.1250703E+00
         -2   -1    0    0    0  501 -0.00000000000E+00  0.00000000000E+00  0.39986162042E+03  0.39986162042E+03  0.00000000000E+00 0.  1.
          2   -1    0    0  501    0  0.00000000000E+00 -0.00000000000E+00 -0.40185544326E+02  0.40185544326E+02  0.00000000000E+00 0. -1.
         25    2    1    2    0    0  0.30851211488E+02  0.30524418863E+02  0.11321407501E+03  0.17421209863E+03  0.12509552802E+03 0.  0.
          5    1    3    3  502    0 -0.29103289237E+02  0.58717494476E+02  0.49897105595E+02  0.82473869491E+02  0.41800000000E+01 0.  1.
         -5    1    3    3    0  502  0.59954500725E+02 -0.28193075614E+02  0.63316969418E+02  0.91738229142E+02  0.41800000000E+01 0.  1.
        -11    1    1    2    0    0  0.26058366400E+02  0.11227776312E+02  0.85266520566E+02  0.89863679814E+02  0.00000000000E+00 0. -1.
         11    1    1    2    0    0 -0.56909577887E+02 -0.41752195175E+02  0.16119548051E+03  0.17597138630E+03  0.00000000000E+00 0.  1.
</event>
<event>
 7    1  0.2688177E-009  0.1044442E+03  0.7561462E-02  0.1271219E+00
         -2   -1    0    0    0  501 -0.00000000000E+00  0.00000000000E+00  0.63830918802E+02  0.63830918802E+02  0.00000000000E+00 0.  1.
          2   -1    0    0  501    0  0.00000000000E+00 -0.00000000000E+00 -0.28408627798E+03  0.28408627798E+03  0.00000000000E+00 0. -1.
         25    2    1    2    0    0  0.35256334026E+02  0.24869101101E+02 -0.21406626723E+03  0.25165991213E+03  0.12508742274E+03 0.  0.
          5    1    3    3  502    0 -0.35722514442E+02 -0.24531437097E+02 -0.94425217528E+02  0.10397828403E+03  0.41800000000E+01 0. -1.
         -5    1    3    3    0  502  0.70978848468E+02  0.49400538198E+02 -0.11964104970E+03  0.14768162810E+03  0.41800000000E+01 0. -1.
        -11    1    1    2    0    0 -0.50413283206E+02 -0.90824361069E+00 -0.30483475629E+02  0.58919999291E+02  0.00000000000E+00 0. -1.
         11    1    1    2    0    0  0.15156949180E+02 -0.23960857490E+02  0.24294383679E+02  0.37337285366E+02  0.00000000000E+00 0.  1.
</event>
<event>
 7    1  0.2688177E-009  0.1488882E+03  0.7561462E-02  0.1201846E+00
          1   -1    0    0  501    0  0.00000000000E+00  0.00000000000E+00  0.14094656872E+04  0.14094656872E+04  0.00000000000E+00 0. -1.
         -1   -1    0    0    0  501 -0.00000000000E+00 -0.00000000000E+00 -0.16717911557E+02  0.16717911557E+02  0.00000000000E+00 0.  1.
         25    2    1    2    0    0 -0.75930430630E+02 -0.78947158187E+02  0.81723943874E+03  0.83398174535E+03  0.12508863764E+03 0.  0.
          5    1    3    3  502    0 -0.79369227090E+02 -0.10574821538E+03  0.56573648779E+03  0.58099690643E+03  0.41800000000E+01 0.  1.
         -5    1    3    3    0  502  0.34387964597E+01  0.26801057189E+02  0.25150295095E+03  0.25298483892E+03  0.41800000000E+01 0.  1.
        -11    1    1    2    0    0  0.17283085015E+02  0.77583042351E+02  0.37259119494E+03  0.38097510684E+03  0.00000000000E+00 0.  1.
         11    1    1    2    0    0  0.58647345616E+02  0.13641158355E+01  0.20291714193E+03  0.21122674653E+03  0.00000000000E+00 0. -1.
</event>
<event>
 7    1  0.2688177E-009  0.8877638E+02  0.7561462E-02  0.1305842E+00
          3   -1    0    0  501    0  0.00000000000E+00  0.00000000000E+00  0.34991904267E+02  0.34991904267E+02  0.00000000000E+00 0. -1.
         -3   -1    0    0    0  501 -0.00000000000E+00 -0.00000000000E+00 -0.36095715324E+03  0.36095715324E+03  0.00000000000E+00 0.  1.
         25    2    1    2    0    0 -0.18897341759E+02 -0.10781785482E+02 -0.16974875049E+03  0.21197766610E+03  0.12508611518E+03 0.  0.
          5    1    3    3  502    0 -0.16882725578E+02 -0.50148226264E+02 -0.16343611791E+03  0.17183919244E+03  0.41800000000E+01 0.  1.
         -5    1    3    3    0  502 -0.20146161815E+01  0.39366440782E+02 -0.63126325791E+01  0.40138473666E+02  0.41800000000E+01 0.  1.
        -11    1    1    2    0    0 -0.22866596498E+02 -0.22008157093E+02 -0.10687242075E+03  0.11148522113E+03  0.00000000000E+00 0.  1.
         11    1    1    2    0    0  0.41763938257E+02  0.32789942575E+02 -0.49344077733E+02  0.72486170268E+02  0.00000000000E+00 0. -1.
</event>
<event>
 7    1  0.2688177E-009  0.9859675E+02  0.7561462E-02  0.1283275E+00
          1   -1    0    0  501    0  0.00000000000E+00  0.00000000000E+00  0.53261881362E+02  0.53261881362E+02  0.00000000000E+00 0. -1.
         -1   -1    0    0    0  501 -0.00000000000E+00 -0.00000000000E+00 -0.40044428754E+03  0.40044428754E+03  0.00000000000E+00 0.  1.
         25    2    1    2    0    0 -0.93118492366E+02  0.17199513510E+02 -0.22679066164E+03  0.27576864427E+03  0.12508982401E+03 0.  0.
          5    1    3    3  502    0 -0.22089974266E+02  0.48049164549E+01  0.12254127976E+02  0.26051683970E+02  0.41800000000E+01 0.  1.
         -5    1    3    3    0  502 -0.71028518100E+02  0.12394597055E+02 -0.23904478961E+03  0.24971696030E+03  0.41800000000E+01 0.  1.
        -11    1    1    2    0    0  0.45246000352E+02  0.10805904444E+02 -0.12685141931E+01  0.46535763097E+02  0.00000000000E+00 0. -1.
         11    1    1    2    0    0  0.47872492014E+02 -0.28005417954E+02 -0.11912323035E+03  0.13140176154E+03  0.00000000000E+00 0.  1.
</event>
<event>
 7    1  0.2688177E-009  0.7155673E+02  0.7561462E-02  0.1354878E+00
          1   -1    0    0  501    0  0.00000000000E+00  0.00000000000E+00  0.78246920737E+03  0.78246920737E+03  0.00000000000E+00 0. -1.
         -1   -1    0    0    0  501 -0.00000000000E+00 -0.00000000000E+00 -0.17847910241E+02  0.17847910241E+02  0.00000000000E+00 0.  1.
         25    2    1    2    0    0  0.43646661340E+02 -0.16480221313E+02  0.48566890977E+03  0.50368520239E+03  0.12509142437E+03 0.  0.
          5    1    3    3  502    0  0.13055765602E+02 -0.49717190209E+00  0.46064481865E+03  0.46084902251E+03  0.41800000000E+01 0. -1.
         -5    1    3    3    0  502  0.30590895737E+02 -0.15983049410E+02  0.25024091111E+02  0.42836179876E+02  0.41800000000E+01 0. -1.
        -11    1    1    2    0    0 -0.41257300273E+01  0.45444071016E+02  0.83753605115E+02  0.95377416659E+02  0.00000000000E+00 0.  1.
         11    1    1    2    0    0 -0.39520931312E+02 -0.28963849704E+02  0.19519878225E+03  0.20125449856E+03  0.00000000000E+00 0. -1.
</event>
<event>
 7    1  0.2688177E-009  0.1076216E+03  0.7561462E-02  0.1265039E+00
          1   -1    0    0  501    0  0.00000000000E+00  0.00000000000E+00  0.48769727677E+03  0.48769727677E+03  0.00000000000E+00 0. -1.
         -1   -1    0    0    0  501 -0.00000000000E+00 -0.00000000000E+00 -0.30224586122E+02  0.30224586122E+02  0.00000000000E+00 0.  1.
         25    2    1    2    0    0  0.55554302169E+02  0.26287065842E+02  0.27090149591E+03  0.30464749607E+03  0.12508071818E+03 0.  0.
          5    1    3    3  502    0 -0.37513368973E+02 -0.16987163477E+01  0.11339684187E+03  0.11952595800E+03  0.41800000000E+01 0.  1.
         -5    1    3    3    0  502  0.93067671143E+02  0.27985782190E+02  0.15750465403E+03  0.18512153807E+03  0.41800000000E+01 0.  1.
        -11    1    1    2    0    0  0.12544891790E+00 -0.24475828263E+02  0.72923368315E+01  0.25539382981E+02  0.00000000000E+00 0.  1.
         11    1    1    2    0    0 -0.55679751087E+02 -0.18112375795E+01  0.17927885791E+03  0.18773498384E+03  0.00000000000E+00 0. -1.
</event>
<event>
 7    1  0.2688177E-009  0.1077408E+03  0.7561462E-02  0.1264812E+00
         -1   -1    0    0    0  501 -0.00000000000E+00  0.00000000000E+00  0.18974489519E+03  0.18974489519E+03  0.00000000000E+00 0. -1.
          1   -1    0    0  501    0  0.00000000000E+00 -0.00000000000E+00 -0.10441505844E+03  0.10441505844E+03  0.00000000000E+00 0.  1.
         25    2    1    2    0    0  0.69649849045E+02 -0.10136229849E+02  0.96420039271E+02  0.17291195717E+03  0.12509147185E+03 0.  0.
          5    1    3    3  502    0  0.83111272998E+02  0.14279632458E+01  0.11816583177E+03  0.14453428305E+03  0.41800000000E+01 0.  1.
         -5    1    3    3    0  502 -0.13461423953E+02 -0.11564193094E+02 -0.21745792500E+02  0.28377674116E+02  0.41800000000E+01 0.  1.
        -11    1    1    2    0    0 -0.53678505650E+02  0.48576227036E+02 -0.26162520109E+02  0.76977329522E+02  0.00000000000E+00 0.  1.
         11    1    1    2    0    0 -0.15971343395E+02 -0.38439997188E+02  0.15072317591E+02  0.44270666939E+02  0.00000000000E+00 0. -1.
</event>
<event>
 7    1  0.2688177E-009  0.8312822E+02  0.7561462E-02  0.1320401E+00
         -1   -1    0    0    0  501 -0.00000000000E+00  0.00000000000E+00  0.53636588264E+02  0.53636588264E+02  0.00000000000E+00 0.  1.
          1   -1    0    0  501    0  0.00000000000E+00 -0.00000000000E+00 -0.26731376916E+03  0.26731376916E+03  0.00000000000E+00 0. -1.
         25    2    1    2    0    0  0.15764401667E+02 -0.48545299918E+02 -0.13095313196E+03  0.18814981596E+03  0.12508584242E+03 0.  0.
          5    1    3    3  502    0  0.22958459881E+02 -0.88317757168E+01  0.19912542644E+02  0.31922921185E+02  0.41800000000E+01 0. -1.
         -5    1    3    3    0  502 -0.71940582140E+01 -0.39713524201E+02 -0.15086567461E+03  0.15622689478E+03  0.41800000000E+01 0. -1.
        -11    1    1    2    0    0  0.35343080346E+02  0.10043989021E+02 -0.46524709943E+02  0.59283755609E+02  0.00000000000E+00 0. -1.
         11    1    1    2    0    0 -0.51107482014E+02  0.38501310897E+02 -0.36199338993E+02  0.73516785852E+02  0.00000000000E+00 0.  1.
</event>
<event>
 7    1  0.2688177E-009  0.9743448E+02  0.7561462E-02  0.1285785E+00
         -2   -1    0    0    0  501 -0.00000000000E+00  0.00000000000E+00  0.97371360236E+02  0.97371360236E+02  0.00000000000E+00 0.  1.
          2   -1    0    0  501    0  0.00000000000E+00 -0.00000000000E+00 -0.13258119053E+03  0.13258119053E+03  0.00000000000E+00 0. -1.
         25    2    1    2    0    0 -0.32313845861E+02 -0.10457126525E+02 -0.94354444934E+01  0.12996239425E+03  0.12509060787E+03 0.  0.
          5    1    3    3  502    0 -0.35859192061E+02  0.45638677347E+02  0.25625960106E+02  0.63584060555E+02  0.41800000000E+01 0.  1.
         -5    1    3    3    0  502  0.35453462003E+01 -0.56095803871E+02 -0.35061404600E+02  0.66378333695E+02  0.41800000000E+01 0.  1.
        -11    1    1    2    0    0  0.47233841737E+02  0.29828193941E+02  0.99066315716E+01  0.56735335622E+02  0.00000000000E+00 0.  1.
         11    1    1    2    0    0 -0.14919995876E+02 -0.19371067416E+02 -0.35681017370E+02  0.43254820892E+02  0.00000000000E+00 0. -1.
</event>
<event>
 7    1  0.2688177E-009  0.2111130E+03  0.7561462E-02  0.1140688E+00
          1   -1    0    0  501    0  0.00000000000E+00  0.00000000000E+00  0.12945796907E+04  0.12945796907E+04  0.00000000000E+00 0. -1.
         -1   -1    0    0    0  501 -0.00000000000E+00 -0.00000000000E+00 -0.37953336863E+02  0.37953336863E+02  0.00000000000E+00 0.  1.
         25    2    1    2    0    0 -0.31668016578E+02 -0.18765005935E+03  0.55679897167E+03  0.60157168593E+03  0.12509192783E+03 0.  0.
          5    1    3    3  502    0  0.28244255697E+02 -0.10722155078E+03  0.17844741640E+03  0.21013127267E+03  0.41800000000E+01 0. -1.
         -5    1    3    3    0  502 -0.59912272275E+02 -0.80428508565E+02  0.37835155527E+03  0.39144041326E+03  0.41800000000E+01 0. -1.
        -11    1    1    2    0    0 -0.31385595062E+02  0.82702841395E+02  0.27919270837E+03  0.29287093396E+03  0.00000000000E+00 0. -1.
         11    1    1    2    0    0  0.63053611641E+02  0.10494721795E+03  0.42063467378E+03  0.43809040766E+03  0.00000000000E+00 0.  1.
</event>
<event>
 7    1  0.2688177E-009  0.1019316E+03  0.7561462E-02  0.1276286E+00
         -1   -1    0    0    0  501 -0.00000000000E+00  0.00000000000E+00  0.45224092146E+03  0.45224092146E+03  0.00000000000E+00 0.  1.
          1   -1    0    0  501    0  0.00000000000E+00 -0.00000000000E+00 -0.35829005402E+02  0.35829005402E+02  0.00000000000E+00 0. -1.
         25    2    1    2    0    0 -0.16046787123E+02  0.63471481502E+02  0.21000108250E+03  0.25305188076E+03  0.12509464963E+03 0.  0.
          5    1    3    3  502    0  0.16892000276E+02  0.62076626825E+02  0.31998598358E+02  0.71973814462E+02  0.41800000000E+01 0. -1.
         -5    1    3    3    0  502 -0.32938787399E+02  0.13948546776E+01  0.17800248414E+03  0.18107806630E+03  0.41800000000E+01 0. -1.
        -11    1    1    2    0    0  0.43116730265E+02 -0.71950094386E+01  0.12494231334E+03  0.13236843375E+03  0.00000000000E+00 0.  1.
         11    1    1    2    0    0 -0.27069943143E+02 -0.56276472064E+02  0.81468520217E+02  0.10264961235E+03  0.00000000000E+00 0. -1.
</event>
<event>
 7    1  0.2688177E-009  0.7572208E+02  0.7561462E-02  0.1341649E+00
          2   -1    0    0  501    0  0.00000000000E+00  0.00000000000E+00  0.27023933486E+03  0.27023933486E+03  0.00000000000E+00 0. -1.
         -2   -1    0    0    0  501 -0.00000000000E+00 -0.00000000000E+00 -0.67285420052E+02  0.67285420052E+02  0.00000000000E+00 0.  1.
         25    2    1    2    0    0 -0.65918406967E+02  0.26020362055E+02  0.12770432661E+03  0.19229379088E+03  0.12508481666E+03 0.  0.
          5    1    3    3  502    0 -0.58971771407E+02  0.34310955281E+02  0.15128808613E+03  0.16601345994E+03  0.41800000000E+01 0.  1.
         -5    1    3    3    0  502 -0.69466355595E+01 -0.82905932258E+01 -0.23583759517E+02  0.26280330945E+02  0.41800000000E+01 0.  1.
        -11    1    1    2    0    0  0.32794659027E+02 -0.78814205648E+01 -0.22429602003E+02  0.40505474899E+02  0.00000000000E+00 0.  1.
         11    1    1    2    0    0  0.33123747939E+02 -0.18138941490E+02  0.97679190200E+02  0.10472548913E+03  0.00000000000E+00 0. -1.
</event>
<event>
 7    1  0.2688177E-009  0.1022386E+03  0.7561462E-02  0.1275658E+00
         -1   -1    0    0    0  501 -0.00000000000E+00  0.00000000000E+00  0.88068326418E+02  0.88068326418E+02  0.00000000000E+00 0.  1.
          1   -1    0    0  501    0  0.00000000000E+00 -0.00000000000E+00 -0.22506258206E+03  0.22506258206E+03  0.00000000000E+00 0. -1.
         25    2    1    2    0    0  0.34441581655E+02 -0.36173970265E+02  0.76114295350E+01  0.13490647884E+03  0.12508815093E+03 0.  0.
          5    1    3    3  502    0 -0.22983427380E+02 -0.36037191549E+02  0.48127314819E+02  0.64502929705E+02  0.41800000000E+01 0. -1.
         -5    1    3    3    0  502  0.57425009035E+02 -0.13677871595E+00 -0.40515885284E+02  0.70403549140E+02  0.41800000000E+01 0. -1.
        -11    1    1    2    0    0  0.30683538041E+02  0.28985028422E+01 -0.48343351139E+02  0.57332019193E+02  0.00000000000E+00 0.  1.
         11    1    1    2    0    0 -0.65125119696E+02  0.33275467423E+02 -0.96262334042E+02  0.12089241044E+03  0.00000000000E+00 0. -1.
</event>
<event>
 7    1  0.2688177E-009  0.1045540E+03  0.7561462E-02  0.1271001E+00
         -2   -1    0    0    0  501 -0.00000000000E+00  0.00000000000E+00  0.25787756611E+02  0.25787756611E+02  0.00000000000E+00 0.  1.
          2   -1    0    0  501    0  0.00000000000E+00 -0.00000000000E+00 -0.48484223535E+03  0.48484223535E+03  0.00000000000E+00 0. -1.
         25    2    1    2    0    0  0.25559763190E+01 -0.72245500445E+01 -0.19818687091E+03  0.23448653073E+03  0.12508864919E+03 0.  0.
          5    1    3    3  502    0 -0.59363071665E+02  0.10664717794E+02 -0.88032977260E+02  0.10679413827E+03  0.41800000000E+01 0.  1.
         -5    1    3    3    0  502  0.61919047984E+02 -0.17889267839E+02 -0.11015389365E+03  0.12769239246E+03  0.41800000000E+01 0.  1.
        -11    1    1    2    0    0  0.35980340832E+01 -0.38126665144E+02 -0.69226260307E+02  0.79112979721E+02  0.00000000000E+00 0.  1.
         11    1    1    2    0    0 -0.61540104022E+01  0.45351215188E+02 -0.19164134753E+03  0.19703048151E+03  0.00000000000E+00 0. -1.
</event>
<event>
 7    1  0.2688177E-009  0.6935683E+02  0.7561462E-02  0.1362294E+00
         -2   -1    0    0    0  501 -0.00000000000E+00  0.00000000000E+00  0.85602698653E+02  0.85602698653E+02  0.00000000000E+00 0.  1.
          2   -1    0    0  501    0  0.00000000000E+00 -0.00000000000E+00 -0.14592843229E+03  0.14592843229E+03  0.00000000000E+00 0. -1.
         25    2    1    2    0    0  0.46284452731E+01 -0.82991471464E+01 -0.42020119613E+02  0.13230031630E+03  0.12508950752E+03 0.  0.
          5    1    3    3  502    0  0.86554040011E+01 -0.37343872337E+02 -0.77210468578E+02  0.86304169526E+02  0.41800000000E+01 0.  1.
         -5    1    3    3    0  502 -0.40269587280E+01  0.29044725191E+02  0.35190348964E+02  0.45996146776E+02  0.41800000000E+01 0.  1.
        -11    1    1    2    0    0  0.85114652857E+00 -0.30920922689E+02 -0.42694322006E+02  0.52722225313E+02  0.00000000000E+00 0. -1.
         11    1    1    2    0    0 -0.54795918016E+01  0.39220069835E+02  0.24388707983E+02  0.46508589328E+02  0.00000000000E+00 0.  1.
</event>
<event>
 7    1  0.2688177E-009  0.3914958E+02  0.7561462E-02  0.1514565E+00
         -4   -1    0    0    0  501 -0.00000000000E+00  0.00000000000E+00  0.75763425511E+02  0.75763425511E+02  0.00000000000E+00 0.  1.
          4   -1    0    0  501    0  0.00000000000E+00 -0.00000000000E+00 -0.16515360573E+03  0.16515360573E+03  0.00000000000E+00 0. -1.
         25    2    1    2    0    0 -0.83919646217E+01 -0.51589107000E+00 -0.74743333686E+02  0.14596127033E+03  0.12508970897E+03 0.  0.
          5    1    3    3  502    0  0.65688777292E+01 -0.82938372813E+01 -0.10791658041E+03  0.10851450879E+03  0.41800000000E+01 0.  1.
         -5    1    3    3    0  502 -0.14960842351E+02  0.77779462113E+01  0.33173246723E+02  0.37446761533E+02  0.41800000000E+01 0.  1.
        -11    1    1    2    0    0 -0.19785367082E+02 -0.59121067499E+01  0.33176316528E+02  0.39077893177E+02  0.00000000000E+00 0.  1.
         11    1    1    2    0    0  0.28177331703E+02  0.64279978199E+01 -0.47823163063E+02  0.55877867741E+02  0.00000000000E+00 0. -1.
</event>
<event>
 7    1  0.2688177E-009  0.6447035E+02  0.7561462E-02  0.1379975E+00
         -1   -1    0    0    0  501 -0.00000000000E+00  0.00000000000E+00  0.55935840926E+02  0.55935840926E+02  0.00000000000E+00 0.  1.
          1   -1    0    0  501    0  0.00000000000E+00 -0.00000000000E+00 -0.27377817177E+03  0.27377817177E+03  0.00000000000E+00 0. -1.
         25    2    1    2    0    0 -0.29629102073E+01 -0.16703819631E+02 -0.45526717087E+02  0.13419277060E+03  0.12508885356E+03 0.  0.
          5    1    3    3  502    0  0.13990583674E+02 -0.14216870814E+02 -0.86878460776E+02  0.89236736796E+02  0.41800000000E+01 0.  1.
         -5    1    3    3    0  502 -0.16953493881E+02 -0.24869488172E+01  0.41351743689E+02  0.44956033803E+02  0.41800000000E+01 0.  1.
        -11    1    1    2    0    0  0.71106991372E+01  0.53461705435E+02 -0.84652587734E+02  0.10037318666E+03  0.00000000000E+00 0.  1.
         11    1    1    2    0    0 -0.41477889299E+01 -0.36757885804E+02 -0.87663026021E+02  0.95148055434E+02  0.00000000000E+00 0. -1.
</event>
<event>
 7    1  0.2688177E-009  0.1979001E+03  0.7561462E-02  0.1151523E+00
          1   -1    0    0  501    0  0.00000000000E+00  0.00000000000E+00  0.89694679552E+03  0.89694679552E+03  0.00000000000E+00 0. -1.
         -1   -1    0    0    0  501 -0.00000000000E+00 -0.00000000000E+00 -0.61721709572E+02  0.61721709572E+02  0.00000000000E+00 0.  1.
         25    2    1    2    0    0  0.15882712695E+03 -0.38248377464E+02  0.17491035178E+03  0.27005564101E+03  0.12508966163E+03 0.  0.
          5    1    3    3  502    0 -0.10701266015E+02  0.22124281981E+02  0.29732955628E+02  0.38801056660E+02  0.41800000000E+01 0.  1.
         -5    1    3    3    0  502  0.16952839296E+03 -0.60372659445E+02  0.14517739615E+03  0.23125458435E+03  0.41800000000E+01 0.  1.
        -11    1    1    2    0    0 -0.45253398849E+02  0.60075436483E+02  0.19142275113E+03  0.20566866030E+03  0.00000000000E+00 0.  1.
         11    1    1    2    0    0 -0.11357372810E+03 -0.21827059020E+02  0.46889198303E+03  0.48294420379E+03  0.00000000000E+00 0. -1.
</event>
<event>
 7    1  0.2688177E-009  0.1648830E+03  0.7561462E-02  0.1183292E+00
          3   -1    0    0  501    0  0.00000000000E+00  0.00000000000E+00  0.22575325682E+03  0.22575325682E+03  0.00000000000E+00 0. -1.
         -3   -1    0    0    0  501 -0.00000000000E+00 -0.00000000000E+00 -0.13954779571E+03  0.13954779571E+03  0.00000000000E+00 0.  1.
         25    2    1    2    0    0 -0.10221162304E+03 -0.79718973156E+02 -0.83844896604E+01  0.18033449223E+03  0.12509156188E+03 0.  0.
          5    1    3    3  502    0  0.41504969648E+01 -0.71071256000E+02  0.98567697966E+01  0.71992904965E+02  0.41800000000E+01 0. -1.
         -5    1    3    3    0  502 -0.10636212000E+03 -0.86477171557E+01 -0.18241259457E+02  0.10834158726E+03  0.41800000000E+01 0. -1.
        -11    1    1    2    0    0  0.96895270732E+02  0.29684946854E+02  0.88010146071E+02  0.13422248460E+03  0.00000000000E+00 0. -1.
         11    1    1    2    0    0  0.53163523066E+01  0.50034026302E+02  0.65798046955E+01  0.50744075710E+02  0.00000000000E+00 0.  1.
</event>
<event>
 7    1  0.2688177E-009  0.1650249E+03  0.7561462E-02  0.1183138E+00
         -2   -1    0    0    0  501 -0.00000000000E+00  0.00000000000E+00  0.61237457930E+02  0.61237457930E+02  0.00000000000E+00 0.  1.
          2   -1    0    0  501    0  0.00000000000E+00 -0.00000000000E+00 -0.58504900721E+03  0.58504900721E+03  0.00000000000E+00 0. -1.
         25    2    1    2    0    0 -0.20089125903E+01 -0.14209218425E+03 -0.16755654391E+03  0.25279948274E+03  0.12505262297E+03 0.  0.
          5    1    3    3  502    0  0.47492105492E+02 -0.74109072059E+02 -0.33052720350E+02  0.94114873256E+02  0.41800000000E+01 0. -1.
         -5    1    3    3    0  502 -0.49501018082E+02 -0.67983112193E+02 -0.13450382356E+03  0.15868460948E+03  0.41800000000E+01 0. -1.
        -11    1    1    2    0    0 -0.26245319612E+02  0.11711274940E+03 -0.31742773271E+03  0.33935906996E+03  0.00000000000E+00 0. -1.
         11    1    1    2    0    0  0.28254232202E+02  0.24979434847E+02 -0.38827272667E+02  0.54127912443E+02  0.00000000000E+00 0.  1.
</event>
<event>
 7    1  0.2688177E-009  0.9889313E+02  0.7561462E-02  0.1282641E+00
         -1   -1    0    0    0  501 -0.00000000000E+00  0.00000000000E+00  0.22918734371E+03  0.22918734371E+03  0.00000000000E+00 0.  1.
          1   -1    0    0  501    0  0.00000000000E+00 -0.00000000000E+00 -0.59278713089E+02  0.59278713089E+02  0.00000000000E+00 0. -1.
         25    2    1    2    0    0 -0.21730845330E+02 -0.29090582463E+02  0.66741073986E+02  0.14635707588E+03  0.12509009184E+03 0.  0.
          5    1    3    3  502    0  0.98960974242E+01 -0.61151775156E+02 -0.41938450350E+01  0.62229680098E+02  0.41800000000E+01 0.  1.
         -5    1    3    3    0  502 -0.31626942754E+02  0.32061192693E+02  0.70934919021E+02  0.84127395784E+02  0.41800000000E+01 0.  1.
        -11    1    1    2    0    0  0.49776917002E+02  0.36185355527E+02  0.92854733778E+02  0.11139624323E+03  0.00000000000E+00 0.  1.
         11    1    1    2    0    0 -0.28046071672E+02 -0.70947730643E+01  0.10312822860E+02  0.30712737690E+02  0.00000000000E+00 0. -1.
</event>
<event>
 7    1  0.2688177E-009  0.1020057E+03  0.7561462E-02  0.1276134E+00
         -2   -1    0    0    0  501 -0.00000000000E+00  0.00000000000E+00  0.29389775826E+02  0.29389775826E+02  0.00000000000E+00 0.  1.
          2   -1    0    0  501    0  0.00000000000E+00 -0.00000000000E+00 -0.43315415314E+03  0.43315415314E+03  0.00000000000E+00 0. -1.
         25    2    1    2    0    0  0.84800136779E+01 -0.40338073626E+02 -0.25690997556E+03  0.28869366100E+03  0.12506887519E+03 0.  0.
          5    1    3    3  502    0  0.25354588763E+02  0.41014320717E+02 -0.89179869477E+02  0.10146699560E+03  0.41800000000E+01 0.  1.
         -5    1    3    3    0  502 -0.16874575085E+02 -0.81352394343E+02 -0.16773010609E+03  0.18722666540E+03  0.41800000000E+01 0.  1.
        -11    1    1    2    0    0  0.24997929577E+02  0.90078547549E+01 -0.81948641077E+01  0.27806361289E+02  0.00000000000E+00 0.  1.
         11    1    1    2    0    0 -0.33477943255E+02  0.31330218871E+02 -0.13865953765E+03  0.14604390668E+03  0.00000000000E+00 0. -1.
</event>
<event>
 7    1  0.2688177E-009  0.2192676E+03  0.7561462E-02  0.1134430E+00
         -1   -1    0    0    0  501 -0.00000000000E+00  0.00000000000E+00  0.26768705146E+02  0.26768705146E+02  0.00000000000E+00 0.  1.
          1   -1    0    0  501    0  0.00000000000E+00 -0.00000000000E+00 -0.20213719935E+04  0.20213719935E+04  0.00000000000E+00 0. -1.
         25    2    1    2    0    0  0.15054232924E+03  0.12296353639E+03 -0.13195215306E+04  0.13396149036E+04  0.12509194964E+03 0.  0.
          5    1    3    3  502    0  0.14975937149E+03  0.50906153896E+02 -0.85491819303E+03  0.86943768898E+03  0.41800000000E+01 0. -1.
         -5    1    3    3    0  502  0.78295774847E+00  0.72057382493E+02 -0.46460333760E+03  0.47017721457E+03  0.41800000000E+01 0. -1.
        -11    1    1    2    0    0 -0.11022364697E+02 -0.48970590859E+02 -0.25152463089E+03  0.25648440740E+03  0.00000000000E+00 0.  1.
         11    1    1    2    0    0 -0.13951996454E+03 -0.73992945531E+02 -0.42355712681E+03  0.45204138767E+03  0.00000000000E+00 0. -1.
</event>
<event>
 7    1  0.2688177E-009  0.1132856E+03  0.7561462E-02  0.1254604E+00
          2   -1    0    0  501    0  0.00000000000E+00  0.00000000000E+00  0.53621447607E+03  0.53621447607E+03  0.00000000000E+00 0. -1.
         -2   -1    0    0    0  501 -0.00000000000E+00 -0.00000000000E+00 -0.33500157641E+02  0.33500157641E+02  0.00000000000E+00 0.  1.
         25    2    1    2    0    0 -0.25297458227E+02  0.69620849099E+02  0.32572522687E+03  0.35669395512E+03  0.12508649080E+03 0.  0.
          5    1    3    3  502    0  0.54625168240E+01  0.80438739981E+02  0.99687274726E+02  0.12827803835E+03  0.41800000000E+01 0. -1.
         -5    1    3    3    0  502 -0.30759975051E+02 -0.10817890881E+02  0.22603795214E+03  0.22841591678E+03  0.41800000000E+01 0. -1.
        -11    1    1    2    0    0  0.24262388740E+02 -0.89667441610E+02  0.16577588994E+03  0.19002778554E+03  0.00000000000E+00 0.  1.
         11    1    1    2    0    0  0.10350694867E+01  0.20046592511E+02  0.11213201624E+02  0.22992893050E+02  0.00000000000E+00 0. -1.
</event>
<event>
 7    1  0.2688177E-009  0.1581526E+03  0.7561462E-02  0.1190798E+00
          2   -1    0    0  501    0  0.00000000000E+00  0.00000000000E+00  0.49261554192E+03  0.49261554192E+03  0.00000000000E+00 0. -1.
         -2   -1    0    0    0  501 -0.00000000000E+00 -0.00000000000E+00 -0.61259262581E+02  0.61259262581E+02  0.00000000000E+00 0.  1.
         25    2    1    2    0    0 -0.98691630393E+01  0.12401091603E+03  0.14312854964E+03  0.22717709539E+03  0.12509014060E+03 0.  0.
          5    1    3    3  502    0 -0.65722589748E+02  0.87042623831E+02  0.93310882625E+02  0.14359759881E+03  0.41800000000E+01 0. -1.
         -5    1    3    3    0  502  0.55853426709E+02  0.36968292198E+02  0.49817667012E+02  0.83579496587E+02  0.41800000000E+01 0. -1.
        -11    1    1    2    0    0 -0.24877742263E+02 -0.81112600065E+02  0.10313499616E+03  0.13354768206E+03  0.00000000000E+00 0.  1.
         11    1    1    2    0    0  0.34746905302E+02 -0.42898315964E+02  0.18509273354E+03  0.19315002705E+03  0.00000000000E+00 0. -1.
</event>
<event>
 7    1  0.2688177E-009  0.9769977E+02  0.7561462E-02  0.1285209E+00
         -1   -1    0    0    0  501 -0.00000000000E+00  0.00000000000E+00  0.40125244975E+03  0.40125244975E+03  0.00000000000E+00 0.  1.
          1   -1    0    0  501    0  0.00000000000E+00 -0.00000000000E+00 -0.43938325790E+02  0.43938325790E+02  0.00000000000E+00 0. -1.
         25    2    1    2    0    0 -0.20605127369E+02  0.72855708001E+02  0.20274628531E+03  0.24996538377E+03  0.12507642230E+03 0.  0.
          5    1    3    3  502    0  0.28049725115E+01  0.29522268109E+02  0.19806294829E+03  0.20031434315E+03  0.41800000000E+01 0. -1.
         -5    1    3    3    0  502 -0.23410099880E+02  0.43333439893E+02  0.46833370173E+01  0.49651040623E+02  0.41800000000E+01 0. -1.
        -11    1    1    2    0    0 -0.15922222104E+02 -0.77573552189E+02  0.82887325254E+02  0.11463630247E+03  0.00000000000E+00 0.  1.
         11    1    1    2    0    0  0.36527349473E+02  0.47178441880E+01  0.71680513401E+02  0.80589089303E+02  0.00000000000E+00 0. -1.
</event>
<event>
 7    1  0.2688177E-009  0.6000073E+02  0.7561462E-02  0.1397829E+00
          1   -1    0    0  501    0  0.00000000000E+00  0.00000000000E+00  0.16872283252E+03  0.16872283252E+03  0.00000000000E+00 0. -1.
         -1   -1    0    0    0  501 -0.00000000000E+00 -0.00000000000E+00 -0.69359282309E+02  0.69359282309E+02  0.00000000000E+00 0.  1.
         25    2    1    2    0    0  0.33983298217E+02 -0.11969174097E+02  0.56688774124E+02  0.14195616254E+03  0.12505922311E+03 0.  0.
          5    1    3    3  502    0  0.86295225193E+01  0.12481034602E+01 -0.39942847168E+02  0.41096591842E+02  0.41800000000E+01 0.  1.
         -5    1    3    3    0  502  0.25353775698E+02 -0.13217277557E+02  0.96631621293E+02  0.10085957070E+03  0.41800000000E+01 0.  1.
        -11    1    1    2    0    0  0.39671300656E+01 -0.26853889231E+02  0.12101723531E+00  0.27145609829E+02  0.00000000000E+00 0.  1.
         11    1    1    2    0    0 -0.37950428283E+02  0.38823063328E+02  0.42553758846E+02  0.68980342453E+02  0.00000000000E+00 0. -1.
</event>
<event>
 7    1  0.2688177E-009  0.1295103E+03  0.7561462E-02  0.1228184E+00
          1   -1    0    0  501    0  0.00000000000E+00  0.00000000000E+00  0.59875206790E+03  0.59875206790E+03  0.00000000000E+00 0. -1.
         -1   -1    0    0    0  501 -0.00000000000E+00 -0.00000000000E+00 -0.44358172945E+02  0.44358172945E+02  0.00000000000E+00 0.  1.
         25    2    1    2    0    0 -0.60198022901E+02  0.10271933690E+03  0.34843885822E+03  0.38888537738E+03  0.12508850745E+03 0.  0.
          5    1    3    3  502    0 -0.21561620596E+02  0.69850326115E+02  0.56348875540E+02  0.92393937657E+02  0.41800000000E+01 0.  1.
         -5    1    3    3    0  502 -0.38636402305E+02  0.32869010783E+02  0.29208998267E+03  0.29649143973E+03  0.41800000000E+01 0.  1.
        -11    1    1    2    0    0 -0.12761407236E+02 -0.26373823410E+02  0.10167831662E+03  0.10581546270E+03  0.00000000000E+00 0. -1.
         11    1    1    2    0    0  0.72959430136E+02 -0.76345513487E+02  0.10427672012E+03  0.14840940076E+03  0.00000000000E+00 0.  1.
</event>
<event>
 7    1  0.2688177E-009  0.1206229E+03  0.7561462E-02  0.1242073E+00
          2   -1    0    0  501    0  0.00000000000E+00  0.00000000000E+00  0.94377658711E+03  0.94377658711E+03  0.00000000000E+00 0. -1.
         -2   -1    0    0    0  501 -0.00000000000E+00 -0.00000000000E+00 -0.21242934458E+02  0.21242934458E+02  0.00000000000E+00 0.  1.
         25    2    1    2    0    0  0.76441436256E+02  0.22972441640E+01  0.66456797950E+03  0.68054861951E+03  0.12508898284E+03 0.  0.
          5    1    3    3  502    0 -0.34746514980E+02 -0.31590193529E+01  0.16883238557E+03  0.17245041758E+03  0.41800000000E+01 0.  1.
         -5    1    3    3    0  502  0.11118795124E+03  0.54562635169E+01  0.49573559393E+03  0.50809820192E+03  0.41800000000E+01 0.  1.
        -11    1    1    2    0    0 -0.15501754075E+02 -0.25215616619E+02  0.15492370428E+02  0.33408759964E+02  0.00000000000E+00 0.  1.
         11    1    1    2    0    0 -0.60939682181E+02  0.22918372455E+02  0.24247330272E+03  0.25106214210E+03  0.00000000000E+00 0. -1.
</event>
<event>
 7    1  0.2688177E-009  0.2230925E+03  0.7561462E-02  0.1131598E+00
          1   -1    0    0  501    0  0.00000000000E+00  0.00000000000E+00  0.16361193912E+04  0.16361193912E+04  0.00000000000E+00 0. -1.
         -1   -1    0    0    0  501 -0.00000000000E+00 -0.00000000000E+00 -0.34828449886E+02  0.34828449886E+02  0.00000000000E+00 0.  1.
         25    2    1    2    0    0  0.86493631400E+02 -0.18851580946E+03  0.97976018756E+03  0.10092551261E+04  0.12508607361E+03 0.  0.
          5    1    3    3  502    0  0.53536322641E+02 -0.37672792271E+02  0.13044751170E+03  0.14601165306E+03  0.41800000000E+01 0.  1.
         -5    1    3    3    0  502  0.32957308759E+02 -0.15084301719E+03  0.84931267586E+03  0.86324347308E+03  0.41800000000E+01 0.  1.
        -11    1    1    2    0    0 -0.31886486452E+02  0.16258018191E+03  0.48012443789E+03  0.50790603406E+03  0.00000000000E+00 0.  1.
         11    1    1    2    0    0 -0.54607144948E+02  0.25935627553E+02  0.14140631589E+03  0.15378668093E+03  0.00000000000E+00 0. -1.
</event>
<event>
 7    1  0.2688177E-009  0.9146973E+02  0.7561462E-02  0.1299331E+00
          1   -1    0    0  501    0  0.00000000000E+00  0.00000000000E+00  0.59771024524E+03  0.59771024524E+03  0.00000000000E+00 0. -1.
         -1   -1    0    0    0  501 -0.00000000000E+00 -0.00000000000E+00 -0.21922090562E+02  0.21922090562E+02  0.00000000000E+00 0.  1.
         25    2    1    2    0    0  0.33839954204E+02 -0.13665645620E+01  0.27393109587E+03  0.30303897046E+03  0.12508941737E+03 0.  0.
          5    1    3    3  502    0  0.22682378808E+02 -0.43334790406E+02  0.35329526946E+02  0.60481751315E+02  0.41800000000E+01 0.  1.
         -5    1    3    3    0  502  0.11157575396E+02  0.41968225844E+02  0.23860156892E+03  0.24255721915E+03  0.41800000000E+01 0.  1.
        -11    1    1    2    0    0 -0.20985912264E+02 -0.40940399874E+02  0.20533172945E+03  0.21042253675E+03  0.00000000000E+00 0. -1.
         11    1    1    2    0    0 -0.12854041940E+02  0.42306964436E+02  0.96525329360E+02  0.10617082858E+03  0.00000000000E+00 0.  1.
</event>
<event>
 7    1  0.2688177E-009  0.1285438E+03  0.7561462E-02  0.1229633E+00
         -2   -1    0    0    0  501 -0.00000000000E+00  0.00000000000E+00  0.37995078681E+02  0.37995078681E+02  0.00000000000E+00 0. -1.
          2   -1    0    0  501    0  0.00000000000E+00 -0.00000000000E+00 -0.66620328583E+03  0.66620328583E+03  0.00000000000E+00 0.  1.
         25    2    1    2    0    0 -0.11374128750E+03  0.27095029032E+01 -0.38256500808E+03  0.41826734007E+03  0.12508861051E+03 0.  0.
          5    1    3    3  502    0 -0.29392305463E+02 -0.52601806401E+01 -0.41185551763E+01  0.30430445569E+02  0.41800000000E+01 0.  1.
         -5    1    3    3    0  502 -0.84348982032E+02  0.79696835433E+01 -0.37844645290E+03  0.38783689450E+03  0.41800000000E+01 0.  1.
        -11    1    1    2    0    0  0.39657640070E+02  0.40222279717E+02 -0.13252459539E+03  0.14406015613E+03  0.00000000000E+00 0.  1.
         11    1    1    2    0    0  0.74083647426E+02 -0.42931782620E+02 -0.11311860369E+03  0.14187086831E+03  0.00000000000E+00 0. -1.
</event>
<event>
 7    1  0.2688177E-009  0.9437431E+02  0.7561462E-02  0.1292592E+00
          4   -1    0    0  501    0  0.00000000000E+00  0.00000000000E+00  0.52793093017E+02  0.52793093017E+02  0.00000000000E+00 0. -1.
         -4   -1    0    0    0  501 -0.00000000000E+00 -0.00000000000E+00 -0.19100701686E+03  0.19100701686E+03  0.00000000000E+00 0.  1.
         25    2    1    2    0    0  0.36126062288E+02 -0.16746480822E+02 -0.81347954436E+02  0.15443355062E+03  0.12508674938E+03 0.  0.
          5    1    3    3  502    0  0.54532910384E+02 -0.55185693058E+02 -0.80099676302E+02  0.11159179888E+03  0.41800000000E+01 0.  1.
         -5    1    3    3    0  502 -0.18406848096E+02  0.38439212236E+02 -0.12482781344E+01  0.42841751744E+02  0.41800000000E+01 0.  1.
        -11    1    1    2    0    0 -0.25000773384E+00  0.29986244337E+02 -0.18709023559E+02  0.35344941871E+02  0.00000000000E+00 0.  1.
         11    1    1    2    0    0 -0.35876054555E+02 -0.13239763516E+02 -0.38156945846E+02  0.54021617383E+02  0.00000000000E+00 0. -1.
</event>
<event>
 7    1  0.2688177E-009  0.1610670E+03  0.7561462E-02  0.1187497E+00
          1   -1    0    0  501    0  0.00000000000E+00  0.00000000000E+00  0.93728791123E+03  0.93728791123E+03  0.00000000000E+00 0. -1.
         -1   -1    0    0    0  501 -0.00000000000E+00 -0.00000000000E+00 -0.28962332380E+02  0.28962332380E+02  0.00000000000E+00 0.  1.
         25    2    1    2    0    0  0.10361256644E+02 -0.12980305480E+03  0.53670628320E+03  0.56626722934E+03  0.12509497160E+03 0.  0.
          5    1    3    3  502    0  0.67460894599E+02 -0.73124482712E+02  0.31593524996E+03  0.33125627064E+03  0.41800000000E+01 0. -1.
         -5    1    3    3    0  502 -0.57099637955E+02 -0.56678572089E+02  0.22077103324E+03  0.23501095869E+03  0.41800000000E+01 0. -1.
        -11    1    1    2    0    0  0.23600934666E+02  0.53378327535E+02  0.10005556748E+03  0.11583335682E+03  0.00000000000E+00 0.  1.
         11    1    1    2    0    0 -0.33962191310E+02  0.76424727266E+02  0.27156372817E+03  0.28414965746E+03  0.00000000000E+00 0. -1.
</event>
<event>
 7    1  0.2688177E-009  0.9597693E+02  0.7561462E-02  0.1288991E+00
         -2   -1    0    0    0  501 -0.00000000000E+00  0.00000000000E+00  0.20128174218E+02  0.20128174218E+02  0.00000000000E+00 0.  1.
          2   -1    0    0  501    0  0.00000000000E+00 -0.00000000000E+00 -0.87201752200E+03  0.87201752200E+03  0.00000000000E+00 0. -1.
         25    2    1    2    0    0  0.11228426185E+02 -0.69174293426E+02 -0.36878073957E+03  0.39566875683E+03  0.12507346173E+03 0.  0.
          5    1    3    3  502    0 -0.70024197922E+01 -0.55133185837E+02 -0.36807473372E+03  0.37227031048E+03  0.41800000000E+01 0.  1.
         -5    1    3    3    0  502  0.18230845977E+02 -0.14041107589E+02 -0.70600585109E+00  0.23398446351E+02  0.41800000000E+01 0.  1.
        -11    1    1    2    0    0  0.26630314005E+02  0.70073990605E+02 -0.27959841746E+03  0.28947333699E+03  0.00000000000E+00 0.  1.
         11    1    1    2    0    0 -0.37858740190E+02 -0.89969717938E+00 -0.20351019076E+03  0.20700360240E+03  0.00000000000E+00 0. -1.
</event>
<event>
 7    1  0.2688177E-009  0.8033353E+02  0.7561462E-02  0.1328108E+00
          4   -1    0    0  501    0  0.00000000000E+00  0.00000000000E+00  0.26803902511E+02  0.26803902511E+02  0.00000000000E+00 0. -1.
         -4   -1    0    0    0  501 -0.00000000000E+00 -0.00000000000E+00 -0.46743384824E+03  0.46743384824E+03  0.00000000000E+00 0.  1.
         25    2    1    2    0    0  0.25304075716E+02  0.11222233338E+02 -0.21735460526E+03  0.25230385167E+03  0.12509186374E+03 0.  0.
          5    1    3    3  502    0  0.57615007298E+02  0.27034912280E+02 -0.20394638315E+03  0.21368662837E+03  0.41800000000E+01 0. -1.
         -5    1    3    3    0  502 -0.32310931583E+02 -0.15812678942E+02 -0.13408222114E+02  0.38617223299E+02  0.41800000000E+01 0. -1.
        -11    1    1    2    0    0 -0.17028264588E+02 -0.33132127163E+02 -0.21321344032E+03  0.21644322761E+03  0.00000000000E+00 0.  1.
         11    1    1    2    0    0 -0.82758111279E+01  0.21909893825E+02 -0.10061900150E+02  0.25490671468E+02  0.00000000000E+00 0. -1.
</event>
<event>
 7    1  0.2688177E-009  0.1380886E+03  0.7561462E-02  0.1215924E+00
         -2   -1    0    0    0  501 -0.00000000000E+00  0.00000000000E+00  0.58254094868E+02  0.58254094868E+02  0.00000000000E+00 0.  1.
          2   -1    0    0  501    0  0.00000000000E+00 -0.00000000000E+00 -0.45569128462E+03  0.45569128462E+03  0.00000000000E+00 0. -1.
         25    2    1    2    0    0 -0.36760189065E+02  0.88688311162E+02 -0.95851816150E+02  0.18453229853E+03  0.12509064916E+03 0.  0.
          5    1    3    3  502    0 -0.75169053811E+02  0.54839232322E+02 -0.95167372696E+02  0.13316166595E+03  0.41800000000E+01 0.  1.
         -5    1    3    3    0  502  0.38408864746E+02  0.33849078840E+02 -0.68444345427E+00  0.51370632585E+02  0.41800000000E+01 0.  1.
        -11    1    1    2    0    0  0.64154491634E+02 -0.80782381673E+02 -0.21989083579E+03  0.24288592312E+03  0.00000000000E+00 0.  1.
         11    1    1    2    0    0 -0.27394302569E+02 -0.79059294895E+01 -0.81694537814E+02  0.86527157835E+02  0.00000000000E+00 0. -1.
</event>
<event>
 7    1  0.2688177E-009  0.2061542E+03  0.7561462E-02  0.1144648E+00
          1   -1    0    0  501    0  0.00000000000E+00  0.00000000000E+00  0.16429489764E+04  0.16429489764E+04  0.00000000000E+00 0. -1.
         -1   -1    0    0    0  501 -0.00000000000E+00 -0.00000000000E+00 -0.53741035189E+02  0.53741035189E+02  0.00000000000E+00 0.  1.
         25    2    1    2    0    0 -0.18473003773E+03  0.23312291572E+02  0.13922991750E+04  0.14102529682E+04  0.12509113430E+03 0.  0.
          5    1    3    3  502    0 -0.98273891692E+02 -0.46813471763E+02  0.82086202344E+03  0.82805868925E+03  0.41800000000E+01 0. -1.
         -5    1    3    3    0  502 -0.86456146040E+02  0.70125763335E+02  0.57143715159E+03  0.58219427899E+03  0.41800000000E+01 0. -1.
        -11    1    1    2    0    0  0.16636258755E+03 -0.35266897050E+02  0.20188339292E+03  0.26396433263E+03  0.00000000000E+00 0. -1.
         11    1    1    2    0    0  0.18367450182E+02  0.11954605478E+02 -0.49746266889E+01  0.22472710762E+02  0.00000000000E+00 0.  1.
</event>
<event>
 7    1  0.2688177E-009  0.2305111E+03  0.7561462E-02  0.1126281E+00
          4   -1    0    0  501    0  0.00000000000E+00  0.00000000000E+00  0.14789607136E+03  0.14789607136E+03  0.00000000000E+00 0. -1.
         -4   -1    0    0    0  501 -0.00000000000E+00 -0.00000000000E+00 -0.45698834983E+03  0.45698834983E+03  0.00000000000E+00 0.  1.
         25    2    1    2    0    0  0.13195339604E+02  0.21299588270E+03 -0.41027286779E+02  0.25074093297E+03  0.12508562736E+03 0.  0.
          5    1    3    3  502    0 -0.46028898837E+02  0.13652219168E+03  0.35023165789E+01  0.14417595836E+03  0.41800000000E+01 0. -1.
         -5    1    3    3    0  502  0.59224238441E+02  0.76473691024E+02 -0.44529603358E+02  0.10656497461E+03  0.41800000000E+01 0. -1.
        -11    1    1    2    0    0 -0.28023310671E+02 -0.19380992039E+03 -0.19176382073E+03  0.27408202080E+03  0.00000000000E+00 0. -1.
         11    1    1    2    0    0  0.14827971068E+02 -0.19185962315E+02 -0.76301170956E+02  0.80061467418E+02  0.00000000000E+00 0.  1.
</event>
<event>
 7    1  0.2688177E-009  0.1782071E+03  0.7561462E-02  0.1169550E+00
          2   -1    0    0  501    0  0.00000000000E+00  0.00000000000E+00  0.33624026339E+03  0.33624026339E+03  0.00000000000E+00 0.  1.
         -2   -1    0    0    0  501 -0.00000000000E+00 -0.00000000000E+00 -0.10785840985E+03  0.10785840985E+03  0.00000000000E+00 0. -1.
         25    2    1    2    0    0  0.93537738312E+02  0.12558436275E+03  0.12212500906E+03  0.23469456173E+03  0.12508508630E+03 0.  0.
          5    1    3    3  502    0 -0.18859827689E+02  0.41040393882E+02 -0.42624410499E+01  0.45559278244E+02  0.41800000000E+01 0. -1.
         -5    1    3    3    0  502  0.11239756600E+03  0.84543968863E+02  0.12638745011E+03  0.18913528349E+03  0.41800000000E+01 0. -1.
        -11    1    1    2    0    0 -0.69428624763E+02 -0.12850656752E+03  0.61497901706E+02  0.15848111480E+03  0.00000000000E+00 0. -1.
         11    1    1    2    0    0 -0.24109113549E+02  0.29222047764E+01  0.44758942762E+02  0.50922996711E+02  0.00000000000E+00 0.  1.
</event>
<event>
 7    1  0.2688177E-009  0.8875923E+02  0.7561462E-02  0.1305885E+00
          2   -1    0    0  501    0  0.00000000000E+00  0.00000000000E+00  0.12523915198E+03  0.12523915198E+03  0.00000000000E+00 0. -1.
         -2   -1    0    0    0  501 -0.00000000000E+00 -0.00000000000E+00 -0.12296351163E+03  0.12296351163E+03  0.00000000000E+00 0.  1.
         25    2    1    2    0    0 -0.42993093154E+02 -0.41061860402E+02 -0.35130608879E+00  0.13850020132E+03  0.12509076669E+03 0.  0.
          5    1    3    3  502    0  0.57497507410E+01 -0.49012358327E+01 -0.55633120731E+02  0.56299185327E+02  0.41800000000E+01 0.  1.
         -5    1    3    3    0  502 -0.48742843896E+02 -0.36160624570E+02  0.55281814642E+02  0.82201015994E+02  0.41800000000E+01 0.  1.
        -11    1    1    2    0    0 -0.28442327534E+02  0.99528762420E+01 -0.77108337747E+01  0.31104383912E+02  0.00000000000E+00 0.  1.
         11    1    1    2    0    0  0.71435420689E+02  0.31108984160E+02  0.10337780211E+02  0.78598078374E+02  0.00000000000E+00 0. -1.
</event>
<event>
 7    1  0.2688177E-009  0.1447447E+03  0.7561462E-02  0.1207083E+00
          2   -1    0    0  501    0  0.00000000000E+00  0.00000000000E+00  0.40642327273E+03  0.40642327273E+03  0.00000000000E+00 0. -1.
         -2   -1    0    0    0  501 -0.00000000000E+00 -0.00000000000E+00 -0.72403957816E+02  0.72403957816E+02  0.00000000000E+00 0.  1.
         25    2    1    2    0    0  0.11370781208E+03  0.16747789215E+02  0.27065678621E+03  0.31955066519E+03  0.12509027433E+03 0.  0.
          5    1    3    3  502    0  0.91070511266E+02 -0.31456062640E+02  0.92773596088E+02  0.13381978340E+03  0.41800000000E+01 0. -1.
         -5    1    3    3    0  502  0.22637300815E+02  0.48203851855E+02  0.17788319012E+03  0.18573088178E+03  0.41800000000E+01 0. -1.
        -11    1    1    2    0    0 -0.60621959460E+02  0.31126266158E+02  0.54471832025E+02  0.87241314169E+02  0.00000000000E+00 0. -1.
         11    1    1    2    0    0 -0.53085852621E+02 -0.47874055373E+02  0.88906966832E+01  0.72035251189E+02  0.00000000000E+00 0.  1.
</event>
<event>
 7    1  0.2688177E-009  0.1219127E+03  0.7561462E-02  0.1239975E+00
         -1   -1    0    0    0  501 -0.00000000000E+00  0.00000000000E+00  0.32504960405E+02  0.32504960405E+02  0.00000000000E+00 0.  1.
          1   -1    0    0  501    0  0.00000000000E+00 -0.00000000000E+00 -0.62264696729E+03  0.62264696729E+03  0.00000000000E+00 0. -1.
         25    2    1    2    0    0  0.78381432157E+02  0.16804683173E+02 -0.43204334461E+03  0.45687521919E+03  0.12508983975E+03 0.  0.
          5    1    3    3  502    0  0.88837239480E+02 -0.22960765557E+02 -0.18665457914E+03  0.20803042130E+03  0.41800000000E+01 0.  1.
         -5    1    3    3    0  502 -0.10455807323E+02  0.39765448730E+02 -0.24538876546E+03  0.24884479789E+03  0.41800000000E+01 0.  1.
        -11    1    1    2    0    0 -0.61928281206E+02  0.24179598669E+02 -0.55593685572E+02  0.86662696014E+02  0.00000000000E+00 0. -1.
         11    1    1    2    0    0 -0.16453150952E+02 -0.40984281842E+02 -0.10250497671E+03  0.11161401249E+03  0.00000000000E+00 0.  1.
</event>
<event>
 7    1  0.2688177E-009  0.9790634E+02  0.7561462E-02  0.1284761E+00
         -2   -1    0    0    0  501 -0.00000000000E+00  0.00000000000E+00  0.27243710523E+02  0.27243710523E+02  0.00000000000E+00 0. -1.
          2   -1    0    0  501    0  0.00000000000E+00 -0.00000000000E+00 -0.60710422699E+03  0.60710422699E+03  0.00000000000E+00 0.  1.
         25    2    1    2    0    0  0.63510684457E+02 -0.23871035649E+02 -0.35226707557E+03  0.37992610682E+03  0.12509324816E+03 0.  0.
          5    1    3    3  502    0  0.67277957046E+02 -0.28504782142E+01 -0.71461076328E+02  0.98278209998E+02  0.41800000000E+01 0.  1.
         -5    1    3    3    0  502 -0.37672725893E+01 -0.21020557435E+02 -0.28080599924E+03  0.28164789683E+03  0.41800000000E+01 0.  1.
        -11    1    1    2    0    0 -0.70629902406E+01  0.45566477384E+02 -0.56334242329E+02  0.72799289496E+02  0.00000000000E+00 0. -1.
         11    1    1    2    0    0 -0.56447694216E+02 -0.21695441735E+02 -0.17125919857E+03  0.18162254119E+03  0.00000000000E+00 0.  1.
</event>
<event>
 7    1  0.2688177E-009  0.8110828E+02  0.7561462E-02  0.1325935E+00
          4   -1    0    0  501    0  0.00000000000E+00  0.00000000000E+00  0.20070181495E+02  0.20070181495E+02  0.00000000000E+00 0. -1.
         -4   -1    0    0    0  501 -0.00000000000E+00 -0.00000000000E+00 -0.85349586945E+03  0.85349586945E+03  0.00000000000E+00 0.  1.
         25    2    1    2    0    0  0.29158496398E+02  0.39622216171E+02 -0.65919454971E+03  0.67275766212E+03  0.12508109227E+03 0.  0.
          5    1    3    3  502    0  0.31480033903E+02  0.10156270731E+02 -0.63040311628E+03  0.63128417039E+03  0.41800000000E+01 0.  1.
         -5    1    3    3    0  502 -0.23215375053E+01  0.29465945440E+02 -0.28791433430E+02  0.41473491727E+02  0.41800000000E+01 0.  1.
        -11    1    1    2    0    0  0.27267995873E+02 -0.32068729430E+02 -0.86922577729E+02  0.96578887575E+02  0.00000000000E+00 0.  1.
         11    1    1    2    0    0 -0.56426492271E+02 -0.75534867408E+01 -0.87308560517E+02  0.10422950125E+03  0.00000000000E+00 0. -1.
</event>
<event>
 7    1  0.2688177E-009  0.1348748E+03  0.7561462E-02  0.1220397E+00
         -2   -1    0    0    0  501 -0.00000000000E+00  0.00000000000E+00  0.21556424229E+03  0.21556424229E+03  0.00000000000E+00 0.  1.
          2   -1    0    0  501    0  0.00000000000E+00 -0.00000000000E+00 -0.11928696222E+03  0.11928696222E+03  0.00000000000E+00 0. -1.
         25    2    1    2    0    0 -0.67313050598E+02  0.95753727559E+02  0.45387556437E+02  0.17722135136E+03  0.12509018338E+03 0.  0.
          5    1    3    3  502    0 -0.43386919516E+02  0.11023511026E+03 -0.58655916299E+01  0.11868480056E+03  0.41800000000E+01 0.  1.
         -5    1    3    3    0  502 -0.23926131082E+02 -0.14481382696E+02  0.51253148067E+02  0.58536550805E+02  0.41800000000E+01 0.  1.
        -11    1    1    2    0    0  0.16095228501E+02 -0.55506001782E+02 -0.20189166020E+02  0.61217440643E+02  0.00000000000E+00 0. -1.
         11    1    1    2    0    0  0.51217822097E+02 -0.40247725777E+02  0.71078889657E+02  0.96412412508E+02  0.00000000000E+00 0.  1.
</event>
<event>
 7    1  0.2688177E-009  0.1963302E+03  0.7561462E-02  0.1152873E+00
          2   -1    0    0  501    0  0.00000000000E+00  0.00000000000E+00  0.14587531011E+03  0.14587531011E+03  0.00000000000E+00 0.  1.
         -2   -1    0    0    0  501 -0.00000000000E+00 -0.00000000000E+00 -0.33590675823E+03  0.33590675823E+03  0.00000000000E+00 0. -1.
         25    2    1    2    0    0 -0.95590928888E+02 -0.14923039564E+03 -0.16622825135E+02  0.21755584134E+03  0.12508752582E+03 0.  0.
          5    1    3    3  502    0 -0.42496159082E+02 -0.88853241645E+01  0.37968034602E+02  0.57826607836E+02  0.41800000000E+01 0.  1.
         -5    1    3    3    0  502 -0.53094769806E+02 -0.14034507148E+03 -0.54590859737E+02  0.15972923351E+03  0.41800000000E+01 0.  1.
        -11    1    1    2    0    0 -0.17146767169E+02  0.31914347070E+02 -0.25131401197E+02  0.44092227199E+02  0.00000000000E+00 0.  1.
         11    1    1    2    0    0  0.11273769606E+03  0.11731604857E+03 -0.14827722179E+03  0.22013399980E+03  0.00000000000E+00 0. -1.
</event>
<event>
 7    1  0.2688177E-009  0.1404253E+03  0.7561462E-02  0.1212758E+00
          1   -1    0    0  501    0  0.00000000000E+00  0.00000000000E+00  0.39130714724E+03  0.39130714724E+03  0.00000000000E+00 0. -1.
         -1   -1    0    0    0  501 -0.00000000000E+00 -0.00000000000E+00 -0.87308764572E+02  0.87308764572E+02  0.00000000000E+00 0.  1.
         25    2    1    2    0    0  0.79140473419E+02  0.78278567922E+02  0.28963269100E+03  0.33455273933E+03  0.12509073096E+03 0.  0.
          5    1    3    3  502    0  0.22963114895E+02 -0.15878932100E+02  0.39258085128E+01  0.28501394751E+02  0.41800000000E+01 0.  1.
         -5    1    3    3    0  502  0.56177358525E+02  0.94157500021E+02  0.28570688248E+03  0.30605134458E+03  0.41800000000E+01 0.  1.
        -11    1    1    2    0    0  0.55666892962E+01 -0.54683936222E+02  0.60549917170E-02  0.54966543889E+02  0.00000000000E+00 0.  1.
         11    1    1    2    0    0 -0.84707162716E+02 -0.23594631700E+02  0.14359636676E+02  0.89096628589E+02  0.00000000000E+00 0. -1.
</event>
<event>
 7    1  0.2688177E-009  0.1431032E+03  0.7561462E-02  0.1209213E+00
          2   -1    0    0  501    0  0.00000000000E+00  0.00000000000E+00  0.13437984479E+03  0.13437984479E+03  0.00000000000E+00 0.  1.
         -2   -1    0    0    0  501 -0.00000000000E+00 -0.00000000000E+00 -0.20457787119E+03  0.20457787119E+03  0.00000000000E+00 0. -1.
         25    2    1    2    0    0 -0.49576205057E+01 -0.11186768955E+03  0.18788402135E+02  0.16893136728E+03  0.12508335153E+03 0.  0.
          5    1    3    3  502    0 -0.31679227953E+02 -0.12908586752E+03  0.27307336912E+02  0.13575675941E+03  0.41800000000E+01 0.  1.
         -5    1    3    3    0  502  0.26721607447E+02  0.17218177970E+02 -0.85189347778E+01  0.33174607864E+02  0.41800000000E+01 0.  1.
        -11    1    1    2    0    0  0.23262455944E+02  0.88346248134E+02 -0.18105987870E+02  0.93134463077E+02  0.00000000000E+00 0.  1.
         11    1    1    2    0    0 -0.18304835438E+02  0.23521441414E+02 -0.70880440663E+02  0.76891885626E+02  0.00000000000E+00 0. -1.
</event>
<event>
 7    1  0.2688177E-009  0.1032370E+03  0.7561462E-02  0.1273632E+00
         -1   -1    0    0    0  501 -0.00000000000E+00  0.00000000000E+00  0.25666030092E+02  0.25666030092E+02  0.00000000000E+00 0.  1.
          1   -1    0    0  501    0  0.00000000000E+00 -0.00000000000E+00 -0.48641775531E+03  0.48641775531E+03  0.00000000000E+00 0. -1.
         25    2    1    2    0    0 -0.25568830311E+02 -0.63934073152E+01 -0.24913237615E+03  0.28001838592E+03  0.12509482351E+03 0.  0.
          5    1    3    3  502    0  0.56708506577E+01 -0.58145580742E+02 -0.72035711452E+02  0.92842249172E+02  0.41800000000E+01 0. -1.
         -5    1    3    3    0  502 -0.31239680969E+02  0.51752173427E+02 -0.17709666470E+03  0.18717613675E+03  0.41800000000E+01 0. -1.
        -11    1    1    2    0    0 -0.18043748548E+02  0.31998601194E+02 -0.45839630844E+02  0.58743162121E+02  0.00000000000E+00 0.  1.
         11    1    1    2    0    0  0.43612578859E+02 -0.25605193879E+02 -0.16577971823E+03  0.17332223736E+03  0.00000000000E+00 0. -1.
</event>
<event>
 7    1  0.2688177E-009  0.1315010E+03  0.7561462E-02  0.1225245E+00
         -1   -1    0    0    0  501 -0.00000000000E+00  0.00000000000E+00  0.44504552518E+02  0.44504552518E+02  0.00000000000E+00 0.  1.
          1   -1    0    0  501    0  0.00000000000E+00 -0.00000000000E+00 -0.61498264095E+03  0.61498264095E+03  0.00000000000E+00 0. -1.
         25    2    1    2    0    0  0.12153170587E+03 -0.49324372461E+01 -0.36102930101E+03  0.40096007708E+03  0.12503016738E+03 0.  0.
          5    1    3    3  502    0  0.82142982078E+02 -0.34212162590E+01 -0.35037332314E+03  0.35991403445E+03  0.41800000000E+01 0.  1.
         -5    1    3    3    0  502  0.39388723795E+02 -0.15112209872E+01 -0.10655977866E+02  0.41046042627E+02  0.41800000000E+01 0.  1.
        -11    1    1    2    0    0 -0.10896645584E+03  0.29984180053E+02 -0.12022625104E+03  0.16500633621E+03  0.00000000000E+00 0.  1.
         11    1    1    2    0    0 -0.12565250036E+02 -0.25051742807E+02 -0.89222536384E+02  0.93520780177E+02  0.00000000000E+00 0. -1.
</event>
<event>
 7    1  0.2688177E-009  0.1681985E+03  0.7561462E-02  0.1179740E+00
         -1   -1    0    0    0  501 -0.00000000000E+00  0.00000000000E+00  0.22886567463E+02  0.22886567463E+02  0.00000000000E+00 0.  1.
          1   -1    0    0  501    0  0.00000000000E+00 -0.00000000000E+00 -0.18649286716E+04  0.18649286716E+04  0.00000000000E+00 0. -1.
         25    2    1    2    0    0 -0.99516836671E+02  0.92830969563E+02 -0.14626420040E+04  0.14742740313E+04  0.12506437519E+03 0.  0.
          5    1    3    3  502    0  0.20560521466E+02  0.32028495302E+02 -0.15263034435E+03  0.15735963260E+03  0.41800000000E+01 0. -1.
         -5    1    3    3    0  502 -0.12007735814E+03  0.60802474261E+02 -0.13100116596E+04  0.13169143987E+04  0.41800000000E+01 0. -1.
        -11    1    1    2    0    0  0.60469545414E+02  0.24071384834E+01 -0.16403722521E+03  0.17484442083E+03  0.00000000000E+00 0. -1.
         11    1    1    2    0    0  0.39047291257E+02 -0.95238108046E+02 -0.21536287495E+03  0.23869678692E+03  0.00000000000E+00 0.  1.
</event>
<event>
 7    1  0.2688177E-009  0.1488109E+03  0.7561462E-02  0.1201942E+00
         -1   -1    0    0    0  501 -0.00000000000E+00  0.00000000000E+00  0.30547365146E+02  0.30547365146E+02  0.00000000000E+00 0.  1.
          1   -1    0    0  501    0  0.00000000000E+00 -0.00000000000E+00 -0.13813231344E+04  0.13813231344E+04  0.00000000000E+00 0. -1.
         25    2    1    2    0    0  0.80686281663E+02 -0.10203888845E+03 -0.10990191904E+04  0.11137381461E+04  0.12508903355E+03 0.  0.
          5    1    3    3  502    0 -0.64816112951E+01  0.15601025320E+02 -0.35564966794E+03  0.35607521956E+03  0.41800000000E+01 0.  1.
         -5    1    3    3    0  502  0.87167892958E+02 -0.11763991377E+03 -0.74336952246E+03  0.75766292650E+03  0.41800000000E+01 0.  1.
        -11    1    1    2    0    0 -0.52864499975E+02  0.87808548113E+02 -0.24580926019E+03  0.26632158920E+03  0.00000000000E+00 0. -1.
         11    1    1    2    0    0 -0.27821781688E+02  0.14230340340E+02 -0.59473186133E+01  0.31810764235E+02  0.00000000000E+00 0.  1.
</event>
<event>
 7    1  0.2688177E-009  0.1207344E+03  0.7561462E-02  0.1241890E+00
         -2   -1    0    0    0  501 -0.00000000000E+00  0.00000000000E+00  0.46725377259E+02  0.46725377259E+02  0.00000000000E+00 0.  1.
          2   -1    0    0  501    0  0.00000000000E+00 -0.00000000000E+00 -0.52117017246E+03  0.52117017246E+03  0.00000000000E+00 0. -1.
         25    2    1    2    0    0 -0.97253169129E+02 -0.37579680803E+02 -0.31023940067E+03  0.35038985260E+03  0.12511655269E+03 0.  0.
          5    1    3    3  502    0 -0.46186900813E+02 -0.18037788112E+02 -0.17791497401E+02  0.52845069651E+02  0.41800000000E+01 0. -1.
         -5    1    3    3    0  502 -0.51066268317E+02 -0.19541892691E+02 -0.29244790327E+03  0.29754478294E+03  0.41800000000E+01 0. -1.
        -11    1    1    2    0    0  0.21134983615E+02 -0.28903996503E+02 -0.18841988617E+02  0.40461698942E+02  0.00000000000E+00 0.  1.
         11    1    1    2    0    0  0.76118185514E+02  0.66483677306E+02 -0.14536340591E+03  0.17704399818E+03  0.00000000000E+00 0. -1.
</event>
<event>
 7    1  0.2688177E-009  0.1278912E+03  0.7561462E-02  0.1230619E+00
          1   -1    0    0  501    0  0.00000000000E+00  0.00000000000E+00  0.82899893621E+02  0.82899893621E+02  0.00000000000E+00 0. -1.
         -1   -1    0    0    0  501 -0.00000000000E+00 -0.00000000000E+00 -0.35005723320E+03  0.35005723320E+03  0.00000000000E+00 0.  1.
         25    2    1    2    0    0  0.88698261347E+01  0.98755921792E+02 -0.33890907487E+02  0.16317745576E+03  0.12508749958E+03 0.  0.
          5    1    3    3  502    0 -0.42872095461E+02  0.87424893258E+02  0.45975234692E+01  0.97569145494E+02  0.41800000000E+01 0. -1.
         -5    1    3    3    0  502  0.51741921596E+02  0.11331028534E+02 -0.38488430956E+02  0.65608310263E+02  0.41800000000E+01 0. -1.
        -11    1    1    2    0    0  0.87723317102E+01 -0.75451123095E+02 -0.22768591359E+03  0.24002229278E+03  0.00000000000E+00 0. -1.
         11    1    1    2    0    0 -0.17642157845E+02 -0.23304798696E+02 -0.55805184935E+01  0.29757378284E+02  0.00000000000E+00 0.  1.
</event>
<event>
 7    1  0.2688177E-009  0.1056721E+03  0.7561462E-02  0.1268801E+00
         -2   -1    0    0    0  501 -0.00000000000E+00  0.00000000000E+00  0.57592361367E+03  0.57592361367E+03  0.00000000000E+00 0.  1.
          2   -1    0    0  501    0  0.00000000000E+00 -0.00000000000E+00 -0.23548182740E+02  0.23548182740E+02  0.00000000000E+00 0. -1.
         25    2    1    2    0    0  0.22646293581E+02 -0.74099773104E+01  0.20842196743E+03  0.24424448595E+03  0.12509152664E+03 0.  0.
          5    1    3    3  502    0  0.19916985004E+02  0.58112173286E+02  0.97203617303E+02  0.11506401085E+03  0.41800000000E+01 0.  1.
         -5    1    3    3    0  502  0.27293085768E+01 -0.65522150597E+02  0.11121835012E+03  0.12918047511E+03  0.41800000000E+01 0.  1.
        -11    1    1    2    0    0 -0.37372516607E+02  0.36005365770E+02  0.15242908502E+03  0.16102085989E+03  0.00000000000E+00 0. -1.
         11    1    1    2    0    0  0.14726223025E+02 -0.28595388459E+02  0.19152437849E+03  0.19420645057E+03  0.00000000000E+00 0.  1.
</event>
<event>
 7    1  0.2688177E-009  0.1096138E+03  0.7561462E-02  0.1261287E+00
         -1   -1    0    0    0  501 -0.00000000000E+00  0.00000000000E+00  0.43774628562E+03  0.43774628562E+03  0.00000000000E+00 0.  1.
          1   -1    0    0  501    0  0.00000000000E+00 -0.00000000000E+00 -0.37461058587E+02  0.37461058587E+02  0.00000000000E+00 0. -1.
         25    2    1    2    0    0 -0.35565667823E+02 -0.54654710397E+02  0.19814350353E+03  0.24323373695E+03  0.12509895564E+03 0.  0.
          5    1    3    3  502    0  0.32607333531E+02 -0.25991670834E+02  0.14791678805E+03  0.15373891420E+03  0.41800000000E+01 0.  1.
         -5    1    3    3    0  502 -0.68173001355E+02 -0.28663039563E+02  0.50226715487E+02  0.89494822752E+02  0.41800000000E+01 0.  1.
        -11    1    1    2    0    0  0.44572720858E+01  0.68892229943E+02  0.82695104340E+02  0.10772412405E+03  0.00000000000E+00 0.  1.
         11    1    1    2    0    0  0.31108395738E+02 -0.14237519546E+02  0.11944661915E+03  0.12424948320E+03  0.00000000000E+00 0. -1.
</event>
<event>
 7    1  0.2688177E-009  0.1356288E+03  0.7561462E-02  0.1219335E+00
         -1   -1    0    0    0  501 -0.00000000000E+00  0.00000000000E+00  0.84182701581E+02  0.84182701581E+02  0.00000000000E+00 0.  1.
          1   -1    0    0  501    0  0.00000000000E+00 -0.00000000000E+00 -0.38713108787E+03  0.38713108787E+03  0.00000000000E+00 0. -1.
         25    2    1    2    0    0 -0.28853016479E+01 -0.13189191807E+03 -0.87893155320E+02  0.20193399280E+03  0.12509327592E+03 0.  0.
          5    1    3    3  502    0  0.12216142811E+02 -0.13851224116E+02  0.29283628146E+02  0.34872536933E+02  0.41800000000E+01 0. -1.
         -5    1    3    3    0  502 -0.15101444459E+02 -0.11804069395E+03 -0.11717678347E+03  0.16706145587E+03  0.41800000000E+01 0. -1.
        -11    1    1    2    0    0  0.91366142413E+01  0.11251569862E+03 -0.22100700294E+03  0.24816799855E+03  0.00000000000E+00 0. -1.
         11    1    1    2    0    0 -0.62513125934E+01  0.19376219448E+02  0.59517719701E+01  0.21211798104E+02  0.00000000000E+00 0.  1.
</event>
<event>
 7    1  0.2688177E-009  0.1374693E+03  0.7561462E-02  0.1216775E+00
          1   -1    0    0  501    0  0.00000000000E+00  0.00000000000E+00  0.38796432809E+02  0.38796432809E+02  0.00000000000E+00 0. -1.
         -1   -1    0    0    0  501 -0.00000000000E+00 -0.00000000000E+00 -0.54698945608E+03  0.54698945608E+03  0.00000000000E+00 0.  1.
         25    2    1    2    0    0 -0.77682971566E+02 -0.58727298274E+02 -0.29429435001E+03  0.33427713861E+03  0.12509396993E+03 0.  0.
          5    1    3    3  502    0  0.14887384171E+02  0.17389442426E+02 -0.12297917964E+03  0.12516140755E+03  0.41800000000E+01 0. -1.
         -5    1    3    3    0  502 -0.92570355737E+02 -0.76116740700E+02 -0.17131517037E+03  0.20911573106E+03  0.41800000000E+01 0. -1.
        -11    1    1    2    0    0  0.97805551812E+02  0.48102847048E+02 -0.16766057184E+03  0.19997469142E+03  0.00000000000E+00 0.  1.
         11    1    1    2    0    0 -0.20122580246E+02  0.10624451226E+02 -0.46238101430E+02  0.51534058869E+02  0.00000000000E+00 0. -1.
</event>
<event>
 7    1  0.2688177E-009  0.1090163E+03  0.7561462E-02  0.1262402E+00
          1   -1    0    0  501    0  0.00000000000E+00  0.00000000000E+00  0.34650088039E+02  0.34650088039E+02  0.00000000000E+00 0. -1.
         -1   -1    0    0    0  501 -0.00000000000E+00 -0.00000000000E+00 -0.35929402131E+03  0.35929402131E+03  0.00000000000E+00 0.  1.
         25    2    1    2    0    0  0.19736121000E+02  0.16032751614E+02 -0.17435002129E+03  0.21608299653E+03  0.12508943948E+03 0.  0.
          5    1    3    3  502    0  0.35606364808E+02 -0.46371202700E+02 -0.11170872910E+03  0.12615234525E+03  0.41800000000E+01 0.  1.
         -5    1    3    3    0  502 -0.15870243808E+02  0.62403954314E+02 -0.62641292196E+02  0.89930651285E+02  0.41800000000E+01 0.  1.
        -11    1    1    2    0    0 -0.34427252865E+02 -0.48372428538E+02 -0.99789773779E+02  0.11611686584E+03  0.00000000000E+00 0. -1.
         11    1    1    2    0    0  0.14691131865E+02  0.32339676924E+02 -0.50504138198E+02  0.61744246972E+02  0.00000000000E+00 0.  1.
</event>
<event>
 7    1  0.2688177E-009  0.1533789E+03  0.7561462E-02  0.1196381E+00
         -2   -1    0    0    0  501 -0.00000000000E+00  0.00000000000E+00  0.21942652512E+02  0.21942652512E+02  0.00000000000E+00 0.  1.
          2   -1    0    0  501    0  0.00000000000E+00 -0.00000000000E+00 -0.14503859519E+04  0.14503859519E+04  0.00000000000E+00 0. -1.
         25    2    1    2    0    0  0.97281215109E+02 -0.95625395156E+02 -0.60491780481E+03  0.63259985337E+03  0.12509665420E+03 0.  0.
          5    1    3    3  502    0  0.69194586204E+02 -0.38781062860E+02 -0.12239046547E+03  0.14590668262E+03  0.41800000000E+01 0. -1.
         -5    1    3    3    0  502  0.28086628905E+02 -0.56844332295E+02 -0.48252733934E+03  0.48669317074E+03  0.41800000000E+01 0. -1.
        -11    1    1    2    0    0 -0.80675580043E+02  0.15746814397E+02 -0.38471989456E+03  0.39340298505E+03  0.00000000000E+00 0.  1.
         11    1    1    2    0    0 -0.16605635066E+02  0.79878580759E+02 -0.43880560000E+03  0.44632576597E+03  0.00000000000E+00 0. -1.
</event>
<event>
 7    1  0.2688177E-009  0.1274565E+03  0.7561462E-02  0.1231279E+00
         -2   -1    0    0    0  501 -0.00000000000E+00  0.00000000000E+00  0.19418412305E+03  0.19418412305E+03  0.00000000000E+00 0.  1.
          2   -1    0    0  501    0  0.00000000000E+00 -0.00000000000E+00 -0.10343388904E+03  0.10343388904E+03  0.00000000000E+00 0. -1.
         25    2    1    2    0    0  0.33027603734E+02 -0.84074193765E+02  0.65323891684E+02  0.16755080151E+03  0.12508704009E+03 0.  0.
          5    1    3    3  502    0 -0.27431081953E+02 -0.51788522550E+02 -0.16215138124E+02  0.60950130676E+02  0.41800000000E+01 0.  1.
         -5    1    3    3    0  502  0.60458685687E+02 -0.32285671215E+02  0.81539029808E+02  0.10660067084E+03  0.41800000000E+01 0.  1.
        -11    1    1    2    0    0  0.13866192796E+02  0.79133945629E+02  0.18020948299E+02  0.82335941308E+02  0.00000000000E+00 0.  1.
         11    1    1    2    0    0 -0.46893796530E+02  0.49402481360E+01  0.74053940291E+01  0.47731269262E+02  0.00000000000E+00 0. -1.
</event>
<event>
 7    1  0.2688177E-009  0.7390349E+02  0.7561462E-02  0.1347301E+00
         -1   -1    0    0    0  501 -0.00000000000E+00  0.00000000000E+00  0.12318694612E+03  0.12318694612E+03  0.00000000000E+00 0.  1.
          1   -1    0    0  501    0  0.00000000000E+00 -0.00000000000E+00 -0.95223742831E+02  0.95223742831E+02  0.00000000000E+00 0. -1.
         25    2    1    2    0    0 -0.50996168487E+01  0.40617977403E+01  0.12468864976E+02  0.12588017523E+03  0.12509133315E+03 0.  0.
          5    1    3    3  502    0  0.40833590577E+02 -0.41654655482E+02  0.16650805539E+02  0.60804721592E+02  0.41800000000E+01 0.  1.
         -5    1    3    3    0  502 -0.45933207425E+02  0.45716453223E+02 -0.41819405631E+01  0.65075453640E+02  0.41800000000E+01 0.  1.
        -11    1    1    2    0    0 -0.78573315130E+01 -0.76236646046E+01 -0.36874367309E+02  0.38465268554E+02  0.00000000000E+00 0. -1.
         11    1    1    2    0    0  0.12956948362E+02  0.35618668643E+01  0.52368705621E+02  0.54065245166E+02  0.00000000000E+00 0.  1.
</event>
<event>
 7    1  0.2688177E-009  0.1209997E+03  0.7561462E-02  0.1241457E+00
          2   -1    0    0  501    0  0.00000000000E+00  0.00000000000E+00  0.14731199446E+04  0.14731199446E+04  0.00000000000E+00 0. -1.
         -2   -1    0    0    0  501 -0.00000000000E+00 -0.00000000000E+00 -0.17302926718E+02  0.17302926718E+02  0.00000000000E+00 0.  1.
         25    2    1    2    0    0 -0.10933723955E+02  0.80076639754E+02  0.11702635473E+04  0.11797015857E+04  0.12508895481E+03 0.  0.
          5    1    3    3  502    0  0.37700312014E+02  0.73597495241E+02  0.43621405438E+03  0.44400234061E+03  0.41800000000E+01 0. -1.
         -5    1    3    3    0  502 -0.48634035968E+02  0.64791445124E+01  0.73404949294E+03  0.73569924510E+03  0.41800000000E+01 0. -1.
        -11    1    1    2    0    0  0.37697209872E+02 -0.16828058086E+02  0.47371918484E+02  0.62835991534E+02  0.00000000000E+00 0.  1.
         11    1    1    2    0    0 -0.26763485918E+02 -0.63248581667E+02  0.23818155204E+03  0.24788529403E+03  0.00000000000E+00 0. -1.
</event>
<event>
 7    1  0.2688177E-009  0.1053306E+03  0.7561462E-02  0.1269470E+00
         -1   -1    0    0    0  501 -0.00000000000E+00  0.00000000000E+00  0.95612765962E+02  0.95612765962E+02  0.00000000000E+00 0.  1.
          1   -1    0    0  501    0  0.00000000000E+00 -0.00000000000E+00 -0.18158055483E+03  0.18158055483E+03  0.00000000000E+00 0. -1.
         25    2    1    2    0    0  0.38930345820E+02  0.61595014903E+02 -0.63193945549E+02  0.15795672300E+03  0.12508930371E+03 0.  0.
          5    1    3    3  502    0  0.79652823028E+02  0.31207616811E+02 -0.64077658967E+02  0.10696684693E+03  0.41800000000E+01 0. -1.
         -5    1    3    3    0  502 -0.40722477208E+02  0.30387398092E+02  0.88371341762E+00  0.50989876075E+02  0.41800000000E+01 0. -1.
        -11    1    1    2    0    0 -0.49919522994E+01 -0.18570459979E+02 -0.53192073536E+02  0.56561278793E+02  0.00000000000E+00 0. -1.
         11    1    1    2    0    0 -0.33938393520E+02 -0.43024554924E+02  0.30418230220E+02  0.62675318993E+02  0.00000000000E+00 0.  1.
</event>
<event>
 7    1  0.2688177E-009  0.9132691E+02  0.7561462E-02  0.1299670E+00
         -1   -1    0    0    0  501 -0.00000000000E+00  0.00000000000E+00  0.60691973489E+02  0.60691973489E+02  0.00000000000E+00 0.  1.
          1   -1    0    0  501    0  0.00000000000E+00 -0.00000000000E+00 -0.25050615449E+03  0.25050615449E+03  0.00000000000E+00 0. -1.
         25    2    1    2    0    0  0.54004971738E+02 -0.30410863705E+02 -0.95432596750E+02  0.16910091100E+03  0.12508549067E+03 0.  0.
          5    1    3    3  502    0  0.27578756129E+02 -0.52583179895E+02 -0.11480438048E+03  0.12931781306E+03  0.41800000000E+01 0. -1.
         -5    1    3    3    0  502  0.26426215609E+02  0.22172316190E+02  0.19371783733E+02  0.39783097939E+02  0.41800000000E+01 0. -1.
        -11    1    1    2    0    0 -0.54310928807E+02 -0.35435551385E+01 -0.93431575578E+02  0.10812813272E+03  0.00000000000E+00 0. -1.
         11    1    1    2    0    0  0.30595706845E+00  0.33954418843E+02 -0.95000867373E+00  0.33969084256E+02  0.00000000000E+00 0.  1.
</event>
<event>
 7    1  0.2688177E-009  0.1028280E+03  0.7561462E-02  0.1274459E+00
         -1   -1    0    0    0  501 -0.00000000000E+00  0.00000000000E+00  0.35541005679E+02  0.35541005679E+02  0.00000000000E+00 0.  1.
          1   -1    0    0  501    0  0.00000000000E+00 -0.00000000000E+00 -0.49565682753E+03  0.49565682753E+03  0.00000000000E+00 0. -1.
         25    2    1    2    0    0 -0.33682212560E+02  0.67386075780E+02 -0.27643505729E+03  0.31263169388E+03  0.12508741131E+03 0.  0.
          5    1    3    3  502    0 -0.54815104191E+02  0.68374360369E+02 -0.27750182533E+03  0.29104034818E+03  0.41800000000E+01 0.  1.
         -5    1    3    3    0  502  0.21132891631E+02 -0.98828458929E+00  0.10667680486E+01  0.21591345701E+02  0.41800000000E+01 0.  1.
        -11    1    1    2    0    0 -0.15083841482E+02 -0.34176701381E+02 -0.15694594747E+02  0.40520235629E+02  0.00000000000E+00 0.  1.
         11    1    1    2    0    0  0.48766054042E+02 -0.33209374399E+02 -0.16798616981E+03  0.17804590370E+03  0.00000000000E+00 0. -1.
</event>
<event>
 7    1  0.2688177E-009  0.1642596E+03  0.7561462E-02  0.1183970E+00
         -1   -1    0    0    0  501 -0.00000000000E+00  0.00000000000E+00  0.97836311039E+02  0.97836311039E+02  0.00000000000E+00 0.  1.
          1   -1    0    0  501    0  0.00000000000E+00 -0.00000000000E+00 -0.34894560341E+03  0.34894560341E+03  0.00000000000E+00 0. -1.
         25    2    1    2    0    0 -0.94349621771E+02 -0.11411822320E+03 -0.11558967241E+03  0.22568437342E+03  0.12509054338E+03 0.  0.
          5    1    3    3  502    0 -0.10054816447E+03 -0.90193703411E+02 -0.13720854142E+03  0.19258373179E+03  0.41800000000E+01 0. -1.
         -5    1    3    3    0  502  0.61985426948E+01 -0.23924519790E+02  0.21618869010E+02  0.33100641625E+02  0.41800000000E+01 0. -1.
        -11    1    1    2    0    0 -0.18863466964E+01  0.55709406614E+02 -0.74513767762E+02  0.93055885763E+02  0.00000000000E+00 0. -1.
         11    1    1    2    0    0  0.96235968468E+02  0.58408816587E+02 -0.61005852206E+02  0.12804165527E+03  0.00000000000E+00 0.  1.
</event>
<event>
 7    1  0.2688177E-009  0.9111014E+02  0.7561462E-02  0.1300185E+00
         -2   -1    0    0    0  501 -0.00000000000E+00  0.00000000000E+00  0.63356530684E+03  0.63356530684E+03  0.00000000000E+00 0.  1.
          2   -1    0    0  501    0  0.00000000000E+00 -0.00000000000E+00 -0.22291373165E+02  0.22291373165E+02  0.00000000000E+00 0. -1.
         25    2    1    2    0    0  0.16635042833E+00  0.34785771929E+02  0.39721207057E+03  0.41789103411E+03  0.12508161252E+03 0.  0.
          5    1    3    3  502    0 -0.36300459204E+02  0.22551243017E+02  0.36508251073E+03  0.36759895802E+03  0.41800000000E+01 0.  1.
         -5    1    3    3    0  502  0.36466809632E+02  0.12234528912E+02  0.32129559840E+02  0.50292076095E+02  0.41800000000E+01 0.  1.
        -11    1    1    2    0    0  0.19090242544E+02  0.28576591683E+02  0.46735747063E+02  0.58011111057E+02  0.00000000000E+00 0. -1.
         11    1    1    2    0    0 -0.19256592973E+02 -0.63362363612E+02  0.16732611604E+03  0.17995453483E+03  0.00000000000E+00 0.  1.
</event>
<event>
 7    1  0.2688177E-009  0.1689234E+03  0.7561462E-02  0.1178975E+00
          2   -1    0    0  501    0  0.00000000000E+00  0.00000000000E+00  0.11468369671E+03  0.11468369671E+03  0.00000000000E+00 0. -1.
         -2   -1    0    0    0  501 -0.00000000000E+00 -0.00000000000E+00 -0.28552499893E+03  0.28552499893E+03  0.00000000000E+00 0.  1.
         25    2    1    2    0    0  0.31718922250E+02 -0.12709020076E+03 -0.22532525952E+02  0.18251702765E+03  0.12508693576E+03 0.  0.
          5    1    3    3  502    0  0.72285376715E+02 -0.36649061130E+02 -0.18443434089E+02  0.83222364960E+02  0.41800000000E+01 0. -1.
         -5    1    3    3    0  502 -0.40566454465E+02 -0.90441139634E+02 -0.40890918633E+01  0.99294662689E+02  0.41800000000E+01 0. -1.
        -11    1    1    2    0    0 -0.49120013507E+02  0.13077562951E+03 -0.11950360305E+03  0.18383729802E+03  0.00000000000E+00 0.  1.
         11    1    1    2    0    0  0.17401091257E+02 -0.36854287433E+01 -0.28805173223E+02  0.33854369974E+02  0.00000000000E+00 0. -1.
</event>
<event>
 7    1  0.2688177E-009  0.1052608E+03  0.7561462E-02  0.1269607E+00
         -2   -1    0    0    0  501 -0.00000000000E+00  0.00000000000E+00  0.20655758256E+03  0.20655758256E+03  0.00000000000E+00 0.  1.
          2   -1    0    0  501    0  0.00000000000E+00 -0.00000000000E+00 -0.59448890065E+02  0.59448890065E+02  0.00000000000E+00 0. -1.
         25    2    1    2    0    0 -0.23145898140E+01 -0.63896879964E+02  0.73270486369E+02  0.15844517483E+03  0.12509252839E+03 0.  0.
          5    1    3    3  502    0  0.56610002485E+02 -0.72075811716E+01  0.41224691834E+02  0.70523678466E+02  0.41800000000E+01 0.  1.
         -5    1    3    3    0  502 -0.58924592299E+02 -0.56689298793E+02  0.32045794535E+02  0.87921496362E+02  0.41800000000E+01 0.  1.
        -11    1    1    2    0    0  0.16031964190E+02  0.21182695955E+02  0.50333971928E+02  0.56914314665E+02  0.00000000000E+00 0.  1.
         11    1    1    2    0    0 -0.13717374376E+02  0.42714184009E+02  0.23504234202E+02  0.50646983136E+02  0.00000000000E+00 0. -1.
</event>
<event>
 7    1  0.2688177E-009  0.8222817E+02  0.7561462E-02  0.1322845E+00
         -2   -1    0    0    0  501 -0.00000000000E+00  0.00000000000E+00  0.75143423674E+02  0.75143423674E+02  0.00000000000E+00 0.  1.
          2   -1    0    0  501    0  0.00000000000E+00 -0.00000000000E+00 -0.18727481227E+03  0.18727481227E+03  0.00000000000E+00 0. -1.
         25    2    1    2    0    0  0.11501565632E+02 -0.43730171421E+02 -0.42541707897E+02  0.13965409661E+03  0.12509538714E+03 0.  0.
          5    1    3    3  502    0 -0.22189041786E+02 -0.19155798520E+02  0.38409168992E+02  0.48497781960E+02  0.41800000000E+01 0.  1.
         -5    1    3    3    0  502  0.33690607418E+02 -0.24574372900E+02 -0.80950876889E+02  0.91156314651E+02  0.41800000000E+01 0.  1.
        -11    1    1    2    0    0 -0.13498533755E+02 -0.22735416080E+02  0.98990689576E-01  0.26440865285E+02  0.00000000000E+00 0.  1.
         11    1    1    2    0    0  0.19969681230E+01  0.66465587501E+02 -0.69688671390E+02  0.96323274050E+02  0.00000000000E+00 0. -1.
</event>
<event>
 7    1  0.2688177E-009  0.6485252E+02  0.7561462E-02  0.1378527E+00
         -1   -1    0    0    0  501 -0.00000000000E+00  0.00000000000E+00  0.27661038015E+02  0.27661038015E+02  0.00000000000E+00 0.  1.
          1   -1    0    0  501    0  0.00000000000E+00 -0.00000000000E+00 -0.49134624270E+03  0.49134624270E+03  0.00000000000E+00 0. -1.
         25    2    1    2    0    0 -0.38003469860E+02  0.23835308957E+02 -0.27873887558E+03  0.30879551572E+03  0.12508766563E+03 0.  0.
          5    1    3    3  502    0 -0.19904519561E+01 -0.11540324876E+02 -0.25048692386E+03  0.25079535965E+03  0.41800000000E+01 0.  1.
         -5    1    3    3    0  502 -0.36013017904E+02  0.35375633832E+02 -0.28251951714E+02  0.58000156062E+02  0.41800000000E+01 0.  1.
        -11    1    1    2    0    0  0.23877875295E+02  0.12984589657E+02 -0.16265686550E+03  0.16491212324E+03  0.00000000000E+00 0. -1.
         11    1    1    2    0    0  0.14125594565E+02 -0.36819898613E+02 -0.22289463609E+02  0.45299641761E+02  0.00000000000E+00 0.  1.
</event>
<event>
 7    1  0.2688177E-009  0.7422634E+02  0.7561462E-02  0.1346284E+00
          2   -1    0    0  501    0  0.00000000000E+00  0.00000000000E+00  0.58735756491E+03  0.58735756491E+03  0.00000000000E+00 0. -1.
         -2   -1    0    0    0  501 -0.00000000000E+00 -0.00000000000E+00 -0.26142912920E+02  0.26142912920E+02  0.00000000000E+00 0.  1.
         25    2    1    2    0    0  0.16137912598E+02 -0.53974502749E+02  0.30874439818E+03  0.33785241086E+03  0.12508984351E+03 0.  0.
          5    1    3    3  502    0  0.34318167260E+02 -0.29193441962E+02  0.23614362846E+02  0.51040221299E+02  0.41800000000E+01 0.  1.
         -5    1    3    3    0  502 -0.18180254661E+02 -0.24781060787E+02  0.28513003533E+03  0.28681218956E+03  0.41800000000E+01 0.  1.
        -11    1    1    2    0    0  0.82727769257E+01  0.45652237171E+02  0.24419384127E+03  0.24856226124E+03  0.00000000000E+00 0. -1.
         11    1    1    2    0    0 -0.24410689524E+02  0.83222655781E+01  0.82764125368E+01  0.27085805727E+02  0.00000000000E+00 0.  1.
</event>
<event>
 7    1  0.2688177E-009  0.9575301E+02  0.7561462E-02  0.1289489E+00
          2   -1    0    0  501    0  0.00000000000E+00  0.00000000000E+00  0.95375213723E+02  0.95375213723E+02  0.00000000000E+00 0. -1.
         -2   -1    0    0    0  501 -0.00000000000E+00 -0.00000000000E+00 -0.18207435123E+03  0.18207435123E+03  0.00000000000E+00 0.  1.
         25    2    1    2    0    0 -0.46178345674E+02  0.54071906375E+01  0.84565796291E+01  0.13371742709E+03  0.12508860559E+03 0.  0.
          5    1    3    3  502    0  0.17520724449E+02 -0.46223105016E+02 -0.72226364406E+01  0.50131727476E+02  0.41800000000E+01 0.  1.
         -5    1    3    3    0  502 -0.63699070123E+02  0.51630295654E+02  0.15679216070E+02  0.83585699617E+02  0.41800000000E+01 0.  1.
        -11    1    1    2    0    0  0.70938505611E+01 -0.17499760787E+02  0.16337467339E+02  0.24969525075E+02  0.00000000000E+00 0. -1.
         11    1    1    2    0    0  0.39084495113E+02  0.12092570150E+02 -0.11149318448E+03  0.11876261279E+03  0.00000000000E+00 0.  1.
</event>
<event>
 7    1  0.2688177E-009  0.8607326E+02  0.7561462E-02  0.1312649E+00
         -1   -1    0    0    0  501 -0.00000000000E+00  0.00000000000E+00  0.88698291967E+02  0.88698291967E+02  0.00000000000E+00 0.  1.
          1   -1    0    0  501    0  0.00000000000E+00 -0.00000000000E+00 -0.15124578855E+03  0.15124578855E+03  0.00000000000E+00 0. -1.
         25    2    1    2    0    0  0.96459719848E+01  0.35893081093E+02 -0.15407928650E+02  0.13140268111E+03  0.12509157562E+03 0.  0.
          5    1    3    3  502    0 -0.19808547275E+02  0.40106554915E+02 -0.61633731329E+02  0.76269938573E+02  0.41800000000E+01 0.  1.
         -5    1    3    3    0  502  0.29454519259E+02 -0.42134738226E+01  0.46225802680E+02  0.55132742539E+02  0.41800000000E+01 0.  1.
        -11    1    1    2    0    0 -0.53660410958E+01 -0.66274875442E+02 -0.26577250595E+02  0.71606590206E+02  0.00000000000E+00 0.  1.
         11    1    1    2    0    0 -0.42799308890E+01  0.30381794349E+02 -0.20562317340E+02  0.36934809200E+02  0.00000000000E+00 0. -1.
</event>
<event>
 7    1  0.6481122E-009  0.8663714E+02  0.7561462E-02  0.1311206E+00
         -3   -1    0    0    0  501 -0.00000000000E+00  0.00000000000E+00  0.85887836993E+02  0.85887836993E+02  0.00000000000E+00 0.  1.
          3   -1    0    0  501    0  0.00000000000E+00 -0.00000000000E+00 -0.21241038841E+03  0.21241038841E+03  0.00000000000E+00 0. -1.
         25    2    1    2    0    0  0.29018041703E+02 -0.52092958451E+02 -0.12892053722E+03  0.18927196066E+03  0.12509055565E+03 0.  0.
          5    1    3    3  502    0  0.27628624337E+02  0.24348447091E+02 -0.10131163799E+03  0.10787820981E+03  0.41800000000E+01 0. -1.
         -5    1    3    3    0  502  0.13894173664E+01 -0.76441405542E+02 -0.27608899227E+02  0.81393750856E+02  0.41800000000E+01 0. -1.
        -11    1    1    2    0    0 -0.14613155746E+02  0.27524035560E+02  0.46829437844E+02  0.56250449804E+02  0.00000000000E+00 0.  1.
         11    1    1    2    0    0 -0.14404885957E+02  0.24568922891E+02 -0.44431452040E+02  0.52775814933E+02  0.00000000000E+00 0. -1.
</event>
<event>
 7    1  0.2688177E-009  0.1362734E+03  0.7561462E-02  0.1218433E+00
          2   -1    0    0  501    0  0.00000000000E+00  0.00000000000E+00  0.19430067543E+04  0.19430067543E+04  0.00000000000E+00 0.  1.
         -2   -1    0    0    0  501 -0.00000000000E+00 -0.00000000000E+00 -0.12329593118E+02  0.12329593118E+02  0.00000000000E+00 0. -1.
         25    2    1    2    0    0 -0.88338037351E+02 -0.44374355027E+02  0.13245840798E+04  0.13341451127E+04  0.12508998737E+03 0.  0.
          5    1    3    3  502    0 -0.10528109379E+03 -0.51958892857E+02  0.74133233383E+03  0.75058306458E+03  0.41800000000E+01 0. -1.
         -5    1    3    3    0  502  0.16943056440E+02  0.75845378305E+01  0.58325174600E+03  0.58356204811E+03  0.41800000000E+01 0. -1.
        -11    1    1    2    0    0  0.21912928629E+02  0.63288225951E+02  0.28747971390E+03  0.29517818667E+03  0.00000000000E+00 0.  1.
         11    1    1    2    0    0  0.66425108723E+02 -0.18913870924E+02  0.31861336740E+03  0.32601304801E+03  0.00000000000E+00 0. -1.
</event>
<event>
 7    1  0.2688177E-009  0.1527305E+03  0.7561462E-02  0.1197157E+00
         -2   -1    0    0    0  501 -0.00000000000E+00  0.00000000000E+00  0.21270333712E+03  0.21270333712E+03  0.00000000000E+00 0.  1.
          2   -1    0    0  501    0  0.00000000000E+00 -0.00000000000E+00 -0.18484907278E+03  0.18484907278E+03  0.00000000000E+00 0. -1.
         25    2    1    2    0    0  0.99166675556E+02  0.99266495631E+02 -0.74131805987E+02  0.20206596208E+03  0.12508901501E+03 0.  0.
          5    1    3    3  502    0  0.15101192330E+02  0.66077646666E+02  0.20702241717E+02  0.70995468945E+02  0.41800000000E+01 0.  1.
         -5    1    3    3    0  502  0.84065483226E+02  0.33188848965E+02 -0.94834047703E+02  0.13107049313E+03  0.41800000000E+01 0.  1.
        -11    1    1    2    0    0 -0.77555567573E+02 -0.47418923389E+02  0.10543192048E+03  0.13920959096E+03  0.00000000000E+00 0.  1.
         11    1    1    2    0    0 -0.21611107983E+02 -0.51847572242E+02 -0.34458501608E+01  0.56276856868E+02  0.00000000000E+00 0. -1.
</event>
<event>
 7    1  0.2688177E-009  0.1481037E+03  0.7561462E-02  0.1202823E+00
          2   -1    0    0  501    0  0.00000000000E+00  0.00000000000E+00  0.64330637905E+03  0.64330637905E+03  0.00000000000E+00 0. -1.
         -2   -1    0    0    0  501 -0.00000000000E+00 -0.00000000000E+00 -0.38681434318E+02  0.38681434318E+02  0.00000000000E+00 0.  1.
         25    2    1    2    0    0  0.80947507184E+02  0.65558767597E+02  0.22005556468E+03  0.27371952117E+03  0.12508986288E+03 0.  0.
          5    1    3    3  502    0  0.10157271809E+03  0.12896620590E+02  0.11281781175E+03  0.15240955000E+03  0.41800000000E+01 0.  1.
         -5    1    3    3    0  502 -0.20625210907E+02  0.52662147007E+02  0.10723775293E+03  0.12130997117E+03  0.41800000000E+01 0.  1.
        -11    1    1    2    0    0 -0.97623509225E+02 -0.37893345895E+02  0.29859606985E+03  0.31642671844E+03  0.00000000000E+00 0. -1.
         11    1    1    2    0    0  0.16676002040E+02 -0.27665421701E+02  0.85973310197E+02  0.91841573747E+02  0.00000000000E+00 0.  1.
</event>
<event>
 7    1  0.2688177E-009  0.1357339E+03  0.7561462E-02  0.1219187E+00
          1   -1    0    0  501    0  0.00000000000E+00  0.00000000000E+00  0.10300632761E+04  0.10300632761E+04  0.00000000000E+00 0. -1.
         -1   -1    0    0    0  501 -0.00000000000E+00 -0.00000000000E+00 -0.19835025497E+02  0.19835025497E+02  0.00000000000E+00 0.  1.
         25    2    1    2    0    0  0.73605458774E+00  0.82233986464E+02  0.69455948896E+03  0.71050813403E+03  0.12508378993E+03 0.  0.
          5    1    3    3  502    0  0.45853724961E+02  0.91443345678E+02  0.43714799101E+03  0.44897693483E+03  0.41800000000E+01 0. -1.
         -5    1    3    3    0  502 -0.45117670373E+02 -0.92093592143E+01  0.25741149795E+03  0.26153119920E+03  0.41800000000E+01 0. -1.
        -11    1    1    2    0    0 -0.44600374306E+02 -0.56539933494E+02  0.15589821172E+03  0.17172713788E+03  0.00000000000E+00 0.  1.
         11    1    1    2    0    0  0.43864319719E+02 -0.25694052970E+02  0.15977054994E+03  0.16766302971E+03  0.00000000000E+00 0. -1.
</event>
<event>
 7    1  0.2688177E-009  0.2175035E+03  0.7561462E-02  0.1135758E+00
         -3   -1    0    0    0  501 -0.00000000000E+00  0.00000000000E+00  0.32687427266E+03  0.32687427266E+03  0.00000000000E+00 0.  1.
          3   -1    0    0  501    0  0.00000000000E+00 -0.00000000000E+00 -0.79887831358E+03  0.79887831358E+03  0.00000000000E+00 0. -1.
         25    2    1    2    0    0 -0.64200521427E+02  0.18848971842E+03  0.26648371764E+03  0.35540267777E+03  0.12508961067E+03 0.  0.
          5    1    3    3  502    0 -0.94112099149E+02  0.83914203155E+02  0.14927594936E+03  0.19544682692E+03  0.41800000000E+01 0.  1.
         -5    1    3    3    0  502  0.29911577722E+02  0.10457551526E+03  0.11720776828E+03  0.15995585084E+03  0.41800000000E+01 0.  1.
        -11    1    1    2    0    0  0.47851015250E+02 -0.11222570713E+03 -0.59149228948E+03  0.60394325687E+03  0.00000000000E+00 0. -1.
         11    1    1    2    0    0  0.16349506177E+02 -0.76264011288E+02 -0.14699546907E+03  0.16640665160E+03  0.00000000000E+00 0.  1.
</event>
<event>
 7    1  0.2688177E-009  0.1051467E+03  0.7561462E-02  0.1269831E+00
         -1   -1    0    0    0  501 -0.00000000000E+00  0.00000000000E+00  0.90147297029E+02  0.90147297029E+02  0.00000000000E+00 0.  1.
          1   -1    0    0  501    0  0.00000000000E+00 -0.00000000000E+00 -0.33176781540E+03  0.33176781540E+03  0.00000000000E+00 0. -1.
         25    2    1    2    0    0 -0.34641863132E+02 -0.73722159948E+02 -0.25872546152E+03  0.29870025827E+03  0.12509182350E+03 0.  0.
          5    1    3    3  502    0 -0.13169261655E+02  0.11213358205E+02  0.68112482566E+01  0.19053460515E+02  0.41800000000E+01 0.  1.
         -5    1    3    3    0  502 -0.21472601477E+02 -0.84935518154E+02 -0.26553670977E+03  0.27964679776E+03  0.41800000000E+01 0.  1.
        -11    1    1    2    0    0  0.15449257079E+02  0.82322815216E+02  0.39401142620E+02  0.92564439657E+02  0.00000000000E+00 0.  1.
         11    1    1    2    0    0  0.19192606053E+02 -0.86006552675E+01 -0.22296199478E+02  0.30650414504E+02  0.00000000000E+00 0. -1.
</event>
<event>
 7    1  0.2688177E-009  0.3173508E+03  0.7561462E-02  0.1076875E+00
          1   -1    0    0  501    0  0.00000000000E+00  0.00000000000E+00  0.23585914940E+03  0.23585914940E+03  0.00000000000E+00 0. -1.
         -1   -1    0    0    0  501 -0.00000000000E+00 -0.00000000000E+00 -0.45948331117E+03  0.45948331117E+03  0.00000000000E+00 0.  1.
         25    2    1    2    0    0  0.25916344620E+03  0.16254336005E+03 -0.17043075944E+03  0.37186085177E+03  0.12509122102E+03 0.  0.
          5    1    3    3  502    0  0.16432901367E+03  0.16441827944E+03 -0.97387185701E+02  0.25206969609E+03  0.41800000000E+01 0. -1.
         -5    1    3    3    0  502  0.94834432527E+02 -0.18749193886E+01 -0.73043573736E+02  0.11979115568E+03  0.41800000000E+01 0. -1.
        -11    1    1    2    0    0 -0.35147956272E+02 -0.11111539961E+02  0.21866273549E+02  0.42859993809E+02  0.00000000000E+00 0. -1.
         11    1    1    2    0    0 -0.22401548993E+03 -0.15143182009E+03 -0.75059675880E+02  0.28062161500E+03  0.00000000000E+00 0.  1.
</event>
<event>
 7    1  0.2688177E-009  0.1356313E+03  0.7561462E-02  0.1219331E+00
          4   -1    0    0  501    0  0.00000000000E+00  0.00000000000E+00  0.81714407805E+03  0.81714407805E+03  0.00000000000E+00 0. -1.
         -4   -1    0    0    0  501 -0.00000000000E+00 -0.00000000000E+00 -0.26051834785E+02  0.26051834785E+02  0.00000000000E+00 0.  1.
         25    2    1    2    0    0  0.94818417433E+02 -0.16476492187E+02  0.38389104650E+03  0.41506977405E+03  0.12509426311E+03 0.  0.
          5    1    3    3  502    0  0.96751328380E+02 -0.50736957721E+02  0.19974607316E+03  0.22770820048E+03  0.41800000000E+01 0.  1.
         -5    1    3    3    0  502 -0.19329109465E+01  0.34260465534E+02  0.18414497334E+03  0.18736157357E+03  0.41800000000E+01 0.  1.
        -11    1    1    2    0    0 -0.84912576795E+02  0.45756466741E+02  0.35069639198E+03  0.36371934138E+03  0.00000000000E+00 0. -1.
         11    1    1    2    0    0 -0.99058406378E+01 -0.29279974554E+02  0.56504804778E+02  0.64406797402E+02  0.00000000000E+00 0.  1.
</event>
<event>
 7    1  0.2688177E-009  0.1541906E+03  0.7561462E-02  0.1195416E+00
          2   -1    0    0  501    0  0.00000000000E+00  0.00000000000E+00  0.33783600469E+03  0.33783600469E+03  0.00000000000E+00 0.  1.
         -2   -1    0    0    0  501 -0.00000000000E+00 -0.00000000000E+00 -0.88309256714E+02  0.88309256714E+02  0.00000000000E+00 0. -1.
         25    2    1    2    0    0  0.26320014863E+02 -0.12303527208E+03  0.18768842827E+03  0.25827438865E+03  0.12509313478E+03 0.  0.
          5    1    3    3  502    0  0.57345138669E+02 -0.10667280904E+03  0.80670138858E+02  0.14557711640E+03  0.41800000000E+01 0. -1.
         -5    1    3    3    0  502 -0.31025123807E+02 -0.16362463043E+02  0.10701828941E+03  0.11269727225E+03  0.41800000000E+01 0. -1.
        -11    1    1    2    0    0  0.28630986710E+02  0.19434933812E+02  0.31367708821E+02  0.46705280311E+02  0.00000000000E+00 0.  1.
         11    1    1    2    0    0 -0.54951001573E+02  0.10360033827E+03  0.30470610883E+02  0.12116559244E+03  0.00000000000E+00 0. -1.
</event>
<event>
 7    1  0.2688177E-009  0.1175523E+03  0.7561462E-02  0.1247190E+00
          2   -1    0    0  501    0  0.00000000000E+00  0.00000000000E+00  0.14954172921E+03  0.14954172921E+03  0.00000000000E+00 0. -1.
         -2   -1    0    0    0  501 -0.00000000000E+00 -0.00000000000E+00 -0.11209487971E+03  0.11209487971E+03  0.00000000000E+00 0.  1.
         25    2    1    2    0    0  0.83604062454E+01 -0.76072833760E+02  0.27293062480E+02  0.14916402007E+03  0.12509205088E+03 0.  0.
          5    1    3    3  502    0 -0.52487210172E+02 -0.59305327776E+02  0.32475752424E+02  0.85698168182E+02  0.41800000000E+01 0. -1.
         -5    1    3    3    0  502  0.60847616417E+02 -0.16767505984E+02 -0.51826899445E+01  0.63465851886E+02  0.41800000000E+01 0. -1.
        -11    1    1    2    0    0  0.18312315583E+02  0.56685762432E+02 -0.24704117388E+02  0.64489611415E+02  0.00000000000E+00 0.  1.
         11    1    1    2    0    0 -0.26672721828E+02  0.19387071327E+02  0.34857904410E+02  0.47982977443E+02  0.00000000000E+00 0. -1.
</event>
<event>
 7    1  0.2688177E-009  0.1391254E+03  0.7561462E-02  0.1214511E+00
          2   -1    0    0  501    0  0.00000000000E+00  0.00000000000E+00  0.91229142066E+03  0.91229142066E+03  0.00000000000E+00 0. -1.
         -2   -1    0    0    0  501 -0.00000000000E+00 -0.00000000000E+00 -0.30654122909E+02  0.30654122909E+02  0.00000000000E+00 0.  1.
         25    2    1    2    0    0  0.57056351322E+02  0.10833965338E+03  0.53885538242E+03  0.56657364366E+03  0.12509061838E+03 0.  0.
          5    1    3    3  502    0  0.17830910279E+02  0.28431348574E+02  0.40099387404E+03  0.40241749759E+03  0.41800000000E+01 0.  1.
         -5    1    3    3    0  502  0.39225441043E+02  0.79908304809E+02  0.13786150838E+03  0.16415614608E+03  0.41800000000E+01 0.  1.
        -11    1    1    2    0    0 -0.84172715833E+02 -0.82350217012E+02  0.26573842807E+03  0.29066048318E+03  0.00000000000E+00 0. -1.
         11    1    1    2    0    0  0.27116364511E+02 -0.25989436370E+02  0.77043487265E+02  0.85711416726E+02  0.00000000000E+00 0.  1.
</event>
<event>
 7    1  0.2688177E-009  0.1152942E+03  0.7561462E-02  0.1251068E+00
         -2   -1    0    0    0  501 -0.00000000000E+00  0.00000000000E+00  0.74377463504E+02  0.74377463504E+02  0.00000000000E+00 0.  1.
          2   -1    0    0  501    0  0.00000000000E+00 -0.00000000000E+00 -0.18601171445E+03  0.18601171445E+03  0.00000000000E+00 0. -1.
         25    2    1    2    0    0  0.49998790616E+01 -0.45349703939E+02 -0.65828997624E+02  0.14853417373E+03  0.12508936565E+03 0.  0.
          5    1    3    3  502    0  0.58022630700E+02 -0.52698701719E+02 -0.30237057112E+02  0.84116174776E+02  0.41800000000E+01 0. -1.
         -5    1    3    3    0  502 -0.53022751638E+02  0.73489977802E+01 -0.35591940512E+02  0.64417998953E+02  0.41800000000E+01 0. -1.
        -11    1    1    2    0    0  0.14159270477E+02 -0.23225320392E+02 -0.15801882480E-01  0.27201115739E+02  0.00000000000E+00 0.  1.
         11    1    1    2    0    0 -0.19159149539E+02  0.68575024331E+02 -0.45789451441E+02  0.84653888488E+02  0.00000000000E+00 0. -1.
</event>
<event>
 7    1  0.2688177E-009  0.1374937E+03  0.7561462E-02  0.1216742E+00
         -1   -1    0    0    0  501 -0.00000000000E+00  0.00000000000E+00  0.22309819031E+02  0.22309819031E+02  0.00000000000E+00 0.  1.
          1   -1    0    0  501    0  0.00000000000E+00 -0.00000000000E+00 -0.10821459779E+04  0.10821459779E+04  0.00000000000E+00 0. -1.
         25    2    1    2    0    0  0.85439508567E+02  0.69439438831E+02 -0.63257382723E+03  0.65415474706E+03  0.12508813259E+03 0.  0.
          5    1    3    3  502    0  0.87484562076E+02  0.15768866093E+02 -0.20884714988E+03  0.22701720233E+03  0.41800000000E+01 0. -1.
         -5    1    3    3    0  502 -0.20450535090E+01  0.53670572738E+02 -0.42372667735E+03  0.42713754473E+03  0.41800000000E+01 0. -1.
        -11    1    1    2    0    0 -0.25516837439E+02  0.14224062930E+02 -0.39585422842E+02  0.49197953826E+02  0.00000000000E+00 0.  1.
         11    1    1    2    0    0 -0.59922671128E+02 -0.83663501761E+02 -0.38767690878E+03  0.40110309603E+03  0.00000000000E+00 0. -1.
</event>
<event>
 7    1  0.2688177E-009  0.9568177E+02  0.7561462E-02  0.1289648E+00
          2   -1    0    0  501    0  0.00000000000E+00  0.00000000000E+00  0.66557023297E+03  0.66557023297E+03  0.00000000000E+00 0.  1.
         -2   -1    0    0    0  501 -0.00000000000E+00 -0.00000000000E+00 -0.17836076003E+02  0.17836076003E+02  0.00000000000E+00 0. -1.
         25    2    1    2    0    0  0.13822326316E+02 -0.18969400453E+02  0.34459084477E+03  0.36734335003E+03  0.12508953453E+03 0.  0.
          5    1    3    3  502    0  0.48912053672E+02  0.22684795019E+02  0.76133939736E+02  0.93385427660E+02  0.41800000000E+01 0. -1.
         -5    1    3    3    0  502 -0.35089727356E+02 -0.41654195472E+02  0.26845690504E+03  0.27395792237E+03  0.41800000000E+01 0. -1.
        -11    1    1    2    0    0 -0.40030974813E+02  0.33935977377E+02  0.12803947929E+03  0.13837715766E+03  0.00000000000E+00 0. -1.
         11    1    1    2    0    0  0.26208648497E+02 -0.14966576924E+02  0.17510383290E+03  0.17768580128E+03  0.00000000000E+00 0.  1.
</event>
<event>
 7    1  0.2688177E-009  0.1170570E+03  0.7561462E-02  0.1248032E+00
          1   -1    0    0  501    0  0.00000000000E+00  0.00000000000E+00  0.81939394280E+03  0.81939394280E+03  0.00000000000E+00 0. -1.
         -1   -1    0    0    0  501 -0.00000000000E+00 -0.00000000000E+00 -0.23791899894E+02  0.23791899894E+02  0.00000000000E+00 0.  1.
         25    2    1    2    0    0 -0.76943050073E+02 -0.33506946186E+02  0.50650348570E+03  0.52842856398E+03  0.12509203733E+03 0.  0.
          5    1    3    3  502    0 -0.13754663940E+02 -0.48422485864E+02  0.40315657668E+03  0.40630853503E+03  0.41800000000E+01 0.  1.
         -5    1    3    3    0  502 -0.63188386133E+02  0.14915539678E+02  0.10334690902E+03  0.12212002894E+03  0.41800000000E+01 0.  1.
        -11    1    1    2    0    0 -0.44078205771E+01 -0.20453593090E+02  0.97538276318E+02  0.99757173675E+02  0.00000000000E+00 0. -1.
         11    1    1    2    0    0  0.81350870650E+02  0.53960539276E+02  0.19156028089E+03  0.21500010505E+03  0.00000000000E+00 0.  1.
</event>
<event>
 7    1  0.2688177E-009  0.8527950E+02  0.7561462E-02  0.1314703E+00
          3   -1    0    0  501    0  0.00000000000E+00  0.00000000000E+00  0.23307861667E+03  0.23307861667E+03  0.00000000000E+00 0. -1.
         -3   -1    0    0    0  501 -0.00000000000E+00 -0.00000000000E+00 -0.51483806270E+02  0.51483806270E+02  0.00000000000E+00 0.  1.
         25    2    1    2    0    0  0.78935349285E+01  0.14321325041E+01  0.88991232298E+02  0.15367834264E+03  0.12503293436E+03 0.  0.
          5    1    3    3  502    0  0.16851050654E+02 -0.40366791250E+02 -0.10614914667E+02  0.45206023463E+02  0.41800000000E+01 0.  1.
         -5    1    3    3    0  502 -0.89575157251E+01  0.41798923754E+02  0.99606146966E+02  0.10847231918E+03  0.41800000000E+01 0.  1.
        -11    1    1    2    0    0  0.37853234483E+02 -0.21281911327E+01  0.14949120266E+02  0.40753806632E+02  0.00000000000E+00 0.  1.
         11    1    1    2    0    0 -0.45746769411E+02  0.69605862855E+00  0.77654457835E+02  0.90130273664E+02  0.00000000000E+00 0. -1.
</event>
<event>
 7    1  0.2688177E-009  0.7974816E+02  0.7561462E-02  0.1329768E+00
         -1   -1    0    0    0  501 -0.00000000000E+00  0.00000000000E+00  0.27266576492E+03  0.27266576492E+03  0.00000000000E+00 0.  1.
          1   -1    0    0  501    0  0.00000000000E+00 -0.00000000000E+00 -0.46707952676E+02  0.46707952676E+02  0.00000000000E+00 0. -1.
         25    2    1    2    0    0 -0.33748638604E+01  0.12942196043E+02  0.16238278538E+03  0.20541746202E+03  0.12509706060E+03 0.  0.
          5    1    3    3  502    0 -0.34426475399E+02 -0.19012149097E+01 -0.44545472216E+01  0.35015885216E+02  0.41800000000E+01 0.  1.
         -5    1    3    3    0  502  0.31051611539E+02  0.14843410953E+02  0.16683733260E+03  0.17040157681E+03  0.41800000000E+01 0.  1.
        -11    1    1    2    0    0 -0.31008348789E+02 -0.36892053803E+02  0.16513068425E+02  0.50943328878E+02  0.00000000000E+00 0.  1.
         11    1    1    2    0    0  0.34383212649E+02  0.23949857760E+02  0.47061958438E+02  0.63012926696E+02  0.00000000000E+00 0. -1.
</event>
<event>
 7    1  0.2688177E-009  0.1336630E+03  0.7561462E-02  0.1222120E+00
          1   -1    0    0  501    0  0.00000000000E+00  0.00000000000E+00  0.60640403862E+03  0.60640403862E+03  0.00000000000E+00 0. -1.
         -1   -1    0    0    0  501 -0.00000000000E+00 -0.00000000000E+00 -0.38817991758E+02  0.38817991758E+02  0.00000000000E+00 0.  1.
         25    2    1    2    0    0  0.16780499476E+02 -0.84389084381E+02  0.44742834734E+03  0.47248581822E+03  0.12509044603E+03 0.  0.
          5    1    3    3  502    0 -0.32455800728E+02 -0.94170705226E+02  0.32945131681E+03  0.34420508897E+03  0.41800000000E+01 0.  1.
         -5    1    3    3    0  502  0.49236300205E+02  0.97816208451E+01  0.11797703053E+03  0.12828072925E+03  0.41800000000E+01 0.  1.
        -11    1    1    2    0    0  0.32222458923E+02  0.37418586780E+02  0.23660245451E+02  0.54756229878E+02  0.00000000000E+00 0.  1.
         11    1    1    2    0    0 -0.49002958400E+02  0.46970497601E+02  0.96497454069E+02  0.11797998228E+03  0.00000000000E+00 0. -1.
</event>
<event>
 7    1  0.2688177E-009  0.2156398E+03  0.7561462E-02  0.1137176E+00
         -2   -1    0    0    0  501 -0.00000000000E+00  0.00000000000E+00  0.11494388258E+03  0.11494388258E+03  0.00000000000E+00 0. -1.
          2   -1    0    0  501    0  0.00000000000E+00 -0.00000000000E+00 -0.43700813032E+03  0.43700813032E+03  0.00000000000E+00 0.  1.
         25    2    1    2    0    0 -0.17440245715E+03 -0.86049455344E+02 -0.14460420356E+03  0.27272290691E+03  0.12508669970E+03 0.  0.
          5    1    3    3  502    0 -0.11675143558E+03 -0.11084682742E+03 -0.71268720883E+02  0.17610968127E+03  0.41800000000E+01 0.  1.
         -5    1    3    3    0  502 -0.57651021563E+02  0.24797372075E+02 -0.73335482682E+02  0.96613225644E+02  0.41800000000E+01 0.  1.
        -11    1    1    2    0    0  0.93007495271E+02  0.60397908532E+01 -0.11851039015E+03  0.15076997653E+03  0.00000000000E+00 0.  1.
         11    1    1    2    0    0  0.81394961876E+02  0.80009664490E+02 -0.58949654028E+02  0.12845912946E+03  0.00000000000E+00 0. -1.
</event>
<event>
 7    1  0.2688177E-009  0.9758266E+02  0.7561462E-02  0.1285463E+00
          3   -1    0    0  501    0  0.00000000000E+00  0.00000000000E+00  0.71574888586E+02  0.71574888586E+02  0.00000000000E+00 0. -1.
         -3   -1    0    0    0  501 -0.00000000000E+00 -0.00000000000E+00 -0.25916786369E+03  0.25916786369E+03  0.00000000000E+00 0.  1.
         25    2    1    2    0    0 -0.16824209476E+02 -0.17104217821E+02 -0.20468859086E+03  0.24105135497E+03  0.12503090904E+03 0.  0.
          5    1    3    3  502    0  0.46552052872E+02 -0.15251738261E+02 -0.36418768668E+02  0.61184215758E+02  0.41800000000E+01 0. -1.
         -5    1    3    3    0  502 -0.63376262348E+02 -0.18524795602E+01 -0.16826982219E+03  0.17986713921E+03  0.41800000000E+01 0. -1.
        -11    1    1    2    0    0 -0.23581634191E+02  0.31690344651E+02  0.23942696737E+02  0.46191169527E+02  0.00000000000E+00 0.  1.
         11    1    1    2    0    0  0.40405843667E+02 -0.14586126831E+02 -0.68470809800E+01  0.43500227773E+02  0.00000000000E+00 0. -1.
</event>
<event>
 7    1  0.2688177E-009  0.5195315E+02  0.7561462E-02  0.1435083E+00
          2   -1    0    0  501    0  0.00000000000E+00  0.00000000000E+00  0.48361592884E+02  0.48361592884E+02  0.00000000000E+00 0. -1.
         -2   -1    0    0    0  501 -0.00000000000E+00 -0.00000000000E+00 -0.28781032290E+03  0.28781032290E+03  0.00000000000E+00 0.  1.
         25    2    1    2    0    0  0.44232234431E+02  0.16507789988E+01 -0.15580407413E+03  0.20465041509E+03  0.12509063613E+03 0.  0.
          5    1    3    3  502    0  0.26264755967E+01 -0.79066680866E+01  0.20863077606E+02  0.22850693238E+02  0.41800000000E+01 0.  1.
         -5    1    3    3    0  502  0.41605758834E+02  0.95574470854E+01 -0.17666715174E+03  0.18179972185E+03  0.41800000000E+01 0.  1.
        -11    1    1    2    0    0 -0.17817782089E+02 -0.13877523143E+02 -0.96929731023E+02  0.99526035605E+02  0.00000000000E+00 0.  1.
         11    1    1    2    0    0 -0.26414452341E+02  0.12226744144E+02  0.13285075138E+02  0.31995465089E+02  0.00000000000E+00 0. -1.
</event>
<event>
 7    1  0.2688177E-009  0.1105423E+03  0.7561462E-02  0.1259569E+00
         -1   -1    0    0    0  501 -0.00000000000E+00  0.00000000000E+00  0.44399310521E+03  0.44399310521E+03  0.00000000000E+00 0.  1.
          1   -1    0    0  501    0  0.00000000000E+00 -0.00000000000E+00 -0.41627197712E+02  0.41627197712E+02  0.00000000000E+00 0. -1.
         25    2    1    2    0    0  0.57452045761E+02 -0.49341401532E+02  0.23775389778E+03  0.27911918250E+03  0.12508113632E+03 0.  0.
          5    1    3    3  502    0  0.58231262941E+02  0.25103960317E+02  0.64728941989E+02  0.90710512833E+02  0.41800000000E+01 0.  1.
         -5    1    3    3    0  502 -0.77921718022E+00 -0.74445361849E+02  0.17302495579E+03  0.18840866967E+03  0.41800000000E+01 0.  1.
        -11    1    1    2    0    0 -0.48733705572E+02  0.54280871530E+02  0.17648380808E+03  0.19096576025E+03  0.00000000000E+00 0.  1.
         11    1    1    2    0    0 -0.87183401892E+01 -0.49394699978E+01 -0.11871798358E+02  0.15535360175E+02  0.00000000000E+00 0. -1.
</event>
<event>
 7    1  0.2688177E-009  0.1105858E+03  0.7561462E-02  0.1259489E+00
         -1   -1    0    0    0  501 -0.00000000000E+00  0.00000000000E+00  0.42422332313E+03  0.42422332313E+03  0.00000000000E+00 0.  1.
          1   -1    0    0  501    0  0.00000000000E+00 -0.00000000000E+00 -0.36250794202E+02  0.36250794202E+02  0.00000000000E+00 0. -1.
         25    2    1    2    0    0  0.16483546008E+02  0.57279361476E+02  0.19465880919E+03  0.23894311647E+03  0.12509647626E+03 0.  0.
          5    1    3    3  502    0 -0.24606146659E+02  0.77098007586E+02  0.16649061253E+03  0.18516522807E+03  0.41800000000E+01 0. -1.
         -5    1    3    3    0  502  0.41089692666E+02 -0.19818646109E+02  0.28168196659E+02  0.53777888393E+02  0.41800000000E+01 0. -1.
        -11    1    1    2    0    0  0.13692355117E+01 -0.71491586377E+02  0.86121058791E+02  0.11193640380E+03  0.00000000000E+00 0. -1.
         11    1    1    2    0    0 -0.17852781519E+02  0.14212224901E+02  0.10719266094E+03  0.10959459706E+03  0.00000000000E+00 0.  1.
</event>
<event>
 7    1  0.2688177E-009  0.2249805E+03  0.7561462E-02  0.1130223E+00
          2   -1    0    0  501    0  0.00000000000E+00  0.00000000000E+00  0.12401903240E+04  0.12401903240E+04  0.00000000000E+00 0. -1.
         -2   -1    0    0    0  501 -0.00000000000E+00 -0.00000000000E+00 -0.41118942249E+02  0.41118942249E+02  0.00000000000E+00 0.  1.
         25    2    1    2    0    0 -0.10071752955E+03  0.16994698995E+03  0.58622570989E+03  0.63113709217E+03  0.12508975190E+03 0.  0.
          5    1    3    3  502    0 -0.29860968388E+02  0.15819234883E+03  0.42905941250E+03  0.45828588077E+03  0.41800000000E+01 0. -1.
         -5    1    3    3    0  502 -0.70856561161E+02  0.11754641120E+02  0.15716629739E+03  0.17285121140E+03  0.41800000000E+01 0. -1.
        -11    1    1    2    0    0  0.92686274464E+02 -0.68604527337E+02  0.31351877040E+03  0.33405290904E+03  0.00000000000E+00 0. -1.
         11    1    1    2    0    0  0.80312550852E+01 -0.10134246261E+03  0.29932690141E+03  0.31611926499E+03  0.00000000000E+00 0.  1.
</event>
<event>
 7    1  0.2688177E-009  0.1296489E+03  0.7561462E-02  0.1227978E+00
          2   -1    0    0  501    0  0.00000000000E+00  0.00000000000E+00  0.52450941370E+03  0.52450941370E+03  0.00000000000E+00 0. -1.
         -2   -1    0    0    0  501 -0.00000000000E+00 -0.00000000000E+00 -0.65189930443E+02  0.65189930443E+02  0.00000000000E+00 0.  1.
         25    2    1    2    0    0 -0.13412086892E+02  0.94011288747E+02  0.42640039433E+03  0.45440523999E+03  0.12509524117E+03 0.  0.
          5    1    3    3  502    0  0.41162178931E+02  0.55637532994E+02  0.32930098481E+03  0.33652113017E+03  0.41800000000E+01 0.  1.
         -5    1    3    3    0  502 -0.54574265823E+02  0.38373755752E+02  0.97099409514E+02  0.11788410982E+03  0.41800000000E+01 0.  1.
        -11    1    1    2    0    0 -0.10923965145E+02 -0.97869244729E+02  0.44504332720E+02  0.10806645043E+03  0.00000000000E+00 0. -1.
         11    1    1    2    0    0  0.24336052037E+02  0.38579559826E+01 -0.11585243792E+02  0.27227653715E+02  0.00000000000E+00 0.  1.
</event>
<event>
 7    1  0.2688177E-009  0.1268404E+03  0.7561462E-02  0.1232221E+00
          1   -1    0    0  501    0  0.00000000000E+00  0.00000000000E+00  0.40631432207E+03  0.40631432207E+03  0.00000000000E+00 0. -1.
         -1   -1    0    0    0  501 -0.00000000000E+00 -0.00000000000E+00 -0.46348201687E+02  0.46348201687E+02  0.00000000000E+00 0.  1.
         25    2    1    2    0    0  0.23788380957E+02  0.71668461793E+02  0.25830746639E+03  0.29676943091E+03  0.12508833857E+03 0.  0.
          5    1    3    3  502    0  0.59422012413E+02  0.35325916241E+01  0.16691267712E+03  0.17725904475E+03  0.41800000000E+01 0. -1.
         -5    1    3    3    0  502 -0.35633631456E+02  0.68135870169E+02  0.91394789267E+02  0.11951038616E+03  0.41800000000E+01 0. -1.
        -11    1    1    2    0    0 -0.35643282428E+02  0.79393857534E+01  0.21891078513E+02  0.42575776527E+02  0.00000000000E+00 0.  1.
         11    1    1    2    0    0  0.11854901471E+02 -0.79607847547E+02  0.79767575486E+02  0.11331731632E+03  0.00000000000E+00 0. -1.
</event>
<event>
 7    1  0.2688177E-009  0.9854931E+02  0.7561462E-02  0.1283376E+00
         -1   -1    0    0    0  501 -0.00000000000E+00  0.00000000000E+00  0.23558949996E+02  0.23558949996E+02  0.00000000000E+00 0.  1.
          1   -1    0    0  501    0  0.00000000000E+00 -0.00000000000E+00 -0.63216036178E+03  0.63216036178E+03  0.00000000000E+00 0. -1.
         25    2    1    2    0    0  0.18335577320E+02  0.66748452652E+01 -0.47675771499E+03  0.49328143384E+03  0.12509159531E+03 0.  0.
          5    1    3    3  502    0 -0.40677388237E+02 -0.14345538740E+02 -0.34059756696E+03  0.34334329673E+03  0.41800000000E+01 0.  1.
         -5    1    3    3    0  502  0.59012965557E+02  0.21020384005E+02 -0.13616014803E+03  0.14993813711E+03  0.41800000000E+01 0.  1.
        -11    1    1    2    0    0  0.36193574627E+02 -0.19523900768E+01 -0.76228862687E+02  0.84407500721E+02  0.00000000000E+00 0. -1.
         11    1    1    2    0    0 -0.54529151947E+02 -0.47224551884E+01 -0.55614834111E+02  0.78030377215E+02  0.00000000000E+00 0.  1.
</event>
<event>
 7    1  0.2688177E-009  0.2293620E+03  0.7561462E-02  0.1127090E+00
          2   -1    0    0  501    0  0.00000000000E+00  0.00000000000E+00  0.68532653495E+03  0.68532653495E+03  0.00000000000E+00 0. -1.
         -2   -1    0    0    0  501 -0.00000000000E+00 -0.00000000000E+00 -0.84253646375E+02  0.84253646375E+02  0.00000000000E+00 0.  1.
         25    2    1    2    0    0 -0.20539824389E+03  0.16096629124E+02  0.40618827235E+03  0.47231834827E+03  0.12509264346E+03 0.  0.
          5    1    3    3  502    0 -0.21557895827E+03  0.29146769684E+02  0.39752480253E+03  0.45317464895E+03  0.41800000000E+01 0. -1.
         -5    1    3    3    0  502  0.10180714376E+02 -0.13050140561E+02  0.86634698255E+01  0.19143699310E+02  0.41800000000E+01 0. -1.
        -11    1    1    2    0    0  0.89771318367E+02 -0.51057900279E+02  0.98612943529E+02  0.14279464771E+03  0.00000000000E+00 0. -1.
         11    1    1    2    0    0  0.11562692553E+03  0.34961271156E+02  0.96271672695E+02  0.15446718535E+03  0.00000000000E+00 0.  1.
</event>
<event>
 7    1  0.2688177E-009  0.8659577E+02  0.7561462E-02  0.1311311E+00
         -1   -1    0    0    0  501 -0.00000000000E+00  0.00000000000E+00  0.57379812023E+03  0.57379812023E+03  0.00000000000E+00 0.  1.
          1   -1    0    0  501    0  0.00000000000E+00 -0.00000000000E+00 -0.37292627705E+02  0.37292627705E+02  0.00000000000E+00 0. -1.
         25    2    1    2    0    0 -0.27119783940E+02  0.33079888316E+02  0.47589358638E+03  0.49391601383E+03  0.12509421036E+03 0.  0.
          5    1    3    3  502    0 -0.13945421235E+02 -0.25610958408E+02  0.23946613294E+02  0.37964571013E+02  0.41800000000E+01 0. -1.
         -5    1    3    3    0  502 -0.13174362705E+02  0.58690846724E+02  0.45194697309E+03  0.45595144282E+03  0.41800000000E+01 0. -1.
        -11    1    1    2    0    0  0.51697971808E+02 -0.25942852502E+02  0.76405722168E+01  0.58344581829E+02  0.00000000000E+00 0.  1.
         11    1    1    2    0    0 -0.24578187868E+02 -0.71370358146E+01  0.52971333927E+02  0.58830152279E+02  0.00000000000E+00 0. -1.
</event>
