<event>
 8    1  0.6689467E-009  0.1492630E+03  0.7561462E-02  0.1201382E+00
          2   -1    0    0  501    0  0.00000000000E+00  0.00000000000E+00  0.10006423600E+03  0.10006423600E+03  0.00000000000E+00 0. -1.
         -2   -1    0    0    0  501 -0.00000000000E+00 -0.00000000000E+00 -0.29452949256E+03  0.29452949256E+03  0.00000000000E+00 0.  1.
         25    2    1    2    0    0 -0.11483869804E+03 -0.41235438748E+02 -0.15949923377E+03  0.23659491205E+03  0.12509539903E+03 0.  0.
         23    2    1    2    0    0  0.11483869804E+03  0.41235438748E+02 -0.34966022788E+02  0.15799881651E+03  0.94088869129E+02 0.  0.
          5    1    3    3  502    0 -0.12678978958E+03 -0.27208375063E+02 -0.17086657389E+03  0.21454324713E+03  0.41800000000E+01 0. -1.
         -5    1    3    3    0  502  0.11951091538E+02 -0.14027063685E+02  0.11367340119E+02  0.22051664925E+02  0.41800000000E+01 0. -1.
        -11    1    4    4    0    0  0.73007333849E+02  0.68371945256E+02 -0.40330565675E+02  0.10784872842E+03  0.00000000000E+00 0.  1.
         11    1    4    4    0    0  0.41831364189E+02 -0.27136506508E+02  0.53645428874E+01  0.50150088094E+02  0.00000000000E+00 0. -1.
</event>
<event>
 8    1  0.6689467E-009  0.1287906E+03  0.7561462E-02  0.1229261E+00
         -2   -1    0    0    0  501 -0.00000000000E+00  0.00000000000E+00  0.48670790561E+02  0.48670790561E+02  0.00000000000E+00 0.  1.
          2   -1    0    0  501    0  0.00000000000E+00 -0.00000000000E+00 -0.39622751089E+03  0.39622751089E+03  0.00000000000E+00 0. -1.
         25    2    1    2    0    0 -0.10860365480E+02 -0.72559117139E+02 -0.26203813755E+03  0.29949300150E+03  0.12509715985E+03 0.  0.
         23    2    1    2    0    0  0.10860365480E+02  0.72559117139E+02 -0.85518582782E+02  0.14540529995E+03  0.91904843365E+02 0.  0.
          5    1    3    3  502    0  0.25143182790E+02 -0.96150936265E+02 -0.15649156150E+03  0.18542994204E+03  0.41800000000E+01 0.  1.
         -5    1    3    3    0  502 -0.36003548271E+02  0.23591819127E+02 -0.10554657605E+03  0.11406305946E+03  0.41800000000E+01 0.  1.
        -11    1    4    4    0    0  0.27642028630E+02 -0.10914231011E+02 -0.93251007599E+01  0.31147386560E+02  0.00000000000E+00 0.  1.
         11    1    4    4    0    0 -0.16781663149E+02  0.83473348150E+02 -0.76193482022E+02  0.11425791339E+03  0.00000000000E+00 0. -1.
</event>
<event>
 8    1  0.6689467E-009  0.1124551E+03  0.7561462E-02  0.1256090E+00
          2   -1    0    0  501    0  0.00000000000E+00  0.00000000000E+00  0.41823119155E+03  0.41823119155E+03  0.00000000000E+00 0. -1.
         -2   -1    0    0    0  501 -0.00000000000E+00 -0.00000000000E+00 -0.89905189996E+02  0.89905189996E+02  0.00000000000E+00 0.  1.
         25    2    1    2    0    0 -0.75473880245E+02  0.19866744508E+02  0.35429826877E+03  0.38375060022E+03  0.12508503419E+03 0.  0.
         23    2    1    2    0    0  0.75473880245E+02 -0.19866744508E+02 -0.25972267223E+02  0.12438578132E+03  0.93307394100E+02 0.  0.
          5    1    3    3  502    0 -0.37609809320E+02  0.72073371367E+02  0.17086249769E+03  0.18926313464E+03  0.41800000000E+01 0.  1.
         -5    1    3    3    0  502 -0.37864070925E+02 -0.52206626858E+02  0.18343577108E+03  0.19448746558E+03  0.41800000000E+01 0.  1.
        -11    1    4    4    0    0  0.15294214086E+02 -0.89410494594E+01 -0.54200686233E+02  0.57022537107E+02  0.00000000000E+00 0.  1.
         11    1    4    4    0    0  0.60179666160E+02 -0.10925695049E+02  0.28228419010E+02  0.67363244215E+02  0.00000000000E+00 0. -1.
</event>
<event>
 8    1  0.6689467E-009  0.1339258E+03  0.7561462E-02  0.1221744E+00
          2   -1    0    0  501    0  0.00000000000E+00  0.00000000000E+00  0.68050387222E+03  0.68050387222E+03  0.00000000000E+00 0. -1.
         -2   -1    0    0    0  501 -0.00000000000E+00 -0.00000000000E+00 -0.48937082080E+02  0.48937082080E+02  0.00000000000E+00 0.  1.
         25    2    1    2    0    0 -0.20162823565E+00 -0.10856597643E+03  0.13683763857E+03  0.21483517579E+03  0.12507198541E+03 0.  0.
         23    2    1    2    0    0  0.20162823565E+00  0.10856597643E+03  0.49472915157E+03  0.51460577851E+03  0.90970115806E+02 0.  0.
          5    1    3    3  502    0 -0.30520909739E+02 -0.14860550722E+02  0.10625331668E+03  0.11162258555E+03  0.41800000000E+01 0.  1.
         -5    1    3    3    0  502  0.30319281504E+02 -0.93705425710E+02  0.30584321886E+02  0.10321259024E+03  0.41800000000E+01 0.  1.
        -11    1    4    4    0    0  0.38802653584E+02  0.36263690775E+02  0.27514375952E+03  0.28022274996E+03  0.00000000000E+00 0. -1.
         11    1    4    4    0    0 -0.38601025348E+02  0.72302285656E+02  0.21958539205E+03  0.23438302855E+03  0.00000000000E+00 0.  1.
</event>
<event>
 8    1  0.6689467E-009  0.1512995E+03  0.7561462E-02  0.1198885E+00
          4   -1    0    0  501    0  0.00000000000E+00  0.00000000000E+00  0.78836748886E+03  0.78836748886E+03  0.00000000000E+00 0. -1.
         -4   -1    0    0    0  501 -0.00000000000E+00 -0.00000000000E+00 -0.36051546028E+02  0.36051546028E+02  0.00000000000E+00 0.  1.
         25    2    1    2    0    0 -0.51446328277E+02 -0.10173584994E+03  0.26371118213E+03  0.31334936752E+03  0.12508929087E+03 0.  0.
         23    2    1    2    0    0  0.51446328277E+02  0.10173584994E+03  0.48860476071E+03  0.51106966737E+03  0.97266051959E+02 0.  0.
          5    1    3    3  502    0 -0.16296601642E+02  0.29035007889E+02  0.58810642137E+02  0.67710966148E+02  0.41800000000E+01 0.  1.
         -5    1    3    3    0  502 -0.35149726635E+02 -0.13077085783E+03  0.20490053999E+03  0.24563840137E+03  0.41800000000E+01 0.  1.
        -11    1    4    4    0    0  0.67824444461E+02  0.67890069544E+02  0.43583135633E+03  0.44627142858E+03  0.00000000000E+00 0. -1.
         11    1    4    4    0    0 -0.16378116183E+02  0.33845780397E+02  0.52773404379E+02  0.64798238789E+02  0.00000000000E+00 0.  1.
</event>
<event>
 8    1  0.6689467E-009  0.1261428E+03  0.7561462E-02  0.1233294E+00
         -1   -1    0    0    0  501 -0.00000000000E+00  0.00000000000E+00  0.21409337737E+02  0.21409337737E+02  0.00000000000E+00 0.  1.
          1   -1    0    0  501    0  0.00000000000E+00 -0.00000000000E+00 -0.88945418849E+03  0.88945418849E+03  0.00000000000E+00 0. -1.
         25    2    1    2    0    0  0.22078456987E+02  0.72265582737E+02 -0.35927051540E+03  0.38785493369E+03  0.12508546535E+03 0.  0.
         23    2    1    2    0    0 -0.22078456987E+02 -0.72265582737E+02 -0.50877433535E+03  0.52300859254E+03  0.94746455562E+02 0.  0.
          5    1    3    3  502    0 -0.42395183435E+02  0.42617834112E+02 -0.82888112367E+02  0.10247703613E+03  0.41800000000E+01 0. -1.
         -5    1    3    3    0  502  0.64473640422E+02  0.29647748624E+02 -0.27638240304E+03  0.28537789756E+03  0.41800000000E+01 0. -1.
        -11    1    4    4    0    0  0.27390898838E+01 -0.90250016768E+02 -0.36476677166E+03  0.37577568555E+03  0.00000000000E+00 0.  1.
         11    1    4    4    0    0 -0.24817546871E+02  0.17984434031E+02 -0.14400756369E+03  0.14723290699E+03  0.00000000000E+00 0. -1.
</event>
<event>
 8    1  0.6689467E-009  0.6838657E+02  0.7561462E-02  0.1365667E+00
         -3   -1    0    0    0  501 -0.00000000000E+00  0.00000000000E+00  0.79408481514E+02  0.79408481514E+02  0.00000000000E+00 0.  1.
          3   -1    0    0  501    0  0.00000000000E+00 -0.00000000000E+00 -0.14854598557E+03  0.14854598557E+03  0.00000000000E+00 0. -1.
         25    2    1    2    0    0 -0.12418176276E+02  0.31022483695E+01 -0.32735381725E+02  0.12993638248E+03  0.12509205902E+03 0.  0.
         23    2    1    2    0    0  0.12418176276E+02 -0.31022483695E+01 -0.36402122332E+02  0.98018084601E+02  0.90103248286E+02 0.  0.
          5    1    3    3  502    0 -0.42358791041E+02  0.24484258103E+02 -0.64559132906E+02  0.81111652152E+02  0.41800000000E+01 0. -1.
         -5    1    3    3    0  502  0.29940614765E+02 -0.21382009733E+02  0.31823751181E+02  0.48824730332E+02  0.41800000000E+01 0. -1.
        -11    1    4    4    0    0 -0.18931268813E+02 -0.36808856473E+01  0.23503332856E+02  0.30403100391E+02  0.00000000000E+00 0.  1.
         11    1    4    4    0    0  0.31349445089E+02  0.57863727775E+00 -0.59905455188E+02  0.67614984210E+02  0.00000000000E+00 0. -1.
</event>
<event>
 8    1  0.6689467E-009  0.2356174E+03  0.7561462E-02  0.1122747E+00
         -1   -1    0    0    0  501 -0.00000000000E+00  0.00000000000E+00  0.22629435788E+03  0.22629435788E+03  0.00000000000E+00 0.  1.
          1   -1    0    0  501    0  0.00000000000E+00 -0.00000000000E+00 -0.29814455950E+03  0.29814455950E+03  0.00000000000E+00 0. -1.
         25    2    1    2    0    0 -0.20162684013E+03  0.70789190165E+02 -0.13743947236E+03  0.28319911916E+03  0.12509052892E+03 0.  0.
         23    2    1    2    0    0  0.20162684013E+03 -0.70789190165E+02  0.65589270739E+02  0.24123979822E+03  0.90720426059E+02 0.  0.
          5    1    3    3  502    0  0.99230088392E+01  0.28233341619E+02 -0.28063410259E+02  0.41238514507E+02  0.41800000000E+01 0. -1.
         -5    1    3    3    0  502 -0.21154984897E+03  0.42555848546E+02 -0.10937606210E+03  0.24196060465E+03  0.41800000000E+01 0. -1.
        -11    1    4    4    0    0  0.11057688759E+03 -0.11865475854E+01  0.61558297437E+02  0.12656255350E+03  0.00000000000E+00 0.  1.
         11    1    4    4    0    0  0.91049952538E+02 -0.69602642580E+02  0.40309733017E+01  0.11467724472E+03  0.00000000000E+00 0. -1.
</event>
<event>
 8    1  0.6689467E-009  0.1070599E+03  0.7561462E-02  0.1266113E+00
          2   -1    0    0  501    0  0.00000000000E+00  0.00000000000E+00  0.24029739771E+03  0.24029739771E+03  0.00000000000E+00 0. -1.
         -2   -1    0    0    0  501 -0.00000000000E+00 -0.00000000000E+00 -0.91442266304E+02  0.91442266304E+02  0.00000000000E+00 0.  1.
         25    2    1    2    0    0 -0.17341489452E+02 -0.43114101819E+02  0.18781676038E+03  0.23039556596E+03  0.12508968105E+03 0.  0.
         23    2    1    2    0    0  0.17341489452E+02  0.43114101819E+02 -0.38961628976E+02  0.10134409805E+03  0.81197688664E+02 0.  0.
          5    1    3    3  502    0 -0.36967680591E+02 -0.77517113924E+02  0.16056323980E+03  0.18213604458E+03  0.41800000000E+01 0.  1.
         -5    1    3    3    0  502  0.19626191138E+02  0.34403012106E+02  0.27253520582E+02  0.48259521388E+02  0.41800000000E+01 0.  1.
        -11    1    4    4    0    0  0.44852264545E+02  0.40916596420E+02 -0.10343328597E+02  0.61586345434E+02  0.00000000000E+00 0. -1.
         11    1    4    4    0    0 -0.27510775093E+02  0.21975053984E+01 -0.28618300379E+02  0.39757752612E+02  0.00000000000E+00 0.  1.
</event>
<event>
 8    1  0.6689467E-009  0.8297351E+02  0.7561462E-02  0.1320819E+00
         -2   -1    0    0    0  501 -0.00000000000E+00  0.00000000000E+00  0.30878742695E+02  0.30878742695E+02  0.00000000000E+00 0.  1.
          2   -1    0    0  501    0  0.00000000000E+00 -0.00000000000E+00 -0.52272774382E+03  0.52272774382E+03  0.00000000000E+00 0. -1.
         25    2    1    2    0    0  0.54509727939E+02  0.26709718230E+02 -0.30351686302E+03  0.33384744044E+03  0.12508760075E+03 0.  0.
         23    2    1    2    0    0 -0.54509727939E+02 -0.26709718230E+02 -0.18833213810E+03  0.21975904607E+03  0.95605044859E+02 0.  0.
          5    1    3    3  502    0  0.21059747868E+02  0.52680194293E+02 -0.46904721553E+02  0.73730869756E+02  0.41800000000E+01 0.  1.
         -5    1    3    3    0  502  0.33449980071E+02 -0.25970476063E+02 -0.25661214147E+03  0.26011657068E+03  0.41800000000E+01 0.  1.
        -11    1    4    4    0    0 -0.12339750699E+02  0.54325130881E+01  0.84812520001E+01  0.15928379744E+02  0.00000000000E+00 0.  1.
         11    1    4    4    0    0 -0.42169977240E+02 -0.32142231318E+02 -0.19681339010E+03  0.20383066633E+03  0.00000000000E+00 0. -1.
</event>
<event>
 8    1  0.6689467E-009  0.1387311E+03  0.7561462E-02  0.1215047E+00
         -2   -1    0    0    0  501 -0.00000000000E+00  0.00000000000E+00  0.85443903873E+02  0.85443903873E+02  0.00000000000E+00 0.  1.
          2   -1    0    0  501    0  0.00000000000E+00 -0.00000000000E+00 -0.51882060153E+03  0.51882060153E+03  0.00000000000E+00 0. -1.
         25    2    1    2    0    0 -0.64284256738E+02  0.97352867393E+02 -0.30709722220E+02  0.17379139943E+03  0.12510122710E+03 0.  0.
         23    2    1    2    0    0  0.64284256738E+02 -0.97352867393E+02 -0.40266697544E+03  0.43047310598E+03  0.97756613110E+02 0.  0.
          5    1    3    3  502    0 -0.38640535652E+01  0.63456261832E+02 -0.69498925680E+02  0.94282560138E+02  0.41800000000E+01 0. -1.
         -5    1    3    3    0  502 -0.60420203173E+02  0.33896605562E+02  0.38789203460E+02  0.79508839289E+02  0.41800000000E+01 0. -1.
        -11    1    4    4    0    0  0.81740654565E+02 -0.54958710894E+02 -0.20332961973E+03  0.22593124789E+03  0.00000000000E+00 0.  1.
         11    1    4    4    0    0 -0.17456397828E+02 -0.42394156499E+02 -0.19933735571E+03  0.20454185809E+03  0.00000000000E+00 0. -1.
</event>
<event>
 8    1  0.6689467E-009  0.1656791E+03  0.7561462E-02  0.1182430E+00
         -3   -1    0    0    0  501 -0.00000000000E+00  0.00000000000E+00  0.49205128220E+03  0.49205128220E+03  0.00000000000E+00 0.  1.
          3   -1    0    0  501    0  0.00000000000E+00 -0.00000000000E+00 -0.77048666886E+02  0.77048666886E+02  0.00000000000E+00 0. -1.
         25    2    1    2    0    0 -0.23524910146E+02  0.14604093903E+03  0.12553677399E+03  0.23084228360E+03  0.12508917221E+03 0.  0.
         23    2    1    2    0    0  0.23524910146E+02 -0.14604093903E+03  0.28946584132E+03  0.33825766548E+03  0.93522177555E+02 0.  0.
          5    1    3    3  502    0  0.17012995634E+02  0.13385453066E+03  0.49630156500E+02  0.14383011587E+03  0.41800000000E+01 0.  1.
         -5    1    3    3    0  502 -0.40537905781E+02  0.12186408373E+02  0.75906617490E+02  0.87012167729E+02  0.41800000000E+01 0.  1.
        -11    1    4    4    0    0  0.33247374641E+02 -0.73919071512E+02  0.23131443344E+03  0.24510361925E+03  0.00000000000E+00 0. -1.
         11    1    4    4    0    0 -0.97224644953E+01 -0.72121867519E+02  0.58151407888E+02  0.93154046233E+02  0.00000000000E+00 0.  1.
</event>
<event>
 8    1  0.6689467E-009  0.1254364E+03  0.7561462E-02  0.1234389E+00
         -1   -1    0    0    0  501 -0.00000000000E+00  0.00000000000E+00  0.25656793494E+03  0.25656793494E+03  0.00000000000E+00 0.  1.
          1   -1    0    0  501    0  0.00000000000E+00 -0.00000000000E+00 -0.80503464151E+02  0.80503464151E+02  0.00000000000E+00 0. -1.
         25    2    1    2    0    0 -0.87467035065E+02  0.24145602521E+02  0.68697076261E+02  0.16910764989E+03  0.12507844187E+03 0.  0.
         23    2    1    2    0    0  0.87467035065E+02 -0.24145602521E+02  0.10736739453E+03  0.16796374920E+03  0.91926988928E+02 0.  0.
          5    1    3    3  502    0  0.29598053976E+02  0.11972449091E+02  0.32856174072E+02  0.46004183625E+02  0.41800000000E+01 0.  1.
         -5    1    3    3    0  502 -0.11706508904E+03  0.12173153430E+02  0.35840902189E+02  0.12310346626E+03  0.41800000000E+01 0.  1.
        -11    1    4    4    0    0  0.39544278197E+02  0.11492537584E+02  0.99551774839E+02  0.10773293012E+03  0.00000000000E+00 0.  1.
         11    1    4    4    0    0  0.47922756868E+02 -0.35638140105E+02  0.78156196865E+01  0.60230819080E+02  0.00000000000E+00 0. -1.
</event>
<event>
 8    1  0.6689467E-009  0.1007362E+03  0.7561462E-02  0.1278755E+00
          2   -1    0    0  501    0  0.00000000000E+00  0.00000000000E+00  0.29757489782E+03  0.29757489782E+03  0.00000000000E+00 0. -1.
         -2   -1    0    0    0  501 -0.00000000000E+00 -0.00000000000E+00 -0.47102321888E+02  0.47102321888E+02  0.00000000000E+00 0.  1.
         25    2    1    2    0    0 -0.37045672298E+02 -0.10384356705E+02  0.96919115431E+02  0.16285247707E+03  0.12508955852E+03 0.  0.
         23    2    1    2    0    0  0.37045672298E+02  0.10384356705E+02  0.15355346050E+03  0.18182474264E+03  0.89450294045E+02 0.  0.
          5    1    3    3  502    0 -0.17003654100E+02  0.43279263195E+02 -0.38691829613E+01  0.46847218191E+02  0.41800000000E+01 0.  1.
         -5    1    3    3    0  502 -0.20042018199E+02 -0.53663619899E+02  0.10078829839E+03  0.11600525888E+03  0.41800000000E+01 0.  1.
        -11    1    4    4    0    0 -0.27964129220E+02  0.15790823009E+02  0.52591320186E+02  0.61621340243E+02  0.00000000000E+00 0. -1.
         11    1    4    4    0    0  0.65009801519E+02 -0.54064663048E+01  0.10096214031E+03  0.12020340240E+03  0.00000000000E+00 0.  1.
</event>
<event>
 8    1  0.6689467E-009  0.1151257E+03  0.7561462E-02  0.1251362E+00
         -1   -1    0    0    0  501 -0.00000000000E+00  0.00000000000E+00  0.12075250832E+03  0.12075250832E+03  0.00000000000E+00 0.  1.
          1   -1    0    0  501    0  0.00000000000E+00 -0.00000000000E+00 -0.25289051796E+03  0.25289051796E+03  0.00000000000E+00 0. -1.
         25    2    1    2    0    0  0.56682563848E+02  0.31412472612E+02 -0.19912861651E+03  0.24392460943E+03  0.12508937882E+03 0.  0.
         23    2    1    2    0    0 -0.56682563848E+02 -0.31412472612E+02  0.66990606867E+02  0.12971841686E+03  0.90219010102E+02 0.  0.
          5    1    3    3  502    0  0.31687980426E+02 -0.35534807149E+02 -0.21486681277E+02  0.52402294749E+02  0.41800000000E+01 0.  1.
         -5    1    3    3    0  502  0.24994583421E+02  0.66947279761E+02 -0.17764193523E+03  0.19152231468E+03  0.41800000000E+01 0.  1.
        -11    1    4    4    0    0  0.43289032440E+01 -0.47563991986E+02  0.32802711032E+02  0.57940405487E+02  0.00000000000E+00 0.  1.
         11    1    4    4    0    0 -0.61011467092E+02  0.16151519374E+02  0.34187895835E+02  0.71778011371E+02  0.00000000000E+00 0. -1.
</event>
<event>
 8    1  0.6689467E-009  0.1528834E+03  0.7561462E-02  0.1196974E+00
         -3   -1    0    0    0  501 -0.00000000000E+00  0.00000000000E+00  0.83964999072E+02  0.83964999072E+02  0.00000000000E+00 0.  1.
          3   -1    0    0  501    0  0.00000000000E+00 -0.00000000000E+00 -0.43948011451E+03  0.43948011451E+03  0.00000000000E+00 0. -1.
         25    2    1    2    0    0  0.93345021441E+02 -0.65394503253E+02 -0.33508240162E+03  0.37538954434E+03  0.12508940819E+03 0.  0.
         23    2    1    2    0    0 -0.93345021441E+02  0.65394503253E+02 -0.20432713818E+02  0.14805556924E+03  0.92267121482E+02 0.  0.
          5    1    3    3  502    0  0.50176238240E+02  0.29455620120E+02 -0.17375224574E+03  0.18328285174E+03  0.41800000000E+01 0.  1.
         -5    1    3    3    0  502  0.43168783201E+02 -0.94850123373E+02 -0.16133015588E+03  0.19210669260E+03  0.41800000000E+01 0.  1.
        -11    1    4    4    0    0 -0.78944756846E+02  0.28914679575E+01 -0.27222916807E+02  0.83556701826E+02  0.00000000000E+00 0. -1.
         11    1    4    4    0    0 -0.14400264594E+02  0.62503035296E+02  0.67902029889E+01  0.64498867418E+02  0.00000000000E+00 0.  1.
</event>
<event>
 8    1  0.6689467E-009  0.2832613E+03  0.7561462E-02  0.1093921E+00
         -2   -1    0    0    0  501 -0.00000000000E+00  0.00000000000E+00  0.16377537293E+03  0.16377537293E+03  0.00000000000E+00 0.  1.
          2   -1    0    0  501    0  0.00000000000E+00 -0.00000000000E+00 -0.56652383524E+03  0.56652383524E+03  0.00000000000E+00 0. -1.
         25    2    1    2    0    0  0.23666636254E+03  0.12267736663E+03 -0.86877349160E+02  0.30701467425E+03  0.12509849306E+03 0.  0.
         23    2    1    2    0    0 -0.23666636254E+03 -0.12267736663E+03 -0.31587111315E+03  0.42328453392E+03  0.91293664028E+02 0.  0.
          5    1    3    3  502    0 -0.14925414024E+02  0.65668215803E+01 -0.93268265320E+01  0.19244563456E+02  0.41800000000E+01 0. -1.
         -5    1    3    3    0  502  0.25159177656E+03  0.11611054505E+03 -0.77550522628E+02  0.28777011080E+03  0.41800000000E+01 0. -1.
        -11    1    4    4    0    0 -0.12160489187E+03 -0.94758501871E+02 -0.12410358372E+03  0.19791064372E+03  0.00000000000E+00 0.  1.
         11    1    4    4    0    0 -0.11506147067E+03 -0.27918864760E+02 -0.19176752943E+03  0.22537389021E+03  0.00000000000E+00 0. -1.
</event>
<event>
 8    1  0.6689467E-009  0.1135329E+03  0.7561462E-02  0.1254164E+00
          1   -1    0    0  501    0  0.00000000000E+00  0.00000000000E+00  0.60452301209E+03  0.60452301209E+03  0.00000000000E+00 0. -1.
         -1   -1    0    0    0  501 -0.00000000000E+00 -0.00000000000E+00 -0.31365989691E+02  0.31365989691E+02  0.00000000000E+00 0.  1.
         25    2    1    2    0    0 -0.43649447400E+02  0.70839706009E+01  0.14562939407E+03  0.19700361907E+03  0.12508816335E+03 0.  0.
         23    2    1    2    0    0  0.43649447400E+02 -0.70839706009E+01  0.42752762832E+03  0.43888538271E+03  0.88797799953E+02 0.  0.
          5    1    3    3  502    0 -0.48928951492E+01 -0.56158121278E+02  0.79481152947E+02  0.97531538910E+02  0.41800000000E+01 0. -1.
         -5    1    3    3    0  502 -0.38756552251E+02  0.63242091879E+02  0.66148241127E+02  0.99472080162E+02  0.41800000000E+01 0. -1.
        -11    1    4    4    0    0  0.12472608029E+02 -0.45267684378E+02  0.26197203066E+03  0.26614671527E+03  0.00000000000E+00 0. -1.
         11    1    4    4    0    0  0.31176839370E+02  0.38183713777E+02  0.16555559767E+03  0.17273866744E+03  0.00000000000E+00 0.  1.
</event>
<event>
 8    1  0.6689467E-009  0.1398538E+03  0.7561462E-02  0.1213526E+00
          1   -1    0    0  501    0  0.00000000000E+00  0.00000000000E+00  0.95087038910E+03  0.95087038910E+03  0.00000000000E+00 0. -1.
         -1   -1    0    0    0  501 -0.00000000000E+00 -0.00000000000E+00 -0.32520628038E+02  0.32520628038E+02  0.00000000000E+00 0.  1.
         25    2    1    2    0    0 -0.88882541694E+02  0.16490541645E+02  0.77627251161E+03  0.79146598387E+03  0.12508935672E+03 0.  0.
         23    2    1    2    0    0  0.88882541694E+02 -0.16490541645E+02  0.14207724946E+03  0.19192503327E+03  0.92071870843E+02 0.  0.
          5    1    3    3  502    0 -0.11666045535E+03  0.32435495149E+02  0.64477772371E+03  0.65606212250E+03  0.41800000000E+01 0. -1.
         -5    1    3    3    0  502  0.27777913658E+02 -0.15944953504E+02  0.13149478790E+03  0.13540386137E+03  0.41800000000E+01 0. -1.
        -11    1    4    4    0    0  0.21091507273E+02  0.35175561681E+02  0.65839648557E+02  0.77569524561E+02  0.00000000000E+00 0.  1.
         11    1    4    4    0    0  0.67791034422E+02 -0.51666103326E+02  0.76237600900E+02  0.11435550871E+03  0.00000000000E+00 0. -1.
</event>
<event>
 8    1  0.6689467E-009  0.1558955E+03  0.7561462E-02  0.1193410E+00
          2   -1    0    0  501    0  0.00000000000E+00  0.00000000000E+00  0.44758825113E+03  0.44758825113E+03  0.00000000000E+00 0.  1.
         -2   -1    0    0    0  501 -0.00000000000E+00 -0.00000000000E+00 -0.88926586069E+02  0.88926586069E+02  0.00000000000E+00 0. -1.
         25    2    1    2    0    0  0.85802488390E+02  0.67449381072E+02  0.20776460272E+02  0.16729619788E+03  0.12507945676E+03 0.  0.
         23    2    1    2    0    0 -0.85802488390E+02 -0.67449381072E+02  0.33788520479E+03  0.36921863932E+03  0.10121514702E+03 0.  0.
          5    1    3    3  502    0  0.54750200679E+02  0.10356160352E+03  0.64915875297E+01  0.11739762905E+03  0.41800000000E+01 0.  1.
         -5    1    3    3    0  502  0.31052287711E+02 -0.36112222446E+02  0.14284872742E+02  0.49898568830E+02  0.41800000000E+01 0.  1.
        -11    1    4    4    0    0  0.11665614556E+02 -0.45342532345E+02  0.13826180876E+03  0.14597383178E+03  0.00000000000E+00 0.  1.
         11    1    4    4    0    0 -0.97468102946E+02 -0.22106848727E+02  0.19962339603E+03  0.22324480755E+03  0.00000000000E+00 0. -1.
</event>
<event>
 8    1  0.6689467E-009  0.9040104E+02  0.7561462E-02  0.1301883E+00
         -3   -1    0    0    0  501 -0.00000000000E+00  0.00000000000E+00  0.54224991225E+02  0.54224991225E+02  0.00000000000E+00 0.  1.
          3   -1    0    0  501    0  0.00000000000E+00 -0.00000000000E+00 -0.26697185992E+03  0.26697185992E+03  0.00000000000E+00 0. -1.
         25    2    1    2    0    0 -0.35655360228E+02 -0.34440151638E+02 -0.13906027254E+03  0.19350183902E+03  0.12509106102E+03 0.  0.
         23    2    1    2    0    0  0.35655360228E+02  0.34440151638E+02 -0.73686596150E+02  0.12769501212E+03  0.91754416297E+02 0.  0.
          5    1    3    3  502    0  0.62159822918E+01 -0.55057665604E+02 -0.13556756853E+03  0.14651287662E+03  0.41800000000E+01 0.  1.
         -5    1    3    3    0  502 -0.41871342520E+02  0.20617513965E+02 -0.34927040111E+01  0.46988962405E+02  0.41800000000E+01 0.  1.
        -11    1    4    4    0    0 -0.17083772027E+02  0.42311877644E+01 -0.63718805378E+02  0.66104798430E+02  0.00000000000E+00 0. -1.
         11    1    4    4    0    0  0.52739132256E+02  0.30208963874E+02 -0.99677907717E+01  0.61590213689E+02  0.00000000000E+00 0.  1.
</event>
<event>
 8    1  0.6689467E-009  0.1515466E+03  0.7561462E-02  0.1198585E+00
         -1   -1    0    0    0  501 -0.00000000000E+00  0.00000000000E+00  0.12592262359E+03  0.12592262359E+03  0.00000000000E+00 0.  1.
          1   -1    0    0  501    0  0.00000000000E+00 -0.00000000000E+00 -0.27460118171E+03  0.27460118171E+03  0.00000000000E+00 0. -1.
         25    2    1    2    0    0  0.34181118557E+01  0.15102885587E+03 -0.80612989741E+02  0.21205562598E+03  0.12509090935E+03 0.  0.
         23    2    1    2    0    0 -0.34181118557E+01 -0.15102885587E+03 -0.68065568379E+02  0.18846817932E+03  0.89810546282E+02 0.  0.
          5    1    3    3  502    0 -0.66642155943E+00  0.13309722207E+03 -0.40735614381E+01  0.13322680265E+03  0.41800000000E+01 0.  1.
         -5    1    3    3    0  502  0.40845334151E+01  0.17931633803E+02 -0.76539428303E+02  0.78828823339E+02  0.41800000000E+01 0.  1.
        -11    1    4    4    0    0 -0.32242480312E+00 -0.24194199889E+02  0.22139641298E+02  0.32796752626E+02  0.00000000000E+00 0.  1.
         11    1    4    4    0    0 -0.30956870526E+01 -0.12683465598E+03 -0.90205209677E+02  0.15567142670E+03  0.00000000000E+00 0. -1.
</event>
<event>
 8    1  0.6689467E-009  0.3251128E+03  0.7561462E-02  0.1073320E+00
         -2   -1    0    0    0  501 -0.00000000000E+00  0.00000000000E+00  0.83223227093E+02  0.83223227093E+02  0.00000000000E+00 0.  1.
          2   -1    0    0  501    0  0.00000000000E+00 -0.00000000000E+00 -0.13944576626E+04  0.13944576626E+04  0.00000000000E+00 0. -1.
         25    2    1    2    0    0 -0.17277388310E+03 -0.26632387940E+03 -0.54183954548E+03  0.64032772719E+03  0.12510108613E+03 0.  0.
         23    2    1    2    0    0  0.17277388310E+03  0.26632387940E+03 -0.76939488999E+03  0.83735316246E+03  0.91720218684E+02 0.  0.
          5    1    3    3  502    0 -0.48956747256E+02 -0.15713452680E+02 -0.15270667308E+03  0.16118460255E+03  0.41800000000E+01 0. -1.
         -5    1    3    3    0  502 -0.12381713584E+03 -0.25061042672E+03 -0.38913287239E+03  0.47914312464E+03  0.41800000000E+01 0.  1.
        -11    1    4    4    0    0  0.12440045201E+03  0.21609824847E+03 -0.49524977201E+03  0.55447836939E+03  0.00000000000E+00 0.  1.
         11    1    4    4    0    0  0.48373431083E+02  0.50225630935E+02 -0.27414511798E+03  0.28287479306E+03  0.00000000000E+00 0. -1.
</event>
<event>
 8    1  0.6689467E-009  0.1326140E+03  0.7561462E-02  0.1223628E+00
          2   -1    0    0  501    0  0.00000000000E+00  0.00000000000E+00  0.16420667610E+03  0.16420667610E+03  0.00000000000E+00 0. -1.
         -2   -1    0    0    0  501 -0.00000000000E+00 -0.00000000000E+00 -0.12072845288E+03  0.12072845288E+03  0.00000000000E+00 0.  1.
         25    2    1    2    0    0 -0.68561294014E+02  0.45534544344E+02  0.60118323477E+02  0.16135337784E+03  0.12508658584E+03 0.  0.
         23    2    1    2    0    0  0.68561294014E+02 -0.45534544344E+02 -0.16640100265E+02  0.12358175114E+03  0.90672545533E+02 0.  0.
          5    1    3    3  502    0  0.28393118669E+02 -0.10768459652E+02 -0.58434828807E+01  0.31204929149E+02  0.41800000000E+01 0. -1.
         -5    1    3    3    0  502 -0.96954412683E+02  0.56303003996E+02  0.65961806357E+02  0.13014844869E+03  0.41800000000E+01 0. -1.
        -11    1    4    4    0    0  0.23631194860E+02 -0.68113218196E+02 -0.76595919755E+01  0.72501815238E+02  0.00000000000E+00 0.  1.
         11    1    4    4    0    0  0.44930099155E+02  0.22578673853E+02 -0.89805082894E+01  0.51079935906E+02  0.00000000000E+00 0. -1.
</event>
<event>
 8    1  0.6689467E-009  0.1580820E+03  0.7561462E-02  0.1190879E+00
         -1   -1    0    0    0  501 -0.00000000000E+00  0.00000000000E+00  0.10870655865E+03  0.10870655865E+03  0.00000000000E+00 0.  1.
          1   -1    0    0  501    0  0.00000000000E+00 -0.00000000000E+00 -0.27157243409E+03  0.27157243409E+03  0.00000000000E+00 0. -1.
         25    2    1    2    0    0  0.86113673688E+02 -0.96980804696E+02 -0.55421738301E+02  0.18850528330E+03  0.12506730780E+03 0.  0.
         23    2    1    2    0    0 -0.86113673688E+02  0.96980804696E+02 -0.10744413713E+03  0.19177370944E+03  0.91717347066E+02 0.  0.
          5    1    3    3  502    0  0.11845641699E+03 -0.70973469863E+02 -0.47167391447E+02  0.14598421615E+03  0.41800000000E+01 0. -1.
         -5    1    3    3    0  502 -0.32342743301E+02 -0.26007334833E+02 -0.82543468532E+01  0.42521067147E+02  0.41800000000E+01 0. -1.
        -11    1    4    4    0    0 -0.42566613182E+02  0.18225043561E+02  0.63034810136E+01  0.46731174215E+02  0.00000000000E+00 0.  1.
         11    1    4    4    0    0 -0.43547060505E+02  0.78755761135E+02 -0.11374761815E+03  0.14504253522E+03  0.00000000000E+00 0. -1.
</event>
<event>
 8    1  0.6689467E-009  0.9873834E+02  0.7561462E-02  0.1282972E+00
         -2   -1    0    0    0  501 -0.00000000000E+00  0.00000000000E+00  0.73370240781E+02  0.73370240781E+02  0.00000000000E+00 0.  1.
          2   -1    0    0  501    0  0.00000000000E+00 -0.00000000000E+00 -0.26697423343E+03  0.26697423343E+03  0.00000000000E+00 0. -1.
         25    2    1    2    0    0  0.74010494454E+02  0.40616409738E+02 -0.13738172602E+03  0.20408034069E+03  0.12509116988E+03 0.  0.
         23    2    1    2    0    0 -0.74010494454E+02 -0.40616409738E+02 -0.56222266622E+02  0.13626413352E+03  0.90992993078E+02 0.  0.
          5    1    3    3  502    0  0.53737452356E+02  0.69277981929E+01 -0.15238874704E+03  0.16178847547E+03  0.41800000000E+01 0.  1.
         -5    1    3    3    0  502  0.20273042098E+02  0.33688611545E+02  0.15007021013E+02  0.42291865216E+02  0.41800000000E+01 0.  1.
        -11    1    4    4    0    0 -0.19294468647E+02 -0.44739437046E+02  0.10536611719E+02  0.49848911063E+02  0.00000000000E+00 0.  1.
         11    1    4    4    0    0 -0.54716025807E+02  0.41230273082E+01 -0.66758878341E+02  0.86415222453E+02  0.00000000000E+00 0. -1.
</event>
<event>
 8    1  0.6689467E-009  0.9382851E+02  0.7561462E-02  0.1293837E+00
         -2   -1    0    0    0  501 -0.00000000000E+00  0.00000000000E+00  0.18408491128E+03  0.18408491128E+03  0.00000000000E+00 0.  1.
          2   -1    0    0  501    0  0.00000000000E+00 -0.00000000000E+00 -0.84739620731E+02  0.84739620731E+02  0.00000000000E+00 0. -1.
         25    2    1    2    0    0  0.50836105785E+02  0.24826056087E+02  0.23719581300E+02  0.13932445441E+03  0.12509213544E+03 0.  0.
         23    2    1    2    0    0 -0.50836105785E+02 -0.24826056087E+02  0.75625709246E+02  0.12950007759E+03  0.88602367269E+02 0.  0.
          5    1    3    3  502    0  0.46649289779E+02 -0.24138959522E+02  0.58683511683E+02  0.78867436545E+02  0.41800000000E+01 0. -1.
         -5    1    3    3    0  502  0.41868160055E+01  0.48965015609E+02 -0.34963930383E+02  0.60457017869E+02  0.41800000000E+01 0. -1.
        -11    1    4    4    0    0 -0.63854803247E+02 -0.79750237701E+01  0.84683525720E+02  0.10635946799E+03  0.00000000000E+00 0.  1.
         11    1    4    4    0    0  0.13018697462E+02 -0.16851032317E+02 -0.90578164741E+01  0.23140609608E+02  0.00000000000E+00 0. -1.
</event>
<event>
 8    1  0.6689467E-009  0.2994393E+03  0.7561462E-02  0.1085521E+00
          1   -1    0    0  501    0  0.00000000000E+00  0.00000000000E+00  0.11335492796E+04  0.11335492796E+04  0.00000000000E+00 0. -1.
         -1   -1    0    0    0  501 -0.00000000000E+00 -0.00000000000E+00 -0.19553051014E+03  0.19553051014E+03  0.00000000000E+00 0.  1.
         25    2    1    2    0    0 -0.10193105228E+03  0.27368904956E+03 -0.24961037770E+02  0.31869476999E+03  0.12509063814E+03 0.  0.
         23    2    1    2    0    0  0.10193105228E+03 -0.27368904956E+03  0.96297980723E+03  0.10103850197E+04  0.90841310657E+02 0.  0.
          5    1    3    3  502    0 -0.87740865700E+01  0.13517339197E+02 -0.38540810671E+02  0.41982967276E+02  0.41800000000E+01 0. -1.
         -5    1    3    3    0  502 -0.93156965706E+02  0.26017171036E+03  0.13579772901E+02  0.27671180272E+03  0.41800000000E+01 0. -1.
        -11    1    4    4    0    0  0.58896500849E+02 -0.47666353748E+02  0.23629930963E+03  0.24814963797E+03  0.00000000000E+00 0.  1.
         11    1    4    4    0    0  0.43034551427E+02 -0.22602269581E+03  0.72668049760E+03  0.76223538177E+03  0.00000000000E+00 0. -1.
</event>
<event>
 8    1  0.6689467E-009  0.9534031E+02  0.7561462E-02  0.1290411E+00
         -1   -1    0    0    0  501 -0.00000000000E+00  0.00000000000E+00  0.20398512935E+03  0.20398512935E+03  0.00000000000E+00 0.  1.
          1   -1    0    0  501    0  0.00000000000E+00 -0.00000000000E+00 -0.95275105336E+02  0.95275105336E+02  0.00000000000E+00 0. -1.
         25    2    1    2    0    0  0.81623654161E+01 -0.20565732118E+02  0.15257335738E+03  0.19853215856E+03  0.12508722978E+03 0.  0.
         23    2    1    2    0    0 -0.81623654161E+01  0.20565732118E+02 -0.43863333361E+02  0.10072807613E+03  0.87935088335E+02 0.  0.
          5    1    3    3  502    0  0.40726363058E+02 -0.45466074879E+02  0.27933047897E+02  0.67257179376E+02  0.41800000000E+01 0.  1.
         -5    1    3    3    0  502 -0.32563997642E+02  0.24900342761E+02  0.12464030948E+03  0.13127497918E+03  0.41800000000E+01 0.  1.
        -11    1    4    4    0    0 -0.34837393308E+02 -0.19678086013E+02 -0.85600067517E+01  0.40916314072E+02  0.00000000000E+00 0. -1.
         11    1    4    4    0    0  0.26675027892E+02  0.40243818131E+02 -0.35303326609E+02  0.59811762058E+02  0.00000000000E+00 0.  1.
</event>
<event>
 8    1  0.6689467E-009  0.1660967E+03  0.7561462E-02  0.1181981E+00
         -1   -1    0    0    0  501 -0.00000000000E+00  0.00000000000E+00  0.10712763660E+03  0.10712763660E+03  0.00000000000E+00 0.  1.
          1   -1    0    0  501    0  0.00000000000E+00 -0.00000000000E+00 -0.33457546405E+03  0.33457546405E+03  0.00000000000E+00 0. -1.
         25    2    1    2    0    0 -0.96224723666E+02 -0.11809971615E+03 -0.15015515478E+03  0.24779059220E+03  0.12508743613E+03 0.  0.
         23    2    1    2    0    0  0.96224723666E+02  0.11809971615E+03 -0.77292672670E+02  0.19391250845E+03  0.91766896448E+02 0.  0.
          5    1    3    3  502    0 -0.59296348557E+01 -0.19871662575E+02 -0.10463694808E+03  0.10675395471E+03  0.41800000000E+01 0. -1.
         -5    1    3    3    0  502 -0.90295088810E+02 -0.98228053575E+02 -0.45518206696E+02  0.14103663749E+03  0.41800000000E+01 0. -1.
        -11    1    4    4    0    0 -0.72509704825E+01 -0.10330037736E+02 -0.27313934078E+01  0.12913046214E+02  0.00000000000E+00 0.  1.
         11    1    4    4    0    0  0.10347569415E+03  0.12842975389E+03 -0.74561279262E+02  0.18099946223E+03  0.00000000000E+00 0. -1.
</event>
<event>
 8    1  0.6689467E-009  0.1026072E+03  0.7561462E-02  0.1274907E+00
         -1   -1    0    0    0  501 -0.00000000000E+00  0.00000000000E+00  0.11531479502E+03  0.11531479502E+03  0.00000000000E+00 0.  1.
          1   -1    0    0  501    0  0.00000000000E+00 -0.00000000000E+00 -0.14147222917E+03  0.14147222917E+03  0.00000000000E+00 0. -1.
         25    2    1    2    0    0 -0.24862575670E+02  0.10557742665E+02  0.46653868003E+02  0.13621139580E+03  0.12508935745E+03 0.  0.
         23    2    1    2    0    0  0.24862575670E+02 -0.10557742665E+02 -0.72811302151E+02  0.12057562839E+03  0.92235474956E+02 0.  0.
          5    1    3    3  502    0  0.42719336155E+02  0.19982073430E+01 -0.13702661652E+02  0.45101772143E+02  0.41800000000E+01 0.  1.
         -5    1    3    3    0  502 -0.67581911825E+02  0.85595353223E+01  0.60356529655E+02  0.91109623656E+02  0.41800000000E+01 0.  1.
        -11    1    4    4    0    0  0.17258314839E+02 -0.50483118279E+02 -0.53580109995E+02  0.75612319428E+02  0.00000000000E+00 0.  1.
         11    1    4    4    0    0  0.76042608306E+01  0.39925375613E+02 -0.19231192156E+02  0.44963308957E+02  0.00000000000E+00 0. -1.
</event>
<event>
 8    1  0.6689467E-009  0.1051369E+03  0.7561462E-02  0.1269850E+00
          1   -1    0    0  501    0  0.00000000000E+00  0.00000000000E+00  0.28756021395E+02  0.28756021395E+02  0.00000000000E+00 0. -1.
         -1   -1    0    0    0  501 -0.00000000000E+00 -0.00000000000E+00 -0.93086798020E+03  0.93086798020E+03  0.00000000000E+00 0.  1.
         25    2    1    2    0    0 -0.98896585467E+02 -0.17802813786E+02 -0.68299064743E+03  0.70158510305E+03  0.12509179650E+03 0.  0.
         23    2    1    2    0    0  0.98896585467E+02  0.17802813786E+02 -0.21912131138E+03  0.25803889854E+03  0.92045908472E+02 0.  0.
          5    1    3    3  502    0 -0.15402236321E+02 -0.15302119523E+02 -0.11530325280E+02  0.24936009036E+02  0.41800000000E+01 0.  1.
         -5    1    3    3    0  502 -0.83494349147E+02 -0.25006942631E+01 -0.67146032215E+03  0.67664909402E+03  0.41800000000E+01 0.  1.
        -11    1    4    4    0    0  0.53416018268E+02  0.24121833485E+02 -0.19980512519E+03  0.20822397054E+03  0.00000000000E+00 0.  1.
         11    1    4    4    0    0  0.45480567200E+02 -0.63190196981E+01 -0.19316186191E+02  0.49814928000E+02  0.00000000000E+00 0. -1.
</event>
<event>
 8    1  0.6689467E-009  0.1124670E+03  0.7561462E-02  0.1256068E+00
         -2   -1    0    0    0  501 -0.00000000000E+00  0.00000000000E+00  0.42979788485E+02  0.42979788485E+02  0.00000000000E+00 0.  1.
          2   -1    0    0  501    0  0.00000000000E+00 -0.00000000000E+00 -0.34874875163E+03  0.34874875163E+03  0.00000000000E+00 0. -1.
         25    2    1    2    0    0  0.45491685025E+02 -0.44199236946E+01 -0.22418978105E+03  0.26076261476E+03  0.12508818568E+03 0.  0.
         23    2    1    2    0    0 -0.45491685025E+02  0.44199236946E+01 -0.81579182092E+02  0.13096592536E+03  0.91694501043E+02 0.  0.
          5    1    3    3  502    0 -0.21668554432E+02  0.41381033848E+02 -0.11790014268E+03  0.12688511441E+03  0.41800000000E+01 0.  1.
         -5    1    3    3    0  502  0.67160239457E+02 -0.45800957543E+02 -0.10628963837E+03  0.13387750035E+03  0.41800000000E+01 0.  1.
        -11    1    4    4    0    0 -0.67930613290E+02  0.18173275554E+02 -0.37671179344E+02  0.79774393883E+02  0.00000000000E+00 0.  1.
         11    1    4    4    0    0  0.22438928265E+02 -0.13753351860E+02 -0.43908002749E+02  0.51191531472E+02  0.00000000000E+00 0. -1.
</event>
<event>
 8    1  0.6689467E-009  0.1241914E+03  0.7561462E-02  0.1236338E+00
          3   -1    0    0  501    0  0.00000000000E+00  0.00000000000E+00  0.11062536087E+03  0.11062536087E+03  0.00000000000E+00 0. -1.
         -3   -1    0    0    0  501 -0.00000000000E+00 -0.00000000000E+00 -0.19852046363E+03  0.19852046363E+03  0.00000000000E+00 0.  1.
         25    2    1    2    0    0  0.68424713682E+02 -0.31245136333E+02 -0.11631186988E+03  0.18663894490E+03  0.12508974655E+03 0.  0.
         23    2    1    2    0    0 -0.68424713682E+02  0.31245136333E+02  0.28416767131E+02  0.12250687960E+03  0.92424146779E+02 0.  0.
          5    1    3    3  502    0  0.44660642358E+00 -0.57193356021E+02 -0.94541012729E+02  0.11057465767E+03  0.41800000000E+01 0. -1.
         -5    1    3    3    0  502  0.67978107259E+02  0.25948219688E+02 -0.21770857155E+02  0.76064287236E+02  0.41800000000E+01 0. -1.
        -11    1    4    4    0    0 -0.74854965419E+02  0.55419829888E+02  0.28799626612E+02  0.97488675680E+02  0.00000000000E+00 0.  1.
         11    1    4    4    0    0  0.64302517371E+01 -0.24174693556E+02 -0.38285948078E+00  0.25018203918E+02  0.00000000000E+00 0. -1.
</event>
<event>
 8    1  0.6689467E-009  0.9989453E+02  0.7561462E-02  0.1280518E+00
          1   -1    0    0  501    0  0.00000000000E+00  0.00000000000E+00  0.30397238175E+03  0.30397238175E+03  0.00000000000E+00 0. -1.
         -1   -1    0    0    0  501 -0.00000000000E+00 -0.00000000000E+00 -0.59241577403E+02  0.59241577403E+02  0.00000000000E+00 0.  1.
         25    2    1    2    0    0  0.38824934069E+02 -0.15033030987E+02  0.22359116920E+03  0.25957033529E+03  0.12510148078E+03 0.  0.
         23    2    1    2    0    0 -0.38824934069E+02  0.15033030987E+02  0.21139635153E+02  0.10364362387E+03  0.92529719915E+02 0.  0.
          5    1    3    3  502    0  0.29144846206E+02 -0.52119908965E+02  0.40050955189E+02  0.72024012540E+02  0.41800000000E+01 0.  1.
         -5    1    3    3    0  502  0.96800878634E+01  0.37086877978E+02  0.18354021401E+03  0.18754632275E+03  0.41800000000E+01 0.  1.
        -11    1    4    4    0    0  0.30247398755E+02  0.10984609932E+02  0.87917108949E+01  0.33359570850E+02  0.00000000000E+00 0. -1.
         11    1    4    4    0    0 -0.69072332824E+02  0.40484210551E+01  0.12347924258E+02  0.70284053016E+02  0.00000000000E+00 0.  1.
</event>
<event>
 8    1  0.6689467E-009  0.1048385E+03  0.7561462E-02  0.1270438E+00
         -1   -1    0    0    0  501 -0.00000000000E+00  0.00000000000E+00  0.15337597741E+02  0.15337597741E+02  0.00000000000E+00 0.  1.
          1   -1    0    0  501    0  0.00000000000E+00 -0.00000000000E+00 -0.13129583314E+04  0.13129583314E+04  0.00000000000E+00 0. -1.
         25    2    1    2    0    0  0.15821151332E+02 -0.33092743607E+01 -0.11197768028E+04  0.11268583292E+04  0.12509334818E+03 0.  0.
         23    2    1    2    0    0 -0.15821151332E+02  0.33092743607E+01 -0.17784393083E+03  0.20143759997E+03  0.93206130804E+02 0.  0.
          5    1    3    3  502    0  0.49461790313E+02 -0.48273338964E+02 -0.56325246494E+03  0.56749237494E+03  0.41800000000E+01 0. -1.
         -5    1    3    3    0  502 -0.33640638981E+02  0.44964064603E+02 -0.55652433786E+03  0.55936595421E+03  0.41800000000E+01 0. -1.
        -11    1    4    4    0    0 -0.47181133234E+02  0.16667818320E+02 -0.56855627023E+02  0.75739275314E+02  0.00000000000E+00 0.  1.
         11    1    4    4    0    0  0.31359981902E+02 -0.13358543959E+02 -0.12098830381E+03  0.12569832465E+03  0.00000000000E+00 0. -1.
</event>
<event>
 8    1  0.6689467E-009  0.1062791E+03  0.7561462E-02  0.1267620E+00
          1   -1    0    0  501    0  0.00000000000E+00  0.00000000000E+00  0.66533402607E+03  0.66533402607E+03  0.00000000000E+00 0. -1.
         -1   -1    0    0    0  501 -0.00000000000E+00 -0.00000000000E+00 -0.22115795609E+02  0.22115795609E+02  0.00000000000E+00 0.  1.
         25    2    1    2    0    0  0.39752054785E+02  0.19957650851E+02  0.44641648869E+03  0.46574001202E+03  0.12509014244E+03 0.  0.
         23    2    1    2    0    0 -0.39752054785E+02 -0.19957650851E+02  0.19680174177E+03  0.22170980966E+03  0.91900927346E+02 0.  0.
          5    1    3    3  502    0  0.80075371004E+02 -0.97804076153E+01  0.31006040340E+03  0.32041012402E+03  0.41800000000E+01 0. -1.
         -5    1    3    3    0  502 -0.40323316219E+02  0.29738058466E+02  0.13635608529E+03  0.14532988800E+03  0.41800000000E+01 0. -1.
        -11    1    4    4    0    0 -0.27465056032E+02  0.23620508882E+02  0.24930744521E+02  0.43974990222E+02  0.00000000000E+00 0.  1.
         11    1    4    4    0    0 -0.12286998754E+02 -0.43578159733E+02  0.17187099725E+03  0.17773481943E+03  0.00000000000E+00 0. -1.
</event>
<event>
 8    1  0.6689467E-009  0.1130884E+03  0.7561462E-02  0.1254955E+00
          2   -1    0    0  501    0  0.00000000000E+00  0.00000000000E+00  0.34925517788E+03  0.34925517788E+03  0.00000000000E+00 0. -1.
         -2   -1    0    0    0  501 -0.00000000000E+00 -0.00000000000E+00 -0.45987033265E+02  0.45987033265E+02  0.00000000000E+00 0.  1.
         25    2    1    2    0    0 -0.30819380779E+02 -0.66644852428E+02  0.20624086912E+03  0.25214061419E+03  0.12509285609E+03 0.  0.
         23    2    1    2    0    0  0.30819380779E+02  0.66644852428E+02  0.97027275501E+02  0.14310159695E+03  0.75315365452E+02 0.  0.
          5    1    3    3  502    0  0.20098002585E+02  0.28720776863E+02  0.35920911297E+02  0.50364640373E+02  0.41800000000E+01 0. -1.
         -5    1    3    3    0  502 -0.50917383365E+02 -0.95365629291E+02  0.17031995782E+03  0.20177597382E+03  0.41800000000E+01 0. -1.
        -11    1    4    4    0    0  0.15799591307E+02  0.15439352180E+01 -0.86480563921E+01  0.18077602186E+02  0.00000000000E+00 0.  1.
         11    1    4    4    0    0  0.15019789472E+02  0.65100917210E+02  0.10567533189E+03  0.12502399477E+03  0.00000000000E+00 0. -1.
</event>
<event>
 8    1  0.6689467E-009  0.1185287E+03  0.7561462E-02  0.1245544E+00
          2   -1    0    0  501    0  0.00000000000E+00  0.00000000000E+00  0.39115154898E+03  0.39115154898E+03  0.00000000000E+00 0.  1.
         -2   -1    0    0    0  501 -0.00000000000E+00 -0.00000000000E+00 -0.46325386380E+02  0.46325386380E+02  0.00000000000E+00 0. -1.
         25    2    1    2    0    0 -0.14343399799E+02  0.72501530519E+02  0.14375776991E+03  0.20439251908E+03  0.12509116836E+03 0.  0.
         23    2    1    2    0    0  0.14343399799E+02 -0.72501530519E+02  0.20106839269E+03  0.23308441627E+03  0.91856635720E+02 0.  0.
          5    1    3    3  502    0  0.32975743793E+02  0.63918269733E+02  0.13813470337E+03  0.15579349653E+03  0.41800000000E+01 0. -1.
         -5    1    3    3    0  502 -0.47319143592E+02  0.85832607859E+01  0.56230665350E+01  0.48599022555E+02  0.41800000000E+01 0. -1.
        -11    1    4    4    0    0 -0.31702615819E+02 -0.10290524028E+01  0.70058996729E+02  0.76904992174E+02  0.00000000000E+00 0. -1.
         11    1    4    4    0    0  0.46046015618E+02 -0.71472478116E+02  0.13100939596E+03  0.15617942410E+03  0.00000000000E+00 0.  1.
</event>
<event>
 8    1  0.6689467E-009  0.1036481E+03  0.7561462E-02  0.1272806E+00
         -1   -1    0    0    0  501 -0.00000000000E+00  0.00000000000E+00  0.17230040767E+03  0.17230040767E+03  0.00000000000E+00 0.  1.
          1   -1    0    0  501    0  0.00000000000E+00 -0.00000000000E+00 -0.94328677281E+02  0.94328677281E+02  0.00000000000E+00 0. -1.
         25    2    1    2    0    0 -0.12037611133E+02 -0.64452699476E+02  0.54690520655E+02  0.15145478267E+03  0.12509373922E+03 0.  0.
         23    2    1    2    0    0  0.12037611133E+02  0.64452699476E+02  0.23281209731E+02  0.11517430228E+03  0.91782627042E+02 0.  0.
          5    1    3    3  502    0 -0.32921376235E+02 -0.92549761004E+02  0.16882395444E+02  0.99758523200E+02  0.41800000000E+01 0.  1.
         -5    1    3    3    0  502  0.20883765103E+02  0.28097061528E+02  0.37808125211E+02  0.51696259472E+02  0.41800000000E+01 0.  1.
        -11    1    4    4    0    0  0.16457925879E+02  0.10360970953E+02 -0.32165067667E+02  0.37587293349E+02  0.00000000000E+00 0. -1.
         11    1    4    4    0    0 -0.44203147458E+01  0.54091728523E+02  0.55446277397E+02  0.77587008928E+02  0.00000000000E+00 0.  1.
</event>
<event>
 8    1  0.6689467E-009  0.1223701E+03  0.7561462E-02  0.1239238E+00
          1   -1    0    0  501    0  0.00000000000E+00  0.00000000000E+00  0.48883940119E+03  0.48883940119E+03  0.00000000000E+00 0. -1.
         -1   -1    0    0    0  501 -0.00000000000E+00 -0.00000000000E+00 -0.42850701104E+02  0.42850701104E+02  0.00000000000E+00 0.  1.
         25    2    1    2    0    0  0.81065115493E+02  0.15639959372E+02  0.33360779268E+03  0.36572925463E+03  0.12509023571E+03 0.  0.
         23    2    1    2    0    0 -0.81065115493E+02 -0.15639959372E+02  0.11238090740E+03  0.16596084767E+03  0.89985406215E+02 0.  0.
          5    1    3    3  502    0 -0.30049644229E+02  0.18808858803E+02  0.11553400784E+03  0.12092284174E+03  0.41800000000E+01 0.  1.
         -5    1    3    3    0  502  0.11111475972E+03 -0.31688994312E+01  0.21807378484E+03  0.24480641288E+03  0.41800000000E+01 0.  1.
        -11    1    4    4    0    0 -0.59675587020E+02 -0.34806860209E+02  0.24167832354E+02  0.73190008365E+02  0.00000000000E+00 0.  1.
         11    1    4    4    0    0 -0.21389528473E+02  0.19166900836E+02  0.88213075048E+02  0.92770839305E+02  0.00000000000E+00 0. -1.
</event>
<event>
 7    1  0.6689467E-009  0.1339061E+03  0.7561462E-02  0.1221772E+00
          2   -1    0    0  501    0  0.00000000000E+00  0.00000000000E+00  0.25546545575E+03  0.25546545575E+03  0.00000000000E+00 0. -1.
         -2   -1    0    0    0  501 -0.00000000000E+00 -0.00000000000E+00 -0.15397768587E+03  0.15397768587E+03  0.00000000000E+00 0.  1.
         23    2    1    2    0    0 -0.58588729173E+02  0.57556308228E+02  0.19817753464E+03  0.23147275298E+03  0.86947871354E+02 0.  0.
          5    1    1    2  502    0  0.75119366504E+02 -0.87228001921E+02 -0.74372584679E+02  0.13711454079E+03  0.41800000000E+01 0.  1.
         -5    1    1    2    0  502 -0.16530637332E+02  0.29671693694E+02 -0.22317180087E+02  0.40855847859E+02  0.41800000000E+01 0.  1.
        -11    1    3    3    0    0  0.98900727047E+01  0.48293859188E+02  0.66676130834E+02  0.82920545080E+02  0.00000000000E+00 0. -1.
         11    1    3    3    0    0 -0.68478801877E+02  0.92624490393E+01  0.13150140381E+03  0.14855220790E+03  0.00000000000E+00 0.  1.
</event>
<event>
 8    1  0.6689467E-009  0.9797005E+02  0.7561462E-02  0.1284623E+00
          2   -1    0    0  501    0  0.00000000000E+00  0.00000000000E+00  0.93541150487E+03  0.93541150487E+03  0.00000000000E+00 0. -1.
         -2   -1    0    0    0  501 -0.00000000000E+00 -0.00000000000E+00 -0.21079024909E+02  0.21079024909E+02  0.00000000000E+00 0.  1.
         25    2    1    2    0    0  0.56382225016E+02 -0.18500541455E+02  0.68650217738E+03  0.70032658206E+03  0.12510338390E+03 0.  0.
         23    2    1    2    0    0 -0.56382225016E+02  0.18500541455E+02  0.22783030258E+03  0.25616394771E+03  0.10095591118E+03 0.  0.
          5    1    3    3  502    0  0.52524523971E+02  0.83826580041E+01  0.10140230459E+03  0.11458182382E+03  0.41800000000E+01 0.  1.
         -5    1    3    3    0  502  0.38577010451E+01 -0.26883199459E+02  0.58509987279E+03  0.58574475824E+03  0.41800000000E+01 0.  1.
        -11    1    4    4    0    0 -0.75173723399E+02 -0.15039151403E+02  0.17271366113E+03  0.18896368303E+03  0.00000000000E+00 0. -1.
         11    1    4    4    0    0  0.18791498383E+02  0.33539692858E+02  0.55116641449E+02  0.67200264680E+02  0.00000000000E+00 0.  1.
</event>
<event>
 8    1  0.6689467E-009  0.1196235E+03  0.7561462E-02  0.1243719E+00
         -2   -1    0    0    0  501 -0.00000000000E+00  0.00000000000E+00  0.53272684485E+02  0.53272684485E+02  0.00000000000E+00 0.  1.
          2   -1    0    0  501    0  0.00000000000E+00 -0.00000000000E+00 -0.28221338114E+03  0.28221338114E+03  0.00000000000E+00 0. -1.
         25    2    1    2    0    0 -0.23302196141E+02  0.51935189720E+02 -0.12585867612E+03  0.18635473099E+03  0.12508966038E+03 0.  0.
         23    2    1    2    0    0  0.23302196141E+02 -0.51935189720E+02 -0.10308202053E+03  0.14913133463E+03  0.91509539038E+02 0.  0.
          5    1    3    3  502    0  0.49187119048E+00  0.88327849516E+02 -0.58343078438E+02  0.10594072937E+03  0.41800000000E+01 0. -1.
         -5    1    3    3    0  502 -0.23794067331E+02 -0.36392659796E+02 -0.67515597679E+02  0.80414001623E+02  0.41800000000E+01 0. -1.
        -11    1    4    4    0    0 -0.31739228789E+02 -0.39566523108E+02 -0.56886350204E+02  0.76216436774E+02  0.00000000000E+00 0. -1.
         11    1    4    4    0    0  0.55041424930E+02 -0.12368666613E+02 -0.46195670330E+02  0.72914897856E+02  0.00000000000E+00 0.  1.
</event>
<event>
 8    1  0.6689467E-009  0.9903974E+02  0.7561462E-02  0.1282328E+00
         -4   -1    0    0    0  501 -0.00000000000E+00  0.00000000000E+00  0.17093298193E+03  0.17093298193E+03  0.00000000000E+00 0.  1.
          4   -1    0    0  501    0  0.00000000000E+00 -0.00000000000E+00 -0.10867917884E+03  0.10867917884E+03  0.00000000000E+00 0. -1.
         25    2    1    2    0    0  0.26401024248E+02 -0.85289464158E+01  0.11386196615E+03  0.17141737673E+03  0.12509841206E+03 0.  0.
         23    2    1    2    0    0 -0.26401024248E+02  0.85289464158E+01 -0.51608163073E+02  0.10819478404E+03  0.90955768310E+02 0.  0.
          5    1    3    3  502    0  0.61483066963E+02 -0.41341995214E+02  0.43183063354E+02  0.85857891030E+02  0.41800000000E+01 0.  1.
         -5    1    3    3    0  502 -0.35082042715E+02  0.32813048798E+02  0.70678902800E+02  0.85559485702E+02  0.41800000000E+01 0.  1.
        -11    1    4    4    0    0  0.24315881905E+02  0.61532618975E+00  0.11451538102E+02  0.26884539498E+02  0.00000000000E+00 0.  1.
         11    1    4    4    0    0 -0.50716906153E+02  0.79136202261E+01 -0.63059701175E+02  0.81310244539E+02  0.00000000000E+00 0. -1.
</event>
<event>
 8    1  0.6689467E-009  0.1292849E+03  0.7561462E-02  0.1228521E+00
         -2   -1    0    0    0  501 -0.00000000000E+00  0.00000000000E+00  0.26960152522E+03  0.26960152522E+03  0.00000000000E+00 0.  1.
          2   -1    0    0  501    0  0.00000000000E+00 -0.00000000000E+00 -0.96798351976E+02  0.96798351976E+02  0.00000000000E+00 0. -1.
         25    2    1    2    0    0  0.10341475751E+03  0.11342604670E+02  0.26062545893E+02  0.16477369375E+03  0.12509135502E+03 0.  0.
         23    2    1    2    0    0 -0.10341475751E+03 -0.11342604670E+02  0.14674062735E+03  0.20162618345E+03  0.91088085866E+02 0.  0.
          5    1    3    3  502    0  0.87083559914E+02 -0.41932892184E+02 -0.11526779854E+02  0.97428193599E+02  0.41800000000E+01 0. -1.
         -5    1    3    3    0  502  0.16331197593E+02  0.53275496853E+02  0.37589325747E+02  0.67345500146E+02  0.41800000000E+01 0. -1.
        -11    1    4    4    0    0 -0.84124356698E+02 -0.17040034562E+02  0.15708680841E+03  0.17900708238E+03  0.00000000000E+00 0.  1.
         11    1    4    4    0    0 -0.19290400809E+02  0.56974298919E+01 -0.10346181055E+02  0.22619101069E+02  0.00000000000E+00 0. -1.
</event>
<event>
 8    1  0.6689467E-009  0.1235568E+03  0.7561462E-02  0.1237342E+00
         -1   -1    0    0    0  501 -0.00000000000E+00  0.00000000000E+00  0.34997808805E+02  0.34997808805E+02  0.00000000000E+00 0.  1.
          1   -1    0    0  501    0  0.00000000000E+00 -0.00000000000E+00 -0.56756212380E+03  0.56756212380E+03  0.00000000000E+00 0. -1.
         25    2    1    2    0    0  0.83063560374E+02  0.30449432811E+02 -0.27535500319E+03  0.31511091654E+03  0.12509112246E+03 0.  0.
         23    2    1    2    0    0 -0.83063560374E+02 -0.30449432811E+02 -0.25720931180E+03  0.28744901607E+03  0.92970875756E+02 0.  0.
          5    1    3    3  502    0  0.16534716189E+02  0.71884773524E+02 -0.11704053479E+03  0.13840800804E+03  0.41800000000E+01 0. -1.
         -5    1    3    3    0  502  0.66528844185E+02 -0.41435340713E+02 -0.15831446840E+03  0.17670290850E+03  0.41800000000E+01 0. -1.
        -11    1    4    4    0    0 -0.31489782711E+02  0.53807828637E+01 -0.11677520277E+02  0.34013581394E+02  0.00000000000E+00 0.  1.
         11    1    4    4    0    0 -0.51573777663E+02 -0.35830215675E+02 -0.24553179153E+03  0.25343543467E+03  0.00000000000E+00 0. -1.
</event>
<event>
 8    1  0.6689467E-009  0.2710480E+03  0.7561462E-02  0.1100681E+00
         -1   -1    0    0    0  501 -0.00000000000E+00  0.00000000000E+00  0.15084455833E+04  0.15084455833E+04  0.00000000000E+00 0.  1.
          1   -1    0    0  501    0  0.00000000000E+00 -0.00000000000E+00 -0.53389428627E+02  0.53389428627E+02  0.00000000000E+00 0. -1.
         25    2    1    2    0    0 -0.20288367534E+03  0.16225075024E+03  0.65566226664E+03  0.71625930243E+03  0.12508912323E+03 0.  0.
         23    2    1    2    0    0  0.20288367534E+03 -0.16225075024E+03  0.79939388801E+03  0.84557570947E+03  0.92090176414E+02 0.  0.
          5    1    3    3  502    0 -0.36131433560E+02  0.95427042272E+02  0.16872139921E+03  0.19722115464E+03  0.41800000000E+01 0.  1.
         -5    1    3    3    0  502 -0.16675224178E+03  0.66823707971E+02  0.48694086743E+03  0.51903814779E+03  0.41800000000E+01 0.  1.
        -11    1    4    4    0    0  0.13600052325E+03 -0.98916306401E+02  0.37016256081E+03  0.40657213311E+03  0.00000000000E+00 0. -1.
         11    1    4    4    0    0  0.66883152083E+02 -0.63334443842E+02  0.42923132720E+03  0.43900357636E+03  0.00000000000E+00 0.  1.
</event>
<event>
 8    1  0.6689467E-009  0.1043741E+03  0.7561462E-02  0.1271358E+00
         -2   -1    0    0    0  501 -0.00000000000E+00  0.00000000000E+00  0.24050498469E+03  0.24050498469E+03  0.00000000000E+00 0.  1.
          2   -1    0    0  501    0  0.00000000000E+00 -0.00000000000E+00 -0.89900346989E+02  0.89900346989E+02  0.00000000000E+00 0. -1.
         25    2    1    2    0    0  0.37458038360E+02 -0.25453185435E+02 -0.17246577247E+02  0.13410680770E+03  0.12504488057E+03 0.  0.
         23    2    1    2    0    0 -0.37458038360E+02  0.25453185435E+02  0.16785121495E+03  0.19629852398E+03  0.91148839106E+02 0.  0.
          5    1    3    3  502    0  0.47111540636E+02 -0.62135204366E+02  0.20182709630E+02  0.80654169456E+02  0.41800000000E+01 0.  1.
         -5    1    3    3    0  502 -0.96535022762E+01  0.36682018931E+02 -0.37429286877E+02  0.53452638243E+02  0.41800000000E+01 0.  1.
        -11    1    4    4    0    0 -0.75455785324E+00 -0.27806972511E+02  0.18132894672E+02  0.33205405388E+02  0.00000000000E+00 0. -1.
         11    1    4    4    0    0 -0.36703480507E+02  0.53260157946E+02  0.14971832028E+03  0.16309311859E+03  0.00000000000E+00 0.  1.
</event>
<event>
 8    1  0.6689467E-009  0.1007325E+03  0.7561462E-02  0.1278763E+00
         -2   -1    0    0    0  501 -0.00000000000E+00  0.00000000000E+00  0.10142375315E+03  0.10142375315E+03  0.00000000000E+00 0.  1.
          2   -1    0    0  501    0  0.00000000000E+00 -0.00000000000E+00 -0.19380011979E+03  0.19380011979E+03  0.00000000000E+00 0. -1.
         25    2    1    2    0    0 -0.20669828582E+02 -0.59538401035E+02 -0.11394490348E+03  0.18056351312E+03  0.12509068002E+03 0.  0.
         23    2    1    2    0    0  0.20669828582E+02  0.59538401035E+02  0.21568536848E+02  0.11466035983E+03  0.93325952034E+02 0.  0.
          5    1    3    3  502    0 -0.39651089390E+02 -0.81590104764E+02 -0.36756680366E+02  0.97967749983E+02  0.41800000000E+01 0.  1.
         -5    1    3    3    0  502  0.18981260808E+02  0.22051703729E+02 -0.77188223118E+02  0.82595763132E+02  0.41800000000E+01 0.  1.
        -11    1    4    4    0    0 -0.15779191198E+02  0.31649334980E+02 -0.29461004958E+02  0.46028405281E+02  0.00000000000E+00 0. -1.
         11    1    4    4    0    0  0.36449019781E+02  0.27889066055E+02  0.51029541805E+02  0.68631954549E+02  0.00000000000E+00 0.  1.
</event>
<event>
 8    1  0.6689467E-009  0.8407303E+02  0.7561462E-02  0.1317875E+00
         -1   -1    0    0    0  501 -0.00000000000E+00  0.00000000000E+00  0.80321868523E+02  0.80321868523E+02  0.00000000000E+00 0.  1.
          1   -1    0    0  501    0  0.00000000000E+00 -0.00000000000E+00 -0.16922044310E+03  0.16922044310E+03  0.00000000000E+00 0. -1.
         25    2    1    2    0    0 -0.36230013882E+02  0.13283498725E+02 -0.58823011387E+02  0.14351654186E+03  0.12509111029E+03 0.  0.
         23    2    1    2    0    0  0.36230013882E+02 -0.13283498725E+02 -0.30075563188E+02  0.10602576976E+03  0.94063059215E+02 0.  0.
          5    1    3    3  502    0 -0.55930782104E+02 -0.86148098731E+01  0.19286794036E+02  0.59932630179E+02  0.41800000000E+01 0.  1.
         -5    1    3    3    0  502  0.19700768222E+02  0.21898308598E+02 -0.78109805423E+02  0.83583911677E+02  0.41800000000E+01 0.  1.
        -11    1    4    4    0    0  0.43968768739E+02 -0.36521128134E+02  0.10995657888E+02  0.58206098624E+02  0.00000000000E+00 0.  1.
         11    1    4    4    0    0 -0.77387548567E+01  0.23237629409E+02 -0.41071221077E+02  0.47819671141E+02  0.00000000000E+00 0. -1.
</event>
<event>
 8    1  0.6689467E-009  0.9400112E+02  0.7561462E-02  0.1293442E+00
          2   -1    0    0  501    0  0.00000000000E+00  0.00000000000E+00  0.38379757664E+03  0.38379757664E+03  0.00000000000E+00 0. -1.
         -2   -1    0    0    0  501 -0.00000000000E+00 -0.00000000000E+00 -0.39475037564E+02  0.39475037564E+02  0.00000000000E+00 0.  1.
         25    2    1    2    0    0  0.51170227397E+02  0.22212307459E+02  0.16393996738E+03  0.21362310646E+03  0.12508692951E+03 0.  0.
         23    2    1    2    0    0 -0.51170227397E+02 -0.22212307459E+02  0.18038257170E+03  0.20964950775E+03  0.91122253878E+02 0.  0.
          5    1    3    3  502    0  0.47904172830E+02 -0.11612129732E+02  0.35236382681E+01  0.49593747167E+02  0.41800000000E+01 0.  1.
         -5    1    3    3    0  502  0.32660545676E+01  0.33824437191E+02  0.16041632911E+03  0.16402935929E+03  0.41800000000E+01 0.  1.
        -11    1    4    4    0    0  0.15230664054E+02 -0.33632233281E+02  0.43293603288E+02  0.56898473869E+02  0.00000000000E+00 0.  1.
         11    1    4    4    0    0 -0.66400891451E+02  0.11419925821E+02  0.13708896841E+03  0.15275103388E+03  0.00000000000E+00 0. -1.
</event>
<event>
 8    1  0.6689467E-009  0.1531739E+03  0.7561462E-02  0.1196626E+00
          2   -1    0    0  501    0  0.00000000000E+00  0.00000000000E+00  0.72538363957E+03  0.72538363957E+03  0.00000000000E+00 0. -1.
         -2   -1    0    0    0  501 -0.00000000000E+00 -0.00000000000E+00 -0.40947483691E+02  0.40947483691E+02  0.00000000000E+00 0.  1.
         25    2    1    2    0    0  0.12543040298E+03 -0.38295830270E+02  0.31894514324E+03  0.36684349909E+03  0.12509513106E+03 0.  0.
         23    2    1    2    0    0 -0.12543040298E+03  0.38295830270E+02  0.36549101264E+03  0.39948762418E+03  0.93847349154E+02 0.  0.
          5    1    3    3  502    0  0.84178682717E+01  0.34262059332E+02  0.11789739142E+03  0.12313414034E+03  0.41800000000E+01 0.  1.
         -5    1    3    3    0  502  0.11701253471E+03 -0.72557889602E+02  0.20104775183E+03  0.24370935874E+03  0.41800000000E+01 0.  1.
        -11    1    4    4    0    0 -0.40702188755E+02  0.23694289401E+02  0.25588884043E+03  0.26018682937E+03  0.00000000000E+00 0. -1.
         11    1    4    4    0    0 -0.84728214227E+02  0.14601540869E+02  0.10960217221E+03  0.13930079481E+03  0.00000000000E+00 0.  1.
</event>
<event>
 7    1  0.6689467E-009  0.2383163E+03  0.7561462E-02  0.1120920E+00
          2   -1    0    0  501    0  0.00000000000E+00  0.00000000000E+00  0.32123320984E+03  0.32123320984E+03  0.00000000000E+00 0. -1.
         -2   -1    0    0    0  501 -0.00000000000E+00 -0.00000000000E+00 -0.19909719379E+03  0.19909719379E+03  0.00000000000E+00 0.  1.
         23    2    1    2    0    0 -0.35081360605E+01 -0.22008807948E+03  0.11474830780E+03  0.26708276158E+03  0.98564484681E+02 0.  0.
          5    1    1    2  502    0  0.17487926086E+00 -0.14649294630E+02 -0.93133335383E+01  0.17856175333E+02  0.41800000000E+01 0. -1.
         -5    1    1    2    0  502  0.33332567996E+01  0.23473737411E+03  0.16701041786E+02  0.23539146672E+03  0.41800000000E+01 0. -1.
        -11    1    3    3    0    0  0.21466388241E+02 -0.46400311372E+02 -0.95964692578E+01  0.52018140507E+02  0.00000000000E+00 0. -1.
         11    1    3    3    0    0 -0.24974524301E+02 -0.17368776811E+03  0.12434477706E+03  0.21506462107E+03  0.00000000000E+00 0.  1.
</event>
<event>
 8    1  0.6689467E-009  0.8075676E+02  0.7561462E-02  0.1326917E+00
         -2   -1    0    0    0  501 -0.00000000000E+00  0.00000000000E+00  0.14622009236E+03  0.14622009236E+03  0.00000000000E+00 0.  1.
          2   -1    0    0  501    0  0.00000000000E+00 -0.00000000000E+00 -0.10588237967E+03  0.10588237967E+03  0.00000000000E+00 0. -1.
         25    2    1    2    0    0  0.15689150999E+02 -0.71989425170E+01 -0.35460002353E+02  0.13116746749E+03  0.12509803567E+03 0.  0.
         23    2    1    2    0    0 -0.15689150999E+02  0.71989425170E+01  0.75797715035E+02  0.12093500454E+03  0.92639125026E+02 0.  0.
          5    1    3    3  502    0 -0.29110177557E+02 -0.24484565168E+02  0.30875416067E+02  0.49169706997E+02  0.41800000000E+01 0.  1.
         -5    1    3    3    0  502  0.44799328556E+02  0.17285622651E+02 -0.66335418419E+02  0.81997760496E+02  0.41800000000E+01 0.  1.
        -11    1    4    4    0    0 -0.24771015714E+02 -0.28760712547E+02  0.16086733368E+01  0.37991704826E+02  0.00000000000E+00 0. -1.
         11    1    4    4    0    0  0.90818647144E+01  0.35959655064E+02  0.74189041698E+02  0.82943299712E+02  0.00000000000E+00 0.  1.
</event>
<event>
 8    1  0.6689467E-009  0.1389754E+03  0.7561462E-02  0.1214714E+00
         -2   -1    0    0    0  501 -0.00000000000E+00  0.00000000000E+00  0.37395747330E+02  0.37395747330E+02  0.00000000000E+00 0.  1.
          2   -1    0    0  501    0  0.00000000000E+00 -0.00000000000E+00 -0.72804255071E+03  0.72804255071E+03  0.00000000000E+00 0. -1.
         25    2    1    2    0    0  0.78649883219E+02 -0.62389258324E+02 -0.53687260871E+03  0.56031745856E+03  0.12508090461E+03 0.  0.
         23    2    1    2    0    0 -0.78649883219E+02  0.62389258324E+02 -0.15377419467E+03  0.20512083948E+03  0.91377416018E+02 0.  0.
          5    1    3    3  502    0  0.10855838842E+03 -0.54387975961E+02 -0.48296250080E+03  0.49800926217E+03  0.41800000000E+01 0. -1.
         -5    1    3    3    0  502 -0.29908505198E+02 -0.80012823634E+01 -0.53910107907E+02  0.62308196389E+02  0.41800000000E+01 0. -1.
        -11    1    4    4    0    0 -0.45185698028E+02 -0.92721217967E+01 -0.98090786653E+02  0.10839521196E+03  0.00000000000E+00 0. -1.
         11    1    4    4    0    0 -0.33464185191E+02  0.71661380121E+02 -0.55683408013E+02  0.96725627521E+02  0.00000000000E+00 0.  1.
</event>
<event>
 8    1  0.6689467E-009  0.9565687E+02  0.7561462E-02  0.1289703E+00
          1   -1    0    0  501    0  0.00000000000E+00  0.00000000000E+00  0.44266632543E+03  0.44266632543E+03  0.00000000000E+00 0. -1.
         -1   -1    0    0    0  501 -0.00000000000E+00 -0.00000000000E+00 -0.25733163544E+02  0.25733163544E+02  0.00000000000E+00 0.  1.
         25    2    1    2    0    0  0.71042216291E+01  0.17506878219E+02  0.27460620764E+03  0.30234616835E+03  0.12509066907E+03 0.  0.
         23    2    1    2    0    0 -0.71042216291E+01 -0.17506878219E+02  0.14232695425E+03  0.16605332063E+03  0.83425311728E+02 0.  0.
          5    1    3    3  502    0  0.51377884054E+02  0.29994652649E+02  0.67153347853E+02  0.89813198837E+02  0.41800000000E+01 0.  1.
         -5    1    3    3    0  502 -0.44273662425E+02 -0.12487774430E+02  0.20745285979E+03  0.21253296951E+03  0.41800000000E+01 0.  1.
        -11    1    4    4    0    0  0.18978244046E+02  0.27531120136E+02  0.58574797342E+02  0.67447336542E+02  0.00000000000E+00 0. -1.
         11    1    4    4    0    0 -0.26082465675E+02 -0.45037998355E+02  0.83752156905E+02  0.98605984087E+02  0.00000000000E+00 0.  1.
</event>
<event>
 8    1  0.6689467E-009  0.1118593E+03  0.7561462E-02  0.1257165E+00
          2   -1    0    0  501    0  0.00000000000E+00  0.00000000000E+00  0.40528206242E+02  0.40528206242E+02  0.00000000000E+00 0.  1.
         -2   -1    0    0    0  501 -0.00000000000E+00 -0.00000000000E+00 -0.32298653105E+03  0.32298653105E+03  0.00000000000E+00 0. -1.
         25    2    1    2    0    0 -0.27769483131E+02 -0.19938069758E+02 -0.18935314040E+03  0.22950132658E+03  0.12509027262E+03 0.  0.
         23    2    1    2    0    0  0.27769483131E+02  0.19938069758E+02 -0.93105184408E+02  0.13401341071E+03  0.90124070409E+02 0.  0.
          5    1    3    3  502    0  0.23426967507E+02  0.42452424149E+02 -0.65149052709E+02  0.81319755236E+02  0.41800000000E+01 0.  1.
         -5    1    3    3    0  502 -0.51196450638E+02 -0.62390493907E+02 -0.12420408769E+03  0.14818157135E+03  0.41800000000E+01 0.  1.
        -11    1    4    4    0    0 -0.22835998467E+02 -0.19538620654E+02 -0.43612385466E+02  0.52964900539E+02  0.00000000000E+00 0. -1.
         11    1    4    4    0    0  0.50605481598E+02  0.39476690412E+02 -0.49492798942E+02  0.81048510170E+02  0.00000000000E+00 0.  1.
</event>
<event>
 8    1  0.6689467E-009  0.1008655E+03  0.7561462E-02  0.1278486E+00
          2   -1    0    0  501    0  0.00000000000E+00  0.00000000000E+00  0.11314744658E+03  0.11314744658E+03  0.00000000000E+00 0. -1.
         -2   -1    0    0    0  501 -0.00000000000E+00 -0.00000000000E+00 -0.12768694948E+03  0.12768694948E+03  0.00000000000E+00 0.  1.
         25    2    1    2    0    0 -0.46232949946E+02 -0.26441169646E+02  0.10292298762E+02  0.13635257036E+03  0.12509784538E+03 0.  0.
         23    2    1    2    0    0  0.46232949946E+02  0.26441169646E+02 -0.24831801667E+02  0.10448182570E+03  0.86389886063E+02 0.  0.
          5    1    3    3  502    0 -0.19921047921E+02  0.50395903186E+02 -0.21523985883E+00  0.54351761116E+02  0.41800000000E+01 0.  1.
         -5    1    3    3    0  502 -0.26311902025E+02 -0.76837072832E+02  0.10507538621E+02  0.82000809249E+02  0.41800000000E+01 0.  1.
        -11    1    4    4    0    0  0.30525732583E+02  0.36362298164E+02 -0.52736160687E+02  0.70958718432E+02  0.00000000000E+00 0.  1.
         11    1    4    4    0    0  0.15707217363E+02 -0.99211285183E+01  0.27904359020E+02  0.33523107265E+02  0.00000000000E+00 0. -1.
</event>
<event>
 8    1  0.6689467E-009  0.1422941E+03  0.7561462E-02  0.1210275E+00
          1   -1    0    0  501    0  0.00000000000E+00  0.00000000000E+00  0.23986179633E+02  0.23986179633E+02  0.00000000000E+00 0. -1.
         -1   -1    0    0    0  501 -0.00000000000E+00 -0.00000000000E+00 -0.99226642793E+03  0.99226642793E+03  0.00000000000E+00 0.  1.
         25    2    1    2    0    0  0.77214959980E+02 -0.68902326263E+02 -0.40297437768E+03  0.43444984897E+03  0.12509453062E+03 0.  0.
         23    2    1    2    0    0 -0.77214959980E+02  0.68902326263E+02 -0.56530587061E+03  0.58180275859E+03  0.90631351897E+02 0.  0.
          5    1    3    3  502    0 -0.76819039159E+01 -0.61043697253E+02 -0.26599350289E+03  0.27304827522E+03  0.41800000000E+01 0.  1.
         -5    1    3    3    0  502  0.84896863896E+02 -0.78586290099E+01 -0.13698087479E+03  0.16140157375E+03  0.41800000000E+01 0.  1.
        -11    1    4    4    0    0 -0.86773141172E+02  0.21763341518E+02 -0.36989128577E+03  0.38055588861E+03  0.00000000000E+00 0.  1.
         11    1    4    4    0    0  0.95581811917E+01  0.47138984745E+02 -0.19541458484E+03  0.20124686998E+03  0.00000000000E+00 0. -1.
</event>
<event>
 8    1  0.6689467E-009  0.1179954E+03  0.7561462E-02  0.1246441E+00
         -2   -1    0    0    0  501 -0.00000000000E+00  0.00000000000E+00  0.22231156540E+03  0.22231156540E+03  0.00000000000E+00 0.  1.
          2   -1    0    0  501    0  0.00000000000E+00 -0.00000000000E+00 -0.10876753500E+03  0.10876753500E+03  0.00000000000E+00 0. -1.
         25    2    1    2    0    0 -0.72187560648E+02 -0.76964538339E+02  0.97815286202E+02  0.19065798452E+03  0.12509217710E+03 0.  0.
         23    2    1    2    0    0  0.72187560648E+02  0.76964538339E+02  0.15728744191E+02  0.14042111588E+03  0.91302312777E+02 0.  0.
          5    1    3    3  502    0 -0.51011034097E+02 -0.27563857547E+02  0.11923251363E+03  0.13264899754E+03  0.41800000000E+01 0. -1.
         -5    1    3    3    0  502 -0.21176526552E+02 -0.49400680792E+02 -0.21417227424E+02  0.58008986977E+02  0.41800000000E+01 0. -1.
        -11    1    4    4    0    0  0.65089993885E+02  0.22269309871E+02  0.40641057799E+02  0.79901971472E+02  0.00000000000E+00 0.  1.
         11    1    4    4    0    0  0.70975667638E+01  0.54695228469E+02 -0.24912313608E+02  0.60519144413E+02  0.00000000000E+00 0. -1.
</event>
<event>
 8    1  0.6689467E-009  0.1237043E+03  0.7561462E-02  0.1237108E+00
         -3   -1    0    0    0  501 -0.00000000000E+00  0.00000000000E+00  0.29627550569E+03  0.29627550569E+03  0.00000000000E+00 0.  1.
          3   -1    0    0  501    0  0.00000000000E+00 -0.00000000000E+00 -0.66729552190E+02  0.66729552190E+02  0.00000000000E+00 0. -1.
         25    2    1    2    0    0  0.69681355241E+01  0.74489990762E+02  0.18877661772E+03  0.23849930496E+03  0.12509193991E+03 0.  0.
         23    2    1    2    0    0 -0.69681355241E+01 -0.74489990762E+02  0.40769335780E+02  0.12450575292E+03  0.90786728848E+02 0.  0.
          5    1    3    3  502    0  0.28684787992E+02 -0.21475331494E+02  0.15653079229E+02  0.39325541500E+02  0.41800000000E+01 0.  1.
         -5    1    3    3    0  502 -0.21716652468E+02  0.95965322255E+02  0.17312353849E+03  0.19917376346E+03  0.41800000000E+01 0.  1.
        -11    1    4    4    0    0  0.38238420837E+02 -0.44154475129E+02  0.34721822326E+01  0.58513678328E+02  0.00000000000E+00 0. -1.
         11    1    4    4    0    0 -0.45206556361E+02 -0.30335515633E+02  0.37297153547E+02  0.65992074596E+02  0.00000000000E+00 0.  1.
</event>
<event>
 8    1  0.6689467E-009  0.1940202E+03  0.7561462E-02  0.1154885E+00
          1   -1    0    0  501    0  0.00000000000E+00  0.00000000000E+00  0.33142605209E+03  0.33142605209E+03  0.00000000000E+00 0. -1.
         -1   -1    0    0    0  501 -0.00000000000E+00 -0.00000000000E+00 -0.12263845385E+03  0.12263845385E+03  0.00000000000E+00 0.  1.
         25    2    1    2    0    0  0.68424955612E+02 -0.15275999829E+03  0.11885645961E+03  0.24040108465E+03  0.12509289301E+03 0.  0.
         23    2    1    2    0    0 -0.68424955612E+02  0.15275999829E+03  0.89931138625E+02  0.21366342129E+03  0.97708015409E+02 0.  0.
          5    1    3    3  502    0  0.88670125957E+02 -0.49549233530E+02  0.41654506840E+02  0.10986395278E+03  0.41800000000E+01 0.  1.
         -5    1    3    3    0  502 -0.20245170346E+02 -0.10321076476E+03  0.77201952772E+02  0.13053713187E+03  0.41800000000E+01 0.  1.
        -11    1    4    4    0    0 -0.74529818898E+02  0.84848811826E+02  0.91670568285E+02  0.14545620600E+03  0.00000000000E+00 0. -1.
         11    1    4    4    0    0  0.61048632858E+01  0.67911186463E+02 -0.17394296597E+01  0.68207215294E+02  0.00000000000E+00 0.  1.
</event>
<event>
 8    1  0.6689467E-009  0.1172331E+03  0.7561462E-02  0.1247733E+00
         -1   -1    0    0    0  501 -0.00000000000E+00  0.00000000000E+00  0.14357799810E+03  0.14357799810E+03  0.00000000000E+00 0.  1.
          1   -1    0    0  501    0  0.00000000000E+00 -0.00000000000E+00 -0.10680542422E+03  0.10680542422E+03  0.00000000000E+00 0. -1.
         25    2    1    2    0    0 -0.53198189479E+02 -0.39162981723E+01 -0.50133728285E+01  0.13608052049E+03  0.12508952552E+03 0.  0.
         23    2    1    2    0    0  0.53198189479E+02  0.39162981723E+01  0.41785946702E+02  0.11430290182E+03  0.92052720047E+02 0.  0.
          5    1    3    3  502    0  0.25263129108E+02 -0.38897975356E+02  0.12693488298E+02  0.48268781053E+02  0.41800000000E+01 0.  1.
         -5    1    3    3    0  502 -0.78461318586E+02  0.34981677184E+02 -0.17706861127E+02  0.87811739442E+02  0.41800000000E+01 0.  1.
        -11    1    4    4    0    0  0.31883686631E+02 -0.41137748163E+02  0.48605727508E+01  0.52273405901E+02  0.00000000000E+00 0.  1.
         11    1    4    4    0    0  0.21314502848E+02  0.45054046335E+02  0.36925373952E+02  0.62029495922E+02  0.00000000000E+00 0. -1.
</event>
<event>
 8    1  0.6689467E-009  0.1072800E+03  0.7561462E-02  0.1265691E+00
          2   -1    0    0  501    0  0.00000000000E+00  0.00000000000E+00  0.32203222543E+03  0.32203222543E+03  0.00000000000E+00 0.  1.
         -2   -1    0    0    0  501 -0.00000000000E+00 -0.00000000000E+00 -0.64198158829E+02  0.64198158829E+02  0.00000000000E+00 0. -1.
         25    2    1    2    0    0 -0.42141297717E+02  0.10626489922E+01  0.25601992282E+03  0.28804714422E+03  0.12509171920E+03 0.  0.
         23    2    1    2    0    0  0.42141297717E+02 -0.10626489922E+01  0.18141437783E+01  0.98183240045E+02  0.88654606828E+02 0.  0.
          5    1    3    3  502    0  0.34560621417E+02  0.23335114286E+02  0.40980797195E+02  0.58616228556E+02  0.41800000000E+01 0. -1.
         -5    1    3    3    0  502 -0.76701919134E+02 -0.22272465294E+02  0.21503912563E+03  0.22943091566E+03  0.41800000000E+01 0. -1.
        -11    1    4    4    0    0  0.40890177202E+02 -0.37935034722E+02  0.16964811307E+02  0.58299899431E+02  0.00000000000E+00 0.  1.
         11    1    4    4    0    0  0.12511205154E+01  0.36872385730E+02 -0.15150667529E+02  0.39883340614E+02  0.00000000000E+00 0. -1.
</event>
<event>
 8    1  0.6689467E-009  0.1163082E+03  0.7561462E-02  0.1249315E+00
          2   -1    0    0  501    0  0.00000000000E+00  0.00000000000E+00  0.27461324405E+03  0.27461324405E+03  0.00000000000E+00 0. -1.
         -2   -1    0    0    0  501 -0.00000000000E+00 -0.00000000000E+00 -0.65543922963E+02  0.65543922963E+02  0.00000000000E+00 0.  1.
         25    2    1    2    0    0 -0.71084681461E+02 -0.15971520210E+02  0.79938890840E+02  0.16536792824E+03  0.12509278167E+03 0.  0.
         23    2    1    2    0    0  0.71084681461E+02  0.15971520210E+02  0.12913043025E+03  0.17478923878E+03  0.92566130838E+02 0.  0.
          5    1    3    3  502    0 -0.12931974205E+02 -0.61219041646E+02  0.96438790567E+01  0.63446700624E+02  0.41800000000E+01 0. -1.
         -5    1    3    3    0  502 -0.58152707257E+02  0.45247521436E+02  0.70295011783E+02  0.10192122762E+03  0.41800000000E+01 0. -1.
        -11    1    4    4    0    0  0.58227262344E+02 -0.17048051246E+02  0.12521422240E+03  0.13913896515E+03  0.00000000000E+00 0. -1.
         11    1    4    4    0    0  0.12857419117E+02  0.33019571457E+02  0.39162078486E+01  0.35650273624E+02  0.00000000000E+00 0.  1.
</event>
<event>
 8    1  0.6689467E-009  0.1020513E+03  0.7561462E-02  0.1276040E+00
         -1   -1    0    0    0  501 -0.00000000000E+00  0.00000000000E+00  0.35082991999E+02  0.35082991999E+02  0.00000000000E+00 0.  1.
          1   -1    0    0  501    0  0.00000000000E+00 -0.00000000000E+00 -0.59622623434E+03  0.59622623434E+03  0.00000000000E+00 0. -1.
         25    2    1    2    0    0 -0.74607813949E+02 -0.55810576245E+02 -0.34946004399E+03  0.38268949645E+03  0.12509109490E+03 0.  0.
         23    2    1    2    0    0  0.74607813949E+02  0.55810576245E+02 -0.21168319835E+03  0.24861972989E+03  0.91218678474E+02 0.  0.
          5    1    3    3  502    0 -0.55442000512E+02 -0.12873798309E+02 -0.40102864227E+02  0.69751431690E+02  0.41800000000E+01 0. -1.
         -5    1    3    3    0  502 -0.19165813437E+02 -0.42936777936E+02 -0.30935717976E+03  0.31293806476E+03  0.41800000000E+01 0. -1.
        -11    1    4    4    0    0  0.10855450915E+02 -0.47922153556E+01  0.63884363650E+01  0.13476581976E+02  0.00000000000E+00 0.  1.
         11    1    4    4    0    0  0.63752363034E+02  0.60602791601E+02 -0.21807163472E+03  0.23514314791E+03  0.00000000000E+00 0. -1.
</event>
<event>
 8    1  0.6689467E-009  0.8984535E+02  0.7561462E-02  0.1303227E+00
          3   -1    0    0  501    0  0.00000000000E+00  0.00000000000E+00  0.12106478692E+03  0.12106478692E+03  0.00000000000E+00 0. -1.
         -3   -1    0    0    0  501 -0.00000000000E+00 -0.00000000000E+00 -0.10604773407E+03  0.10604773407E+03  0.00000000000E+00 0.  1.
         25    2    1    2    0    0  0.18468390036E+02  0.98288938483E+01  0.36933742858E+02  0.13208782732E+03  0.12508159009E+03 0.  0.
         23    2    1    2    0    0 -0.18468390036E+02 -0.98288938483E+01 -0.21916690016E+02  0.95024693672E+02  0.90064768480E+02 0.  0.
          5    1    3    3  502    0  0.57115903828E+02 -0.34891025465E+02  0.25478138398E+02  0.71737145638E+02  0.41800000000E+01 0. -1.
         -5    1    3    3    0  502 -0.38647513792E+02  0.44719919313E+02  0.11455604461E+02  0.60350681680E+02  0.41800000000E+01 0. -1.
        -11    1    4    4    0    0  0.15713585309E+00 -0.27619579032E+02  0.27702312072E+02  0.39118843691E+02  0.00000000000E+00 0. -1.
         11    1    4    4    0    0 -0.18625525889E+02  0.17790685184E+02 -0.49619002088E+02  0.55905849982E+02  0.00000000000E+00 0.  1.
</event>
<event>
 8    1  0.6689467E-009  0.9768078E+02  0.7561462E-02  0.1285250E+00
         -1   -1    0    0    0  501 -0.00000000000E+00  0.00000000000E+00  0.31243462014E+02  0.31243462014E+02  0.00000000000E+00 0.  1.
          1   -1    0    0  501    0  0.00000000000E+00 -0.00000000000E+00 -0.42135918388E+03  0.42135918388E+03  0.00000000000E+00 0. -1.
         25    2    1    2    0    0  0.12235005897E+02  0.21592008814E+02 -0.27625328436E+03  0.30426647201E+03  0.12508516560E+03 0.  0.
         23    2    1    2    0    0 -0.12235005897E+02 -0.21592008814E+02 -0.11386243751E+03  0.14833617389E+03  0.91777206291E+02 0.  0.
          5    1    3    3  502    0 -0.34325783680E+02  0.56495741946E+02 -0.11404305407E+03  0.13188373237E+03  0.41800000000E+01 0. -1.
         -5    1    3    3    0  502  0.46560789577E+02 -0.34903733132E+02 -0.16221023029E+03  0.17238273964E+03  0.41800000000E+01 0. -1.
        -11    1    4    4    0    0 -0.93075957797E+01  0.23665713248E+02  0.36709090617E+00  0.25432893631E+02  0.00000000000E+00 0.  1.
         11    1    4    4    0    0 -0.29274101173E+01 -0.45257722062E+02 -0.11422952841E+03  0.12290328026E+03  0.00000000000E+00 0. -1.
</event>
<event>
 8    1  0.6689467E-009  0.1040273E+03  0.7561462E-02  0.1272048E+00
          2   -1    0    0  501    0  0.00000000000E+00  0.00000000000E+00  0.92940466771E+03  0.92940466771E+03  0.00000000000E+00 0. -1.
         -2   -1    0    0    0  501 -0.00000000000E+00 -0.00000000000E+00 -0.12888381463E+02  0.12888381463E+02  0.00000000000E+00 0.  1.
         25    2    1    2    0    0 -0.16702355885E+02  0.20734391136E+01  0.50762999694E+03  0.52308588332E+03  0.12508940681E+03 0.  0.
         23    2    1    2    0    0  0.16702355885E+02 -0.20734391136E+01  0.40888628930E+03  0.41920716585E+03  0.90903148874E+02 0.  0.
          5    1    3    3  502    0 -0.29873729680E+02 -0.51999235043E+02  0.15838567263E+03  0.16941031216E+03  0.41800000000E+01 0. -1.
         -5    1    3    3    0  502  0.13171373795E+02  0.54072674157E+02  0.34924432430E+03  0.35367557116E+03  0.41800000000E+01 0. -1.
        -11    1    4    4    0    0 -0.24829997792E+02 -0.32315100752E+02  0.19832041738E+03  0.20246427457E+03  0.00000000000E+00 0. -1.
         11    1    4    4    0    0  0.41532353677E+02  0.30241661639E+02  0.21056587193E+03  0.21674289128E+03  0.00000000000E+00 0.  1.
</event>
<event>
 8    1  0.6689467E-009  0.9838806E+02  0.7561462E-02  0.1283723E+00
         -2   -1    0    0    0  501 -0.00000000000E+00  0.00000000000E+00  0.15322309012E+03  0.15322309012E+03  0.00000000000E+00 0.  1.
          2   -1    0    0  501    0  0.00000000000E+00 -0.00000000000E+00 -0.10405821426E+03  0.10405821426E+03  0.00000000000E+00 0. -1.
         25    2    1    2    0    0 -0.36298502800E+01 -0.61971660811E+02  0.43508722726E+02  0.14626887501E+03  0.12509161557E+03 0.  0.
         23    2    1    2    0    0  0.36298502800E+01  0.61971660811E+02  0.56561531370E+01  0.11101242937E+03  0.91859157681E+02 0.  0.
          5    1    3    3  502    0  0.65008110896E+01 -0.76516010026E+02 -0.20605931888E+02  0.79618070587E+02  0.41800000000E+01 0. -1.
         -5    1    3    3    0  502 -0.10130661370E+02  0.14544349214E+02  0.64114654613E+02  0.66650804421E+02  0.41800000000E+01 0. -1.
        -11    1    4    4    0    0 -0.36145559980E+02  0.46698152522E+02 -0.18690350539E+02  0.61939875351E+02  0.00000000000E+00 0. -1.
         11    1    4    4    0    0  0.39775410260E+02  0.15273508289E+02  0.24346503676E+02  0.49072554020E+02  0.00000000000E+00 0.  1.
</event>
<event>
 8    1  0.6689467E-009  0.1045672E+03  0.7561462E-02  0.1270975E+00
         -1   -1    0    0    0  501 -0.00000000000E+00  0.00000000000E+00  0.61742622010E+02  0.61742622010E+02  0.00000000000E+00 0.  1.
          1   -1    0    0  501    0  0.00000000000E+00 -0.00000000000E+00 -0.23667550157E+03  0.23667550157E+03  0.00000000000E+00 0. -1.
         25    2    1    2    0    0 -0.18829912806E+02  0.15881805102E+02 -0.39203365330E+02  0.13338361906E+03  0.12508992218E+03 0.  0.
         23    2    1    2    0    0  0.18829912806E+02 -0.15881805102E+02 -0.13572951423E+03  0.16503450453E+03  0.90592987040E+02 0.  0.
          5    1    3    3  502    0  0.12956870489E+02  0.59634296000E+02  0.77307412585E+01  0.61655222915E+02  0.41800000000E+01 0.  1.
         -5    1    3    3    0  502 -0.31786783295E+02 -0.43752490898E+02 -0.46934106589E+02  0.71728396143E+02  0.41800000000E+01 0.  1.
        -11    1    4    4    0    0  0.55590392355E+02 -0.86557956059E+01 -0.86119184200E+02  0.10286752844E+03  0.00000000000E+00 0. -1.
         11    1    4    4    0    0 -0.36760479549E+02 -0.72260094963E+01 -0.49610330034E+02  0.62166976089E+02  0.00000000000E+00 0.  1.
</event>
<event>
 8    1  0.6689467E-009  0.9103374E+02  0.7561462E-02  0.1300367E+00
          1   -1    0    0  501    0  0.00000000000E+00  0.00000000000E+00  0.98398666526E+02  0.98398666526E+02  0.00000000000E+00 0. -1.
         -1   -1    0    0    0  501 -0.00000000000E+00 -0.00000000000E+00 -0.16107014741E+03  0.16107014741E+03  0.00000000000E+00 0.  1.
         25    2    1    2    0    0  0.62079356735E+02  0.36541166500E+02 -0.54300838433E+02  0.15422328864E+03  0.12508852194E+03 0.  0.
         23    2    1    2    0    0 -0.62079356735E+02 -0.36541166500E+02 -0.83706424539E+01  0.10524552530E+03  0.76272206990E+02 0.  0.
          5    1    3    3  502    0 -0.65105964876E+01  0.23455816301E+02  0.33715786262E+02  0.41794614823E+02  0.41800000000E+01 0.  1.
         -5    1    3    3    0  502  0.68589953223E+02  0.13085350200E+02 -0.88016624695E+02  0.11242867381E+03  0.41800000000E+01 0.  1.
        -11    1    4    4    0    0 -0.27977943931E+02 -0.44345390903E+02  0.23925297763E+02  0.57634181819E+02  0.00000000000E+00 0. -1.
         11    1    4    4    0    0 -0.34101412804E+02  0.78042244022E+01 -0.32295940217E+02  0.47611343483E+02  0.00000000000E+00 0.  1.
</event>
<event>
 8    1  0.6689467E-009  0.1104775E+03  0.7561462E-02  0.1259688E+00
         -2   -1    0    0    0  501 -0.00000000000E+00  0.00000000000E+00  0.61095012202E+02  0.61095012202E+02  0.00000000000E+00 0.  1.
          2   -1    0    0  501    0  0.00000000000E+00 -0.00000000000E+00 -0.27318355267E+03  0.27318355267E+03  0.00000000000E+00 0. -1.
         25    2    1    2    0    0 -0.20572063707E+02 -0.68157895052E+02 -0.10750548605E+03  0.17964726264E+03  0.12508797296E+03 0.  0.
         23    2    1    2    0    0  0.20572063707E+02  0.68157895052E+02 -0.10458305441E+03  0.15463130223E+03  0.88907344442E+02 0.  0.
          5    1    3    3  502    0 -0.23460342157E+02  0.33632893906E+02 -0.22672713243E+02  0.47043421777E+02  0.41800000000E+01 0. -1.
         -5    1    3    3    0  502  0.28882784508E+01 -0.10179078896E+03 -0.84832772811E+02  0.13260384086E+03  0.41800000000E+01 0. -1.
        -11    1    4    4    0    0 -0.29855297571E+01  0.43908934317E+02 -0.11172196890E+03  0.12007791735E+03  0.00000000000E+00 0. -1.
         11    1    4    4    0    0  0.23557593464E+02  0.24248960736E+02  0.71389144855E+01  0.34553384879E+02  0.00000000000E+00 0.  1.
</event>
<event>
 8    1  0.6689467E-009  0.7945231E+02  0.7561462E-02  0.1330613E+00
         -3   -1    0    0    0  501 -0.00000000000E+00  0.00000000000E+00  0.16357338864E+02  0.16357338864E+02  0.00000000000E+00 0.  1.
          3   -1    0    0  501    0  0.00000000000E+00 -0.00000000000E+00 -0.72219886843E+03  0.72219886843E+03  0.00000000000E+00 0. -1.
         25    2    1    2    0    0 -0.40625213454E+01  0.70542567929E+00 -0.39006359440E+03  0.40965080709E+03  0.12508866602E+03 0.  0.
         23    2    1    2    0    0  0.40625213454E+01 -0.70542567929E+00 -0.31577793517E+03  0.32890540021E+03  0.91902427837E+02 0.  0.
          5    1    3    3  502    0 -0.33562288491E+01  0.33947316062E+02 -0.23675804841E+02  0.41733687529E+02  0.41800000000E+01 0.  1.
         -5    1    3    3    0  502 -0.70629249630E+00 -0.33241890383E+02 -0.36638778956E+03  0.36791711956E+03  0.41800000000E+01 0.  1.
        -11    1    4    4    0    0  0.45508555137E+02  0.13073337140E+02 -0.18791735302E+03  0.19379079519E+03  0.00000000000E+00 0.  1.
         11    1    4    4    0    0 -0.41446033791E+02 -0.13778762820E+02 -0.12786058214E+03  0.13511460501E+03  0.00000000000E+00 0. -1.
</event>
<event>
 8    1  0.6689467E-009  0.1562409E+03  0.7561462E-02  0.1193007E+00
          2   -1    0    0  501    0  0.00000000000E+00  0.00000000000E+00  0.75997751537E+02  0.75997751537E+02  0.00000000000E+00 0. -1.
         -2   -1    0    0    0  501 -0.00000000000E+00 -0.00000000000E+00 -0.34357230504E+03  0.34357230504E+03  0.00000000000E+00 0.  1.
         25    2    1    2    0    0 -0.12217990880E+03 -0.38405962859E+02 -0.15220376548E+03  0.23498080089E+03  0.12508813878E+03 0.  0.
         23    2    1    2    0    0  0.12217990880E+03  0.38405962859E+02 -0.11537078802E+03  0.18458925569E+03  0.66028982195E+02 0.  0.
          5    1    3    3  502    0 -0.39914370929E+02  0.45213157969E+02 -0.64905842948E+02  0.88699647739E+02  0.41800000000E+01 0. -1.
         -5    1    3    3    0  502 -0.82265537866E+02 -0.83619120828E+02 -0.87297922533E+02  0.14628115315E+03  0.41800000000E+01 0. -1.
        -11    1    4    4    0    0  0.96173020315E+02  0.10888566882E+02 -0.49740732100E+02  0.10882072944E+03  0.00000000000E+00 0. -1.
         11    1    4    4    0    0  0.26006888480E+02  0.27517395977E+02 -0.65630055921E+02  0.75768526249E+02  0.00000000000E+00 0.  1.
</event>
<event>
 8    1  0.6689467E-009  0.3952117E+03  0.7561462E-02  0.1045450E+00
         -2   -1    0    0    0  501 -0.00000000000E+00  0.00000000000E+00  0.91528903845E+02  0.91528903845E+02  0.00000000000E+00 0.  1.
          2   -1    0    0  501    0  0.00000000000E+00 -0.00000000000E+00 -0.17522715482E+04  0.17522715482E+04  0.00000000000E+00 0. -1.
         25    2    1    2    0    0 -0.77037878947E+02 -0.37767590916E+03 -0.83370799946E+03  0.92697996990E+03  0.12509559977E+03 0.  0.
         23    2    1    2    0    0  0.77037878947E+02  0.37767590916E+03 -0.82703464487E+03  0.91682048212E+03  0.89440289935E+02 0.  0.
          5    1    3    3  502    0 -0.50575214713E+02 -0.37455458235E+03 -0.76880877218E+03  0.85669912343E+03  0.41800000000E+01 0. -1.
         -5    1    3    3    0  502 -0.26462664234E+02 -0.31213268120E+01 -0.64899227287E+02  0.70280846479E+02  0.41800000000E+01 0. -1.
        -11    1    4    4    0    0  0.46482741756E+02  0.21775983663E+03 -0.57677129172E+03  0.61825974693E+03  0.00000000000E+00 0. -1.
         11    1    4    4    0    0  0.30555137191E+02  0.15991607253E+03 -0.25026335316E+03  0.29856073519E+03  0.00000000000E+00 0.  1.
</event>
<event>
 8    1  0.6689467E-009  0.7460478E+02  0.7561462E-02  0.1345099E+00
         -1   -1    0    0    0  501 -0.00000000000E+00  0.00000000000E+00  0.30911405177E+02  0.30911405177E+02  0.00000000000E+00 0.  1.
          1   -1    0    0  501    0  0.00000000000E+00 -0.00000000000E+00 -0.36462302029E+03  0.36462302029E+03  0.00000000000E+00 0. -1.
         25    2    1    2    0    0 -0.31179153573E+01  0.66592933728E+01 -0.20263177240E+03  0.23824547964E+03  0.12508879166E+03 0.  0.
         23    2    1    2    0    0  0.31179153573E+01 -0.66592933728E+01 -0.13107984271E+03  0.15728894582E+03  0.86624590788E+02 0.  0.
          5    1    3    3  502    0 -0.31643621700E+02 -0.34219556494E+01 -0.20510637837E+03  0.20760329338E+03  0.41800000000E+01 0. -1.
         -5    1    3    3    0  502  0.28525706343E+02  0.10081249022E+02  0.24746059674E+01  0.30642186262E+02  0.41800000000E+01 0. -1.
        -11    1    4    4    0    0 -0.59466567108E+01 -0.45904256947E+02 -0.62819774911E+02  0.78031324811E+02  0.00000000000E+00 0. -1.
         11    1    4    4    0    0  0.90645720681E+01  0.39244963574E+02 -0.68260067799E+02  0.79257621013E+02  0.00000000000E+00 0.  1.
</event>
<event>
 8    1  0.6689467E-009  0.1909971E+03  0.7561462E-02  0.1157565E+00
          2   -1    0    0  501    0  0.00000000000E+00  0.00000000000E+00  0.15352251480E+03  0.15352251480E+03  0.00000000000E+00 0. -1.
         -2   -1    0    0    0  501 -0.00000000000E+00 -0.00000000000E+00 -0.29719363190E+03  0.29719363190E+03  0.00000000000E+00 0.  1.
         25    2    1    2    0    0 -0.15988300283E+03  0.84084018608E+02 -0.10973730453E+03  0.24560703946E+03  0.12509134681E+03 0.  0.
         23    2    1    2    0    0  0.15988300283E+03 -0.84084018608E+02 -0.33933812571E+02  0.20510910724E+03  0.91024971615E+02 0.  0.
          5    1    3    3  502    0 -0.14455172209E+03  0.39428505312E+02 -0.30027044996E+02  0.15286890862E+03  0.41800000000E+01 0. -1.
         -5    1    3    3    0  502 -0.15331280741E+02  0.44655513297E+02 -0.79710259532E+02  0.92738130839E+02  0.41800000000E+01 0. -1.
        -11    1    4    4    0    0  0.90871636615E+02 -0.26040685494E+02 -0.59105421095E+02  0.11148642269E+03  0.00000000000E+00 0.  1.
         11    1    4    4    0    0  0.69011366217E+02 -0.58043333114E+02  0.25171608525E+02  0.93622684547E+02  0.00000000000E+00 0. -1.
</event>
<event>
 8    1  0.6689467E-009  0.1443804E+03  0.7561462E-02  0.1207553E+00
          2   -1    0    0  501    0  0.00000000000E+00  0.00000000000E+00  0.93197892550E+03  0.93197892550E+03  0.00000000000E+00 0.  1.
         -2   -1    0    0    0  501 -0.00000000000E+00 -0.00000000000E+00 -0.29300106166E+02  0.29300106166E+02  0.00000000000E+00 0. -1.
         25    2    1    2    0    0  0.66235274415E+02 -0.10320679118E+03  0.43049803432E+03  0.46477389531E+03  0.12508981927E+03 0.  0.
         23    2    1    2    0    0 -0.66235274415E+02  0.10320679118E+03  0.47218078501E+03  0.49650513635E+03  0.92324987790E+02 0.  0.
          5    1    3    3  502    0  0.95960646605E+02 -0.82148063768E+02  0.24492540603E+03  0.27561327435E+03  0.41800000000E+01 0. -1.
         -5    1    3    3    0  502 -0.29725372190E+02 -0.21058727408E+02  0.18557262829E+03  0.18916062096E+03  0.41800000000E+01 0. -1.
        -11    1    4    4    0    0 -0.50845325499E+00  0.18408384655E+02  0.79850549546E+01  0.20072076448E+02  0.00000000000E+00 0. -1.
         11    1    4    4    0    0 -0.65726821160E+02  0.84798406522E+02  0.46419573006E+03  0.47643305991E+03  0.00000000000E+00 0.  1.
</event>
<event>
 8    1  0.6689467E-009  0.9406443E+02  0.7561462E-02  0.1293297E+00
          2   -1    0    0  501    0  0.00000000000E+00  0.00000000000E+00  0.12655084086E+04  0.12655084086E+04  0.00000000000E+00 0.  1.
         -2   -1    0    0    0  501 -0.00000000000E+00 -0.00000000000E+00 -0.16088235848E+02  0.16088235848E+02  0.00000000000E+00 0. -1.
         25    2    1    2    0    0  0.21877084274E+02 -0.39187821303E+02  0.10386349558E+04  0.10471028248E+04  0.12508981645E+03 0.  0.
         23    2    1    2    0    0 -0.21877084274E+02  0.39187821303E+02  0.21078521699E+03  0.23449381967E+03  0.92426465937E+02 0.  0.
          5    1    3    3  502    0 -0.24846953015E+02 -0.55576548596E+02  0.84476218869E+03  0.84696325284E+03  0.41800000000E+01 0. -1.
         -5    1    3    3    0  502  0.46724037289E+02  0.16388727293E+02  0.19387276707E+03  0.20013957193E+03  0.41800000000E+01 0. -1.
        -11    1    4    4    0    0 -0.10330393792E+02  0.56042154290E+02  0.20568960906E+03  0.21343770840E+03  0.00000000000E+00 0.  1.
         11    1    4    4    0    0 -0.11546690482E+02 -0.16854332987E+02  0.50956079356E+01  0.21056111269E+02  0.00000000000E+00 0. -1.
</event>
<event>
 8    1  0.6689467E-009  0.1455026E+03  0.7561462E-02  0.1206111E+00
         -2   -1    0    0    0  501 -0.00000000000E+00  0.00000000000E+00  0.20682524394E+03  0.20682524394E+03  0.00000000000E+00 0.  1.
          2   -1    0    0  501    0  0.00000000000E+00 -0.00000000000E+00 -0.15444820179E+03  0.15444820179E+03  0.00000000000E+00 0. -1.
         25    2    1    2    0    0 -0.28239377663E+02  0.12358633401E+03 -0.36652171465E+02  0.18182943627E+03  0.12509003884E+03 0.  0.
         23    2    1    2    0    0  0.28239377663E+02 -0.12358633401E+03  0.89029213616E+02  0.17944400946E+03  0.90569902553E+02 0.  0.
          5    1    3    3  502    0  0.28346386518E+02  0.36971913256E+02 -0.59609167946E+02  0.75770477771E+02  0.41800000000E+01 0.  1.
         -5    1    3    3    0  502 -0.56585764181E+02  0.86614420752E+02  0.22956996481E+02  0.10605895850E+03  0.41800000000E+01 0.  1.
        -11    1    4    4    0    0 -0.18830826935E+02 -0.48938330201E+02  0.72794344429E+02  0.89713860617E+02  0.00000000000E+00 0.  1.
         11    1    4    4    0    0  0.47070204598E+02 -0.74648003806E+02  0.16234869187E+02  0.89730148839E+02  0.00000000000E+00 0. -1.
</event>
<event>
 8    1  0.6689467E-009  0.1255658E+03  0.7561462E-02  0.1234188E+00
         -1   -1    0    0    0  501 -0.00000000000E+00  0.00000000000E+00  0.44022251210E+02  0.44022251210E+02  0.00000000000E+00 0.  1.
          1   -1    0    0  501    0  0.00000000000E+00 -0.00000000000E+00 -0.56350221588E+03  0.56350221588E+03  0.00000000000E+00 0. -1.
         25    2    1    2    0    0 -0.89518612839E+02  0.35576882420E+02 -0.39956253768E+03  0.42962444772E+03  0.12509055903E+03 0.  0.
         23    2    1    2    0    0  0.89518612839E+02 -0.35576882420E+02 -0.11991742699E+03  0.17790001936E+03  0.89380820014E+02 0.  0.
          5    1    3    3  502    0 -0.67699683021E+02 -0.33888462038E+02 -0.13125784620E+03  0.15158419947E+03  0.41800000000E+01 0. -1.
         -5    1    3    3    0  502 -0.21818929818E+02  0.69465344458E+02 -0.26830469148E+03  0.27804024825E+03  0.41800000000E+01 0. -1.
        -11    1    4    4    0    0  0.64311503560E+02 -0.41427850990E+02 -0.26492205668E+02  0.80957231233E+02  0.00000000000E+00 0.  1.
         11    1    4    4    0    0  0.25207109279E+02  0.58509685695E+01 -0.93425221323E+02  0.96942788131E+02  0.00000000000E+00 0. -1.
</event>
<event>
 8    1  0.6689467E-009  0.1228092E+03  0.7561462E-02  0.1238533E+00
          2   -1    0    0  501    0  0.00000000000E+00  0.00000000000E+00  0.45207159543E+03  0.45207159543E+03  0.00000000000E+00 0. -1.
         -2   -1    0    0    0  501 -0.00000000000E+00 -0.00000000000E+00 -0.47999165817E+02  0.47999165817E+02  0.00000000000E+00 0.  1.
         25    2    1    2    0    0 -0.11857367105E+02 -0.89799083970E+02  0.14707890519E+03  0.21326995627E+03  0.12508955695E+03 0.  0.
         23    2    1    2    0    0  0.11857367105E+02  0.89799083970E+02  0.25699352443E+03  0.28680080498E+03  0.89468192694E+02 0.  0.
          5    1    3    3  502    0  0.56624019053E+02 -0.44389426949E+02  0.72408657593E+02  0.10216255113E+03  0.41800000000E+01 0. -1.
         -5    1    3    3    0  502 -0.68481386158E+02 -0.45409657021E+02  0.74670247593E+02  0.11110740514E+03  0.41800000000E+01 0. -1.
        -11    1    4    4    0    0  0.76317155939E+00  0.48594766054E+02  0.23265293650E+03  0.23767503567E+03  0.00000000000E+00 0. -1.
         11    1    4    4    0    0  0.11094195545E+02  0.41204317916E+02  0.24340587925E+02  0.49125769310E+02  0.00000000000E+00 0.  1.
</event>
<event>
 8    1  0.6689467E-009  0.7133711E+02  0.7561462E-02  0.1355604E+00
          2   -1    0    0  501    0  0.00000000000E+00  0.00000000000E+00  0.21409304901E+03  0.21409304901E+03  0.00000000000E+00 0.  1.
         -2   -1    0    0    0  501 -0.00000000000E+00 -0.00000000000E+00 -0.60814224516E+02  0.60814224516E+02  0.00000000000E+00 0. -1.
         25    2    1    2    0    0 -0.20059074955E+01 -0.25815721811E+02  0.12384712276E+03  0.17792015501E+03  0.12508795540E+03 0.  0.
         23    2    1    2    0    0  0.20059074955E+01  0.25815721811E+02  0.29431701730E+02  0.96987118510E+02  0.88711898484E+02 0.  0.
          5    1    3    3  502    0 -0.33020587201E+02 -0.11712564149E+02  0.13676536575E+03  0.14124369369E+03  0.41800000000E+01 0.  1.
         -5    1    3    3    0  502  0.31014679706E+02 -0.14103157662E+02 -0.12918242990E+02  0.36676461324E+02  0.41800000000E+01 0.  1.
        -11    1    4    4    0    0  0.32317225197E+02 -0.13707179623E+01  0.43233376021E+02  0.53994506335E+02  0.00000000000E+00 0.  1.
         11    1    4    4    0    0 -0.30311317702E+02  0.27186439773E+02 -0.13801674291E+02  0.42992612175E+02  0.00000000000E+00 0. -1.
</event>
<event>
 8    1  0.6689467E-009  0.7455527E+02  0.7561462E-02  0.1345254E+00
         -2   -1    0    0    0  501 -0.00000000000E+00  0.00000000000E+00  0.22039690459E+03  0.22039690459E+03  0.00000000000E+00 0.  1.
          2   -1    0    0  501    0  0.00000000000E+00 -0.00000000000E+00 -0.73733432350E+02  0.73733432350E+02  0.00000000000E+00 0. -1.
         25    2    1    2    0    0  0.17853947591E+02 -0.18907373611E+02  0.14005365772E+03  0.18957432120E+03  0.12508854464E+03 0.  0.
         23    2    1    2    0    0 -0.17853947591E+02  0.18907373611E+02  0.66098145267E+01  0.10455601574E+03  0.10105453259E+03 0.  0.
          5    1    3    3  502    0  0.15120598509E+02  0.18090881515E+02  0.14922213966E+03  0.15113117434E+03  0.41800000000E+01 0.  1.
         -5    1    3    3    0  502  0.27333490821E+01 -0.36998255126E+02 -0.91684819437E+01  0.38443146863E+02  0.41800000000E+01 0.  1.
        -11    1    4    4    0    0  0.21051428972E+02 -0.22637933109E+02 -0.24723153733E+02  0.39583746762E+02  0.00000000000E+00 0.  1.
         11    1    4    4    0    0 -0.38905376563E+02  0.41545306720E+02  0.31332968260E+02  0.64972268976E+02  0.00000000000E+00 0. -1.
</event>
<event>
 8    1  0.6689467E-009  0.1138202E+03  0.7561462E-02  0.1253655E+00
          2   -1    0    0  501    0  0.00000000000E+00  0.00000000000E+00  0.12910335736E+04  0.12910335736E+04  0.00000000000E+00 0.  1.
         -2   -1    0    0    0  501 -0.00000000000E+00 -0.00000000000E+00 -0.19696699873E+02  0.19696699873E+02  0.00000000000E+00 0. -1.
         25    2    1    2    0    0 -0.64728980602E+02  0.46460094855E+02  0.10326649502E+04  0.10432607211E+04  0.12509057266E+03 0.  0.
         23    2    1    2    0    0  0.64728980602E+02 -0.46460094855E+02  0.23867192353E+03  0.26746955243E+03  0.90704426853E+02 0.  0.
          5    1    3    3  502    0 -0.35385704219E+02 -0.41568362749E+02  0.43226174283E+03  0.43571523218E+03  0.41800000000E+01 0. -1.
         -5    1    3    3    0  502 -0.29343276383E+02  0.88028457603E+02  0.60040320742E+03  0.60754548891E+03  0.41800000000E+01 0. -1.
        -11    1    4    4    0    0  0.13535106353E+02 -0.13516492205E+02 -0.19859102856E+01  0.19231185746E+02  0.00000000000E+00 0. -1.
         11    1    4    4    0    0  0.51193874249E+02 -0.32943602650E+02  0.24065783382E+03  0.24823836668E+03  0.00000000000E+00 0.  1.
</event>
<event>
 8    1  0.6689467E-009  0.1113015E+03  0.7561462E-02  0.1258178E+00
         -1   -1    0    0    0  501 -0.00000000000E+00  0.00000000000E+00  0.27097366838E+03  0.27097366838E+03  0.00000000000E+00 0.  1.
          1   -1    0    0  501    0  0.00000000000E+00 -0.00000000000E+00 -0.54355465716E+02  0.54355465716E+02  0.00000000000E+00 0. -1.
         25    2    1    2    0    0  0.27790747619E+01 -0.42774200895E+02  0.16947261496E+03  0.21496646439E+03  0.12510898479E+03 0.  0.
         23    2    1    2    0    0 -0.27790747619E+01  0.42774200895E+02  0.47145587702E+02  0.11036266970E+03  0.90110248610E+02 0.  0.
          5    1    3    3  502    0  0.63356742525E+02 -0.22500495226E+02  0.74574931415E+02  0.10049498447E+03  0.41800000000E+01 0.  1.
         -5    1    3    3    0  502 -0.60577667763E+02 -0.20273705669E+02  0.94897683545E+02  0.11447147992E+03  0.41800000000E+01 0.  1.
        -11    1    4    4    0    0 -0.10972758633E+02 -0.22713262731E+02 -0.56450418583E+01  0.25848795590E+02  0.00000000000E+00 0. -1.
         11    1    4    4    0    0  0.81936838711E+01  0.65487463626E+02  0.52790629560E+02  0.84513874108E+02  0.00000000000E+00 0.  1.
</event>
<event>
 8    1  0.6689467E-009  0.1152777E+03  0.7561462E-02  0.1251097E+00
         -1   -1    0    0    0  501 -0.00000000000E+00  0.00000000000E+00  0.49129960366E+02  0.49129960366E+02  0.00000000000E+00 0.  1.
          1   -1    0    0  501    0  0.00000000000E+00 -0.00000000000E+00 -0.30423128122E+03  0.30423128122E+03  0.00000000000E+00 0. -1.
         25    2    1    2    0    0  0.39109809816E+02 -0.22977665577E+02 -0.19227692253E+03  0.23382798573E+03  0.12509021397E+03 0.  0.
         23    2    1    2    0    0 -0.39109809816E+02  0.22977665577E+02 -0.62824398326E+02  0.11953325586E+03  0.91015075086E+02 0.  0.
          5    1    3    3  502    0  0.61508302170E+02  0.33816691681E+02 -0.84899056627E+02  0.11023684542E+03  0.41800000000E+01 0. -1.
         -5    1    3    3    0  502 -0.22398492354E+02 -0.56794357258E+02 -0.10737786590E+03  0.12359114031E+03  0.41800000000E+01 0. -1.
        -11    1    4    4    0    0 -0.15699955678E+02  0.56228984181E+02 -0.23400877840E+02  0.62895058264E+02  0.00000000000E+00 0.  1.
         11    1    4    4    0    0 -0.23409854139E+02 -0.33251318604E+02 -0.39423520486E+02  0.56638197599E+02  0.00000000000E+00 0. -1.
</event>
<event>
 8    1  0.6689467E-009  0.5837200E+02  0.7561462E-02  0.1404794E+00
         -1   -1    0    0    0  501 -0.00000000000E+00  0.00000000000E+00  0.12894445210E+03  0.12894445210E+03  0.00000000000E+00 0.  1.
          1   -1    0    0  501    0  0.00000000000E+00 -0.00000000000E+00 -0.10535694180E+03  0.10535694180E+03  0.00000000000E+00 0. -1.
         25    2    1    2    0    0  0.18446827504E+02 -0.31924581539E+02 -0.45977733973E+01  0.13049218228E+03  0.12509039038E+03 0.  0.
         23    2    1    2    0    0 -0.18446827504E+02  0.31924581539E+02  0.28185283691E+02  0.10380921162E+03  0.92857298307E+02 0.  0.
          5    1    3    3  502    0  0.19217284289E+02  0.63149079120E+01 -0.59764774871E+02  0.63233557490E+02  0.41800000000E+01 0.  1.
         -5    1    3    3    0  502 -0.77045678481E+00 -0.38239489451E+02  0.55167001474E+02  0.67258624791E+02  0.41800000000E+01 0.  1.
        -11    1    4    4    0    0  0.11459506123E+02 -0.27889288338E+01 -0.28545495135E+02  0.30885978973E+02  0.00000000000E+00 0. -1.
         11    1    4    4    0    0 -0.29906333627E+02  0.34713510372E+02  0.56730778826E+02  0.72923232646E+02  0.00000000000E+00 0.  1.
</event>
<event>
 8    1  0.6689467E-009  0.1397669E+03  0.7561462E-02  0.1213643E+00
         -2   -1    0    0    0  501 -0.00000000000E+00  0.00000000000E+00  0.18592409726E+02  0.18592409726E+02  0.00000000000E+00 0.  1.
          2   -1    0    0  501    0  0.00000000000E+00 -0.00000000000E+00 -0.11563385733E+04  0.11563385733E+04  0.00000000000E+00 0. -1.
         25    2    1    2    0    0 -0.70680366443E+02 -0.63423792435E+02 -0.71058349000E+03  0.72773273715E+03  0.12509096210E+03 0.  0.
         23    2    1    2    0    0  0.70680366443E+02  0.63423792435E+02 -0.42716267353E+03  0.44719824584E+03  0.92195606072E+02 0.  0.
          5    1    3    3  502    0  0.24600140664E+02  0.17583205948E+02 -0.10452388760E+03  0.10889008923E+03  0.41800000000E+01 0. -1.
         -5    1    3    3    0  502 -0.95280507106E+02 -0.81006998382E+02 -0.60605960240E+03  0.61884264792E+03  0.41800000000E+01 0. -1.
        -11    1    4    4    0    0  0.44574433650E+01 -0.18216812920E+02 -0.23467837913E+02  0.30040980188E+02  0.00000000000E+00 0.  1.
         11    1    4    4    0    0  0.66222923078E+02  0.81640605355E+02 -0.40369483562E+03  0.41715726565E+03  0.00000000000E+00 0. -1.
</event>
<event>
 8    1  0.6689467E-009  0.2710137E+03  0.7561462E-02  0.1100701E+00
         -1   -1    0    0    0  501 -0.00000000000E+00  0.00000000000E+00  0.17907775346E+03  0.17907775346E+03  0.00000000000E+00 0.  1.
          1   -1    0    0  501    0  0.00000000000E+00 -0.00000000000E+00 -0.45049241087E+03  0.45049241087E+03  0.00000000000E+00 0. -1.
         25    2    1    2    0    0 -0.10442454883E+03 -0.23996017021E+03 -0.12405496707E+03  0.31547229334E+03  0.12509102016E+03 0.  0.
         23    2    1    2    0    0  0.10442454883E+03  0.23996017021E+03 -0.14735969033E+03  0.31409787098E+03  0.91963169445E+02 0.  0.
          5    1    3    3  502    0 -0.36532343372E+02 -0.13503670922E+03 -0.12899302255E+03  0.19033180821E+03  0.41800000000E+01 0.  1.
         -5    1    3    3    0  502 -0.67892205455E+02 -0.10492346099E+03  0.49380554730E+01  0.12514048514E+03  0.41800000000E+01 0.  1.
        -11    1    4    4    0    0  0.90277305754E+02  0.93794797453E+02 -0.77181210758E+02  0.15134198115E+03  0.00000000000E+00 0.  1.
         11    1    4    4    0    0  0.14147243074E+02  0.14616537276E+03 -0.70178479573E+02  0.16275588984E+03  0.00000000000E+00 0. -1.
</event>
<event>
 8    1  0.6689467E-009  0.1542685E+03  0.7561462E-02  0.1195324E+00
          2   -1    0    0  501    0  0.00000000000E+00  0.00000000000E+00  0.11513710326E+03  0.11513710326E+03  0.00000000000E+00 0. -1.
         -2   -1    0    0    0  501 -0.00000000000E+00 -0.00000000000E+00 -0.21753716577E+03  0.21753716577E+03  0.00000000000E+00 0.  1.
         25    2    1    2    0    0 -0.92352185218E+02 -0.61062342219E+02 -0.44925547188E+02  0.17298432047E+03  0.12509090530E+03 0.  0.
         23    2    1    2    0    0  0.92352185218E+02  0.61062342219E+02 -0.57474515324E+02  0.15968994856E+03  0.99699669051E+02 0.  0.
          5    1    3    3  502    0 -0.12244518384E+03 -0.42827429462E+02 -0.24480197879E+02  0.13207484336E+03  0.41800000000E+01 0. -1.
         -5    1    3    3    0  502  0.30092998623E+02 -0.18234912757E+02 -0.20445349309E+02  0.40909477114E+02  0.41800000000E+01 0. -1.
        -11    1    4    4    0    0  0.77454442622E+00  0.51204045509E+02 -0.16647744605E+00  0.51210173894E+02  0.00000000000E+00 0. -1.
         11    1    4    4    0    0  0.91577640792E+02  0.98582967101E+01 -0.57308037878E+02  0.10847977467E+03  0.00000000000E+00 0.  1.
</event>
<event>
 7    1  0.6689467E-009  0.9077451E+02  0.7561462E-02  0.1300987E+00
         -2   -1    0    0    0  501 -0.00000000000E+00  0.00000000000E+00  0.34190904170E+02  0.34190904170E+02  0.00000000000E+00 0.  1.
          2   -1    0    0  501    0  0.00000000000E+00 -0.00000000000E+00 -0.70171207814E+03  0.70171207814E+03  0.00000000000E+00 0. -1.
         23    2    1    2    0    0  0.39413257764E+02 -0.63867990195E+02 -0.11766200019E+03  0.16703905898E+03  0.91788756818E+02 0.  0.
          5    1    1    2  502    0  0.17911069096E+02  0.38977113865E+02 -0.54123423517E+02  0.69186987032E+02  0.41800000000E+01 0. -1.
         -5    1    1    2    0  502 -0.57324326860E+02  0.24890876330E+02 -0.49573575027E+03  0.49967693630E+03  0.41800000000E+01 0. -1.
        -11    1    3    3    0    0  0.29215423105E+02 -0.55102000650E+02 -0.13284510673E+03  0.14675692081E+03  0.00000000000E+00 0. -1.
         11    1    3    3    0    0  0.10197834659E+02 -0.87659895445E+01  0.15183106545E+02  0.20282138171E+02  0.00000000000E+00 0.  1.
</event>
<event>
 8    1  0.6689467E-009  0.1105608E+03  0.7561462E-02  0.1259535E+00
         -1   -1    0    0    0  501 -0.00000000000E+00  0.00000000000E+00  0.21599606733E+02  0.21599606733E+02  0.00000000000E+00 0.  1.
          1   -1    0    0  501    0  0.00000000000E+00 -0.00000000000E+00 -0.70436888875E+03  0.70436888875E+03  0.00000000000E+00 0. -1.
         25    2    1    2    0    0  0.53052163831E+02 -0.79830514758E+00 -0.36183979814E+03  0.38651222154E+03  0.12509391875E+03 0.  0.
         23    2    1    2    0    0 -0.53052163831E+02  0.79830514758E+00 -0.32092948388E+03  0.33945627394E+03  0.97054927306E+02 0.  0.
          5    1    3    3  502    0  0.59068386855E+02  0.39859378332E+02 -0.31942275680E+03  0.32730141205E+03  0.41800000000E+01 0.  1.
         -5    1    3    3    0  502 -0.60162230238E+01 -0.40657683480E+02 -0.42417041338E+02  0.59210809497E+02  0.41800000000E+01 0.  1.
        -11    1    4    4    0    0  0.26580956540E+02  0.97069027852E+01 -0.57111339769E+02  0.63737558335E+02  0.00000000000E+00 0.  1.
         11    1    4    4    0    0 -0.79633120371E+02 -0.89085976376E+01 -0.26381814411E+03  0.27571871560E+03  0.00000000000E+00 0. -1.
</event>
<event>
 8    1  0.6689467E-009  0.1142271E+03  0.7561462E-02  0.1252936E+00
         -2   -1    0    0    0  501 -0.00000000000E+00  0.00000000000E+00  0.32576730975E+02  0.32576730975E+02  0.00000000000E+00 0.  1.
          2   -1    0    0  501    0  0.00000000000E+00 -0.00000000000E+00 -0.57522535679E+03  0.57522535679E+03  0.00000000000E+00 0. -1.
         25    2    1    2    0    0  0.12081318955E+02 -0.80142517313E+02 -0.33123689309E+03  0.36322775422E+03  0.12509092989E+03 0.  0.
         23    2    1    2    0    0 -0.12081318955E+02  0.80142517313E+02 -0.21141173272E+03  0.24457433354E+03  0.92481903890E+02 0.  0.
          5    1    3    3  502    0  0.42109608677E+02 -0.13814965802E+02 -0.30961637254E+02  0.54223314215E+02  0.41800000000E+01 0.  1.
         -5    1    3    3    0  502 -0.30028289722E+02 -0.66327551511E+02 -0.30027525584E+03  0.30900444000E+03  0.41800000000E+01 0.  1.
        -11    1    4    4    0    0  0.32236403078E+02  0.38313745610E+02 -0.14966926032E+03  0.15782273686E+03  0.00000000000E+00 0. -1.
         11    1    4    4    0    0 -0.44317722033E+02  0.41828771704E+02 -0.61742472399E+02  0.86751596679E+02  0.00000000000E+00 0.  1.
</event>
<event>
 8    1  0.6689467E-009  0.1761148E+03  0.7561462E-02  0.1171617E+00
          2   -1    0    0  501    0  0.00000000000E+00  0.00000000000E+00  0.48056672295E+03  0.48056672295E+03  0.00000000000E+00 0. -1.
         -2   -1    0    0    0  501 -0.00000000000E+00 -0.00000000000E+00 -0.79537394309E+02  0.79537394309E+02  0.00000000000E+00 0.  1.
         25    2    1    2    0    0 -0.14674665489E+03  0.55668540750E+02  0.27119933930E+03  0.33738750767E+03  0.12509069328E+03 0.  0.
         23    2    1    2    0    0  0.14674665489E+03 -0.55668540750E+02  0.12982998934E+03  0.22271660959E+03  0.90073830300E+02 0.  0.
          5    1    3    3  502    0 -0.64703736913E+02 -0.28692213196E+02  0.49871472817E+02  0.86685943898E+02  0.41800000000E+01 0.  1.
         -5    1    3    3    0  502 -0.82042917973E+02  0.84360753945E+02  0.22132786648E+03  0.25070156377E+03  0.41800000000E+01 0.  1.
        -11    1    4    4    0    0  0.94813264367E+02 -0.11706296040E+02  0.12090284805E+03  0.15409117799E+03  0.00000000000E+00 0.  1.
         11    1    4    4    0    0  0.51933390519E+02 -0.43962244710E+02  0.89271412894E+01  0.68625431600E+02  0.00000000000E+00 0. -1.
</event>
<event>
 7    1  0.6689467E-009  0.1380609E+03  0.7561462E-02  0.1215962E+00
          2   -1    0    0  501    0  0.00000000000E+00  0.00000000000E+00  0.12973211278E+03  0.12973211278E+03  0.00000000000E+00 0. -1.
         -2   -1    0    0    0  501 -0.00000000000E+00 -0.00000000000E+00 -0.22469091004E+03  0.22469091004E+03  0.00000000000E+00 0.  1.
         25    2    1    2    0    0  0.47612354610E+02  0.10178819003E+03 -0.59284230636E+02  0.17829878177E+03  0.12509222053E+03 0.  0.
          5    1    3    3  502    0 -0.16499163134E+02  0.97892726647E+02 -0.15771661851E+02  0.10060529823E+03  0.41800000000E+01 0.  1.
         -5    1    3    3    0  502  0.64111517744E+02  0.38954633854E+01 -0.43512568784E+02  0.77693483540E+02  0.41800000000E+01 0.  1.
        -11    1    1    2    0    0 -0.40822348730E+02 -0.89005215685E+02  0.34996375460E+02  0.10398624366E+03  0.00000000000E+00 0. -1.
         11    1    1    2    0    0 -0.67900058803E+01 -0.12782974347E+02 -0.70670942079E+02  0.72137997389E+02  0.00000000000E+00 0.  1.
</event>
<event>
 8    1  0.6689467E-009  0.1028351E+03  0.7561462E-02  0.1274445E+00
          2   -1    0    0  501    0  0.00000000000E+00  0.00000000000E+00  0.19679487064E+03  0.19679487064E+03  0.00000000000E+00 0. -1.
         -2   -1    0    0    0  501 -0.00000000000E+00 -0.00000000000E+00 -0.15314956642E+03  0.15314956642E+03  0.00000000000E+00 0.  1.
         25    2    1    2    0    0 -0.47974737135E+01 -0.70790979649E+02  0.13794021971E+03  0.19927238149E+03  0.12509036436E+03 0.  0.
         23    2    1    2    0    0  0.47974737135E+01  0.70790979649E+02 -0.94294915497E+02  0.15067205556E+03  0.93681154375E+02 0.  0.
          5    1    3    3  502    0  0.33533109733E+02 -0.76669736711E+02  0.13659624514E+03  0.16024582541E+03  0.41800000000E+01 0. -1.
         -5    1    3    3    0  502 -0.38330583447E+02  0.58787570621E+01  0.13439745791E+01  0.39026556082E+02  0.41800000000E+01 0. -1.
        -11    1    4    4    0    0 -0.18957439999E+02  0.25966705047E+02 -0.94628657695E+02  0.99941168492E+02  0.00000000000E+00 0.  1.
         11    1    4    4    0    0  0.23754913712E+02  0.44824274603E+02  0.33374219783E+00  0.50730887071E+02  0.00000000000E+00 0. -1.
</event>
<event>
 8    1  0.6689467E-009  0.1224124E+03  0.7561462E-02  0.1239170E+00
          2   -1    0    0  501    0  0.00000000000E+00  0.00000000000E+00  0.15317432568E+03  0.15317432568E+03  0.00000000000E+00 0. -1.
         -2   -1    0    0    0  501 -0.00000000000E+00 -0.00000000000E+00 -0.15764953168E+03  0.15764953168E+03  0.00000000000E+00 0.  1.
         25    2    1    2    0    0 -0.84400783733E+00 -0.82174767722E+02 -0.74273179743E+02  0.16708290963E+03  0.12508712429E+03 0.  0.
         23    2    1    2    0    0  0.84400783733E+00  0.82174767722E+02  0.69797973744E+02  0.14374094774E+03  0.95059445181E+02 0.  0.
          5    1    3    3  502    0  0.45487279826E+02 -0.78555660443E+02 -0.15734169536E+02  0.92223212396E+02  0.41800000000E+01 0.  1.
         -5    1    3    3    0  502 -0.46331287663E+02 -0.36191072782E+01 -0.58539010208E+02  0.74859697235E+02  0.41800000000E+01 0.  1.
        -11    1    4    4    0    0  0.34286859892E+02  0.31384724252E+02 -0.56637270551E+01  0.46825927452E+02  0.00000000000E+00 0.  1.
         11    1    4    4    0    0 -0.33442852054E+02  0.50790043470E+02  0.75461700800E+02  0.96915020285E+02  0.00000000000E+00 0. -1.
</event>
<event>
 8    1  0.6689467E-009  0.9062026E+02  0.7561462E-02  0.1301357E+00
         -1   -1    0    0    0  501 -0.00000000000E+00  0.00000000000E+00  0.62736792209E+02  0.62736792209E+02  0.00000000000E+00 0.  1.
          1   -1    0    0  501    0  0.00000000000E+00 -0.00000000000E+00 -0.19126647027E+03  0.19126647027E+03  0.00000000000E+00 0. -1.
         25    2    1    2    0    0 -0.87973117493E+01  0.22309844823E+02 -0.10542264489E+03  0.16533247776E+03  0.12508306150E+03 0.  0.
         23    2    1    2    0    0  0.87973117493E+01 -0.22309844823E+02 -0.23107033176E+02  0.88670784727E+02  0.82179384348E+02 0.  0.
          5    1    3    3  502    0 -0.55917151786E+02  0.23062598858E+02 -0.10101871490E+03  0.11781708064E+03  0.41800000000E+01 0.  1.
         -5    1    3    3    0  502  0.47119840037E+02 -0.75275403427E+00 -0.44039299871E+01  0.47515397116E+02  0.41800000000E+01 0.  1.
        -11    1    4    4    0    0  0.38083894601E+02 -0.29629279967E+01 -0.34800405641E+02  0.51674270223E+02  0.00000000000E+00 0. -1.
         11    1    4    4    0    0 -0.29286582852E+02 -0.19346916827E+02  0.11693372466E+02  0.36996514504E+02  0.00000000000E+00 0.  1.
</event>
<event>
 8    1  0.6689467E-009  0.9595786E+02  0.7561462E-02  0.1289033E+00
         -3   -1    0    0    0  501 -0.00000000000E+00  0.00000000000E+00  0.26100238113E+03  0.26100238113E+03  0.00000000000E+00 0.  1.
          3   -1    0    0  501    0  0.00000000000E+00 -0.00000000000E+00 -0.60199381257E+02  0.60199381257E+02  0.00000000000E+00 0. -1.
         25    2    1    2    0    0  0.31289267495E+02 -0.18033910573E+02  0.15706700717E+03  0.20401562965E+03  0.12509233474E+03 0.  0.
         23    2    1    2    0    0 -0.31289267495E+02  0.18033910573E+02  0.43735992705E+02  0.11718613273E+03  0.10254517276E+03 0.  0.
          5    1    3    3  502    0  0.22647474093E+02 -0.59386019144E+02  0.14726124905E+03  0.16044611315E+03  0.41800000000E+01 0.  1.
         -5    1    3    3    0  502  0.86417934015E+01  0.41352108571E+02  0.98057581204E+01  0.43569516508E+02  0.41800000000E+01 0.  1.
        -11    1    4    4    0    0 -0.10300371316E+02 -0.30874244106E+02  0.53936566242E+02  0.62995791735E+02  0.00000000000E+00 0.  1.
         11    1    4    4    0    0 -0.20988896178E+02  0.48908154679E+02 -0.10200573537E+02  0.54190340997E+02  0.00000000000E+00 0. -1.
</event>
<event>
 8    1  0.6689467E-009  0.6253439E+02  0.7561462E-02  0.1387494E+00
         -2   -1    0    0    0  501 -0.00000000000E+00  0.00000000000E+00  0.65698511937E+03  0.65698511937E+03  0.00000000000E+00 0.  1.
          2   -1    0    0  501    0  0.00000000000E+00 -0.00000000000E+00 -0.24676518743E+02  0.24676518743E+02  0.00000000000E+00 0. -1.
         25    2    1    2    0    0  0.53440210148E+01  0.16440338756E+02  0.46880239357E+03  0.48551053354E+03  0.12508377458E+03 0.  0.
         23    2    1    2    0    0 -0.53440210148E+01 -0.16440338756E+02  0.16350620706E+03  0.19615110457E+03  0.10696790537E+03 0.  0.
          5    1    3    3  502    0 -0.18001747943E+02  0.33109752140E+01  0.31111654205E+01  0.19030954683E+02  0.41800000000E+01 0. -1.
         -5    1    3    3    0  502  0.23345768958E+02  0.13129363542E+02  0.46569122815E+03  0.46647957886E+03  0.41800000000E+01 0. -1.
        -11    1    4    4    0    0  0.24520844226E+02 -0.35947248661E+02  0.15284858427E+03  0.15892188710E+03  0.00000000000E+00 0.  1.
         11    1    4    4    0    0 -0.29864865241E+02  0.19506909904E+02  0.10657622790E+02  0.37229217470E+02  0.00000000000E+00 0. -1.
</event>
<event>
 8    1  0.6689467E-009  0.1693743E+03  0.7561462E-02  0.1178502E+00
          1   -1    0    0  501    0  0.00000000000E+00  0.00000000000E+00  0.64037970875E+03  0.64037970875E+03  0.00000000000E+00 0. -1.
         -1   -1    0    0    0  501 -0.00000000000E+00 -0.00000000000E+00 -0.91899807344E+02  0.91899807344E+02  0.00000000000E+00 0.  1.
         25    2    1    2    0    0  0.45679140461E+02  0.12251426482E+03  0.22016401150E+02  0.18228718442E+03  0.12509023434E+03 0.  0.
         23    2    1    2    0    0 -0.45679140461E+02 -0.12251426482E+03  0.52646350025E+03  0.54999233167E+03  0.90727167033E+02 0.  0.
          5    1    3    3  502    0 -0.41461389510E+02  0.23927360108E+02 -0.35480433120E+01  0.48183258433E+02  0.41800000000E+01 0.  1.
         -5    1    3    3    0  502  0.87140529971E+02  0.98586904715E+02  0.25564444462E+02  0.13410392599E+03  0.41800000000E+01 0.  1.
        -11    1    4    4    0    0  0.20818905441E+02 -0.73635381419E+02  0.24378392634E+03  0.25551164154E+03  0.00000000000E+00 0. -1.
         11    1    4    4    0    0 -0.66498045902E+02 -0.48878883405E+02  0.28267957391E+03  0.29448069013E+03  0.00000000000E+00 0.  1.
</event>
<event>
 8    1  0.6689467E-009  0.8552608E+02  0.7561462E-02  0.1314062E+00
         -2   -1    0    0    0  501 -0.00000000000E+00  0.00000000000E+00  0.50005464853E+02  0.50005464853E+02  0.00000000000E+00 0. -1.
          2   -1    0    0  501    0  0.00000000000E+00 -0.00000000000E+00 -0.41568675293E+03  0.41568675293E+03  0.00000000000E+00 0.  1.
         25    2    1    2    0    0  0.70859469667E+01 -0.21196786241E+02 -0.45775076530E+02  0.13505967000E+03  0.12508494090E+03 0.  0.
         23    2    1    2    0    0 -0.70859469667E+01  0.21196786241E+02 -0.31990621155E+03  0.33063254778E+03  0.80488403341E+02 0.  0.
          5    1    3    3  502    0 -0.22782254347E+02 -0.44007812088E+02 -0.73095188950E+02  0.88408696889E+02  0.41800000000E+01 0. -1.
         -5    1    3    3    0  502  0.29868201314E+02  0.22811025846E+02  0.27320112421E+02  0.46650973115E+02  0.41800000000E+01 0. -1.
        -11    1    4    4    0    0  0.35561869320E+02  0.20090380859E+02 -0.16068983239E+03  0.16579955424E+03  0.00000000000E+00 0. -1.
         11    1    4    4    0    0 -0.42647816287E+02  0.11064053829E+01 -0.15921637915E+03  0.16483299354E+03  0.00000000000E+00 0.  1.
</event>
<event>
 8    1  0.6689467E-009  0.1404767E+03  0.7561462E-02  0.1212689E+00
         -4   -1    0    0    0  501 -0.00000000000E+00  0.00000000000E+00  0.66162981461E+03  0.66162981461E+03  0.00000000000E+00 0.  1.
          4   -1    0    0  501    0  0.00000000000E+00 -0.00000000000E+00 -0.40746689746E+02  0.40746689746E+02  0.00000000000E+00 0. -1.
         25    2    1    2    0    0 -0.10653837158E+03  0.39329964031E+02  0.24107316229E+03  0.29438379512E+03  0.12509307959E+03 0.  0.
         23    2    1    2    0    0  0.10653837158E+03 -0.39329964031E+02  0.37980996257E+03  0.40799270923E+03  0.96463321689E+02 0.  0.
          5    1    3    3  502    0 -0.49617812745E+01 -0.35260197814E+02  0.94304410649E+02  0.10088951923E+03  0.41800000000E+01 0.  1.
         -5    1    3    3    0  502 -0.10157659031E+03  0.74590161844E+02  0.14676875165E+03  0.19349427589E+03  0.41800000000E+01 0.  1.
        -11    1    4    4    0    0  0.98856723295E+02 -0.23795632926E+02  0.37695670388E+03  0.39042955893E+03  0.00000000000E+00 0.  1.
         11    1    4    4    0    0  0.76816482853E+01 -0.15534331104E+02  0.28532586834E+01  0.17563150297E+02  0.00000000000E+00 0. -1.
</event>
<event>
 8    1  0.6689467E-009  0.1206481E+03  0.7561462E-02  0.1242032E+00
          1   -1    0    0  501    0  0.00000000000E+00  0.00000000000E+00  0.15111105704E+03  0.15111105704E+03  0.00000000000E+00 0. -1.
         -1   -1    0    0    0  501 -0.00000000000E+00 -0.00000000000E+00 -0.14944859909E+03  0.14944859909E+03  0.00000000000E+00 0.  1.
         25    2    1    2    0    0 -0.63914942427E+02  0.79885826874E+02  0.15199939509E+02  0.16231312049E+03  0.12509055009E+03 0.  0.
         23    2    1    2    0    0  0.63914942427E+02 -0.79885826874E+02 -0.13537481558E+02  0.13824653564E+03  0.91988999388E+02 0.  0.
          5    1    3    3  502    0 -0.45707163802E+02 -0.10085682269E+02 -0.34072985127E+02  0.58045727880E+02  0.41800000000E+01 0.  1.
         -5    1    3    3    0  502 -0.18207778625E+02  0.89971509143E+02  0.49272924636E+02  0.10426739261E+03  0.41800000000E+01 0.  1.
        -11    1    4    4    0    0  0.16108797074E+02 -0.23457757367E+02 -0.48663083899E+02  0.56372470749E+02  0.00000000000E+00 0.  1.
         11    1    4    4    0    0  0.47806145352E+02 -0.56428069507E+02  0.35125602341E+02  0.81874064890E+02  0.00000000000E+00 0. -1.
</event>
<event>
 8    1  0.6689467E-009  0.1017693E+03  0.7561462E-02  0.1276619E+00
          4   -1    0    0  501    0  0.00000000000E+00  0.00000000000E+00  0.25537259242E+03  0.25537259242E+03  0.00000000000E+00 0. -1.
         -4   -1    0    0    0  501 -0.00000000000E+00 -0.00000000000E+00 -0.64283031173E+02  0.64283031173E+02  0.00000000000E+00 0.  1.
         25    2    1    2    0    0 -0.40784366606E+02 -0.11824288851E+02  0.17393528790E+03  0.21841094494E+03  0.12508668245E+03 0.  0.
         23    2    1    2    0    0  0.40784366606E+02  0.11824288851E+02  0.17154273348E+02  0.10124467865E+03  0.90294171989E+02 0.  0.
          5    1    3    3  502    0 -0.33517549581E+02 -0.56077395803E+02  0.15733172007E+03  0.17040787244E+03  0.41800000000E+01 0. -1.
         -5    1    3    3    0  502 -0.72668170252E+01  0.44253106952E+02  0.16603567831E+02  0.48003072499E+02  0.41800000000E+01 0. -1.
        -11    1    4    4    0    0  0.23969777256E+02  0.47716468530E+02 -0.84431407454E+01  0.54061984946E+02  0.00000000000E+00 0.  1.
         11    1    4    4    0    0  0.16814589350E+02 -0.35892179680E+02  0.25597414093E+02  0.47182693707E+02  0.00000000000E+00 0. -1.
</event>
<event>
 8    1  0.6689467E-009  0.1090343E+03  0.7561462E-02  0.1262369E+00
         -1   -1    0    0    0  501 -0.00000000000E+00  0.00000000000E+00  0.34057873831E+03  0.34057873831E+03  0.00000000000E+00 0.  1.
          1   -1    0    0  501    0  0.00000000000E+00 -0.00000000000E+00 -0.46119144993E+02  0.46119144993E+02  0.00000000000E+00 0. -1.
         25    2    1    2    0    0  0.44316623572E+02 -0.42838927034E+02  0.17209813195E+03  0.22150669661E+03  0.12509321656E+03 0.  0.
         23    2    1    2    0    0 -0.44316623572E+02  0.42838927034E+02  0.12236146136E+03  0.16519118669E+03  0.92285774300E+02 0.  0.
          5    1    3    3  502    0 -0.16493548819E+02 -0.45234679907E+02  0.11449801611E+02  0.49666727050E+02  0.41800000000E+01 0.  1.
         -5    1    3    3    0  502  0.60810172391E+02  0.23957528728E+01  0.16064833034E+03  0.17183996956E+03  0.41800000000E+01 0.  1.
        -11    1    4    4    0    0  0.81073945213E+01 -0.23110720840E+02  0.14996085291E+02  0.28717900998E+02  0.00000000000E+00 0. -1.
         11    1    4    4    0    0 -0.52424018093E+02  0.65949647874E+02  0.10736537607E+03  0.13647328569E+03  0.00000000000E+00 0.  1.
</event>
<event>
 8    1  0.6689467E-009  0.1069762E+03  0.7561462E-02  0.1266274E+00
         -2   -1    0    0    0  501 -0.00000000000E+00  0.00000000000E+00  0.23488437358E+02  0.23488437358E+02  0.00000000000E+00 0.  1.
          2   -1    0    0  501    0  0.00000000000E+00 -0.00000000000E+00 -0.13796519509E+04  0.13796519509E+04  0.00000000000E+00 0. -1.
         25    2    1    2    0    0  0.48600463893E+02 -0.80230931599E+02 -0.11500943306E+04  0.11606738106E+04  0.12509083869E+03 0.  0.
         23    2    1    2    0    0 -0.48600463893E+02  0.80230931599E+02 -0.20606918297E+03  0.24246657765E+03  0.86755551036E+02 0.  0.
          5    1    3    3  502    0  0.34186860912E+02 -0.25840484990E+02 -0.97689906345E+02  0.10675796141E+03  0.41800000000E+01 0. -1.
         -5    1    3    3    0  502  0.14413602981E+02 -0.54390446609E+02 -0.10524044242E+04  0.10539158492E+04  0.41800000000E+01 0. -1.
        -11    1    4    4    0    0 -0.24604491464E+02  0.86284731263E+02 -0.10360586179E+03  0.13705696060E+03  0.00000000000E+00 0.  1.
         11    1    4    4    0    0 -0.23995972429E+02 -0.60537996647E+01 -0.10246332117E+03  0.10540961706E+03  0.00000000000E+00 0. -1.
</event>
<event>
 8    1  0.6689467E-009  0.8806736E+02  0.7561462E-02  0.1307601E+00
          1   -1    0    0  501    0  0.00000000000E+00  0.00000000000E+00  0.10721109372E+03  0.10721109372E+03  0.00000000000E+00 0. -1.
         -1   -1    0    0    0  501 -0.00000000000E+00 -0.00000000000E+00 -0.18987826330E+03  0.18987826330E+03  0.00000000000E+00 0.  1.
         25    2    1    2    0    0 -0.79567940312E+02 -0.30381422403E+02 -0.81122673139E+02  0.17170690387E+03  0.12509310447E+03 0.  0.
         23    2    1    2    0    0  0.79567940312E+02  0.30381422403E+02 -0.15444964419E+01  0.12538245316E+03  0.92001555085E+02 0.  0.
          5    1    3    3  502    0 -0.18504833691E+02 -0.17514580774E+01 -0.99799859806E+02  0.10160207130E+03  0.41800000000E+01 0. -1.
         -5    1    3    3    0  502 -0.61063106621E+02 -0.28629964326E+02  0.18677186667E+02  0.70104832567E+02  0.41800000000E+01 0. -1.
        -11    1    4    4    0    0  0.18921165533E+02 -0.46369634737E+01  0.39619188085E+02  0.44149654584E+02  0.00000000000E+00 0. -1.
         11    1    4    4    0    0  0.60646774779E+02  0.35018385877E+02 -0.41163684526E+02  0.81232798575E+02  0.00000000000E+00 0.  1.
</event>
<event>
 8    1  0.6689467E-009  0.1061483E+03  0.7561462E-02  0.1267874E+00
         -2   -1    0    0    0  501 -0.00000000000E+00  0.00000000000E+00  0.13343233270E+03  0.13343233270E+03  0.00000000000E+00 0.  1.
          2   -1    0    0  501    0  0.00000000000E+00 -0.00000000000E+00 -0.14599793673E+03  0.14599793673E+03  0.00000000000E+00 0. -1.
         25    2    1    2    0    0 -0.15010391353E+02  0.42648941854E+02 -0.83355529130E+02  0.15697268959E+03  0.12509211386E+03 0.  0.
         23    2    1    2    0    0  0.15010391353E+02 -0.42648941854E+02  0.70789925098E+02  0.12245757983E+03  0.89108929258E+02 0.  0.
          5    1    3    3  502    0  0.34427651625E+01 -0.43623896925E+02 -0.35596383443E+02  0.56563874771E+02  0.41800000000E+01 0. -1.
         -5    1    3    3    0  502 -0.18453156516E+02  0.86272838779E+02 -0.47759145687E+02  0.10040881482E+03  0.41800000000E+01 0. -1.
        -11    1    4    4    0    0  0.33653717830E+01 -0.59465001613E+02  0.12737387784E+02  0.60906922362E+02  0.00000000000E+00 0. -1.
         11    1    4    4    0    0  0.11645019570E+02  0.16816059759E+02  0.58052537314E+02  0.61550657472E+02  0.00000000000E+00 0.  1.
</event>
<event>
 8    1  0.6689467E-009  0.1953276E+03  0.7561462E-02  0.1153742E+00
          1   -1    0    0  501    0  0.00000000000E+00  0.00000000000E+00  0.11678367844E+04  0.11678367844E+04  0.00000000000E+00 0. -1.
         -1   -1    0    0    0  501 -0.00000000000E+00 -0.00000000000E+00 -0.37924233945E+02  0.37924233945E+02  0.00000000000E+00 0.  1.
         25    2    1    2    0    0 -0.15055428399E+03  0.74838079848E+02  0.76905854235E+03  0.79709851160E+03  0.12509062721E+03 0.  0.
         23    2    1    2    0    0  0.15055428399E+03 -0.74838079848E+02  0.36085400812E+03  0.40866250676E+03  0.92315213427E+02 0.  0.
          5    1    3    3  502    0 -0.12987254610E+03  0.10356360518E+03  0.69920261782E+03  0.71867521991E+03  0.41800000000E+01 0.  1.
         -5    1    3    3    0  502 -0.20681737891E+02 -0.28725525335E+02  0.69855924533E+02  0.78423291695E+02  0.41800000000E+01 0.  1.
        -11    1    4    4    0    0  0.89251664206E+02 -0.88882688584E+02  0.27258049352E+03  0.30027673459E+03  0.00000000000E+00 0.  1.
         11    1    4    4    0    0  0.61302619782E+02  0.14044608736E+02  0.88273514608E+02  0.10838577217E+03  0.00000000000E+00 0. -1.
</event>
<event>
 8    1  0.6689467E-009  0.1917775E+03  0.7561462E-02  0.1156868E+00
          3   -1    0    0  501    0  0.00000000000E+00  0.00000000000E+00  0.40498003442E+03  0.40498003442E+03  0.00000000000E+00 0. -1.
         -3   -1    0    0    0  501 -0.00000000000E+00 -0.00000000000E+00 -0.92305033496E+02  0.92305033496E+02  0.00000000000E+00 0.  1.
         25    2    1    2    0    0  0.13847595151E+03 -0.83140886788E+02  0.15990016042E+03  0.25942758991E+03  0.12508643771E+03 0.  0.
         23    2    1    2    0    0 -0.13847595151E+03  0.83140886788E+02  0.15277484051E+03  0.23785747801E+03  0.84546033326E+02 0.  0.
          5    1    3    3  502    0  0.14776543513E+03 -0.10228657196E+03  0.15460879613E+03  0.23710444715E+03  0.41800000000E+01 0. -1.
         -5    1    3    3    0  502 -0.92894836142E+01  0.19145685167E+02  0.52913642949E+01  0.22323142755E+02  0.41800000000E+01 0. -1.
        -11    1    4    4    0    0 -0.46518413478E+02 -0.13765703725E+02  0.45729452442E+02  0.66668134908E+02  0.00000000000E+00 0. -1.
         11    1    4    4    0    0 -0.91957538034E+02  0.96906590513E+02  0.10704538806E+03  0.17118934310E+03  0.00000000000E+00 0.  1.
</event>
<event>
 8    1  0.6689467E-009  0.7907177E+02  0.7561462E-02  0.1331706E+00
         -4   -1    0    0    0  501 -0.00000000000E+00  0.00000000000E+00  0.49641275403E+02  0.49641275403E+02  0.00000000000E+00 0.  1.
          4   -1    0    0  501    0  0.00000000000E+00 -0.00000000000E+00 -0.25633678949E+03  0.25633678949E+03  0.00000000000E+00 0. -1.
         25    2    1    2    0    0 -0.11595550689E+02  0.21503985294E+02 -0.14117310962E+03  0.19019591296E+03  0.12509100786E+03 0.  0.
         23    2    1    2    0    0  0.11595550689E+02 -0.21503985294E+02 -0.65522404461E+02  0.11578215193E+03  0.92279158210E+02 0.  0.
          5    1    3    3  502    0  0.18481054089E+02  0.42576690678E+02 -0.14568785834E+03  0.15295995691E+03  0.41800000000E+01 0. -1.
         -5    1    3    3    0  502 -0.30076604778E+02 -0.21072705384E+02  0.45147487172E+01  0.37235956052E+02  0.41800000000E+01 0. -1.
        -11    1    4    4    0    0  0.17637226547E+02  0.23382530419E+02  0.71528434844E+01  0.30149256359E+02  0.00000000000E+00 0.  1.
         11    1    4    4    0    0 -0.60416758578E+01 -0.44886515713E+02 -0.72675247945E+02  0.85632895571E+02  0.00000000000E+00 0. -1.
</event>
<event>
 8    1  0.6689467E-009  0.2336988E+03  0.7561462E-02  0.1124063E+00
         -4   -1    0    0    0  501 -0.00000000000E+00  0.00000000000E+00  0.18295279009E+03  0.18295279009E+03  0.00000000000E+00 0.  1.
          4   -1    0    0  501    0  0.00000000000E+00 -0.00000000000E+00 -0.37479431678E+03  0.37479431678E+03  0.00000000000E+00 0. -1.
         25    2    1    2    0    0 -0.19986162823E+03  0.80729413377E+02  0.95359140821E+01  0.24939307369E+03  0.12507622844E+03 0.  0.
         23    2    1    2    0    0  0.19986162823E+03 -0.80729413377E+02 -0.20137744077E+03  0.30835403318E+03  0.89818859380E+02 0.  0.
          5    1    3    3  502    0 -0.94751728995E+02  0.10214393006E+03  0.22753123347E+02  0.14123190014E+03  0.41800000000E+01 0. -1.
         -5    1    3    3    0  502 -0.10510989924E+03 -0.21414516680E+02 -0.13217209265E+02  0.10816117355E+03  0.41800000000E+01 0. -1.
        -11    1    4    4    0    0  0.38650001093E+02 -0.37271893925E+02 -0.10419354464E+02  0.54695334433E+02  0.00000000000E+00 0.  1.
         11    1    4    4    0    0  0.16121162714E+03 -0.43457519452E+02 -0.19095808631E+03  0.25365869874E+03  0.00000000000E+00 0. -1.
</event>
<event>
 8    1  0.6689467E-009  0.1081870E+03  0.7561462E-02  0.1263964E+00
         -2   -1    0    0    0  501 -0.00000000000E+00  0.00000000000E+00  0.11231891858E+02  0.11231891858E+02  0.00000000000E+00 0.  1.
          2   -1    0    0  501    0  0.00000000000E+00 -0.00000000000E+00 -0.21401890332E+04  0.21401890332E+04  0.00000000000E+00 0. -1.
         25    2    1    2    0    0  0.68511789533E+02 -0.46142916603E+02 -0.16574135492E+04  0.16641784416E+04  0.12508868233E+03 0.  0.
         23    2    1    2    0    0 -0.68511789533E+02  0.46142916603E+02 -0.47154359216E+03  0.48724248345E+03  0.90712977641E+02 0.  0.
          5    1    3    3  502    0  0.46553932529E+02 -0.43773041170E+01 -0.14739664104E+04  0.14747138302E+04  0.41800000000E+01 0. -1.
         -5    1    3    3    0  502  0.21957857004E+02 -0.41765612486E+02 -0.18344713875E+03  0.18946461143E+03  0.41800000000E+01 0. -1.
        -11    1    4    4    0    0 -0.44623433470E+02 -0.22069907827E+02 -0.21697950747E+03  0.22261724620E+03  0.00000000000E+00 0. -1.
         11    1    4    4    0    0 -0.23888356063E+02  0.68212824430E+02 -0.25456408469E+03  0.26462523724E+03  0.00000000000E+00 0.  1.
</event>
<event>
 8    1  0.6689467E-009  0.1782216E+03  0.7561462E-02  0.1169535E+00
          1   -1    0    0  501    0  0.00000000000E+00  0.00000000000E+00  0.43755125284E+03  0.43755125284E+03  0.00000000000E+00 0. -1.
         -1   -1    0    0    0  501 -0.00000000000E+00 -0.00000000000E+00 -0.91236088545E+02  0.91236088545E+02  0.00000000000E+00 0.  1.
         25    2    1    2    0    0  0.10469614473E+03 -0.11820922357E+03  0.89853547705E+02  0.22057900657E+03  0.12508690917E+03 0.  0.
         23    2    1    2    0    0 -0.10469614473E+03  0.11820922357E+03  0.25646161659E+03  0.30820833482E+03  0.65460779163E+02 0.  0.
          5    1    3    3  502    0  0.20172899025E+02 -0.11164175606E+03  0.32322690935E+02  0.11803836792E+03  0.41800000000E+01 0.  1.
         -5    1    3    3    0  502  0.84523245703E+02 -0.65674675072E+01  0.57530856770E+02  0.10254063865E+03  0.41800000000E+01 0.  1.
        -11    1    4    4    0    0 -0.87330623782E+02  0.94882260078E+02  0.14983035118E+03  0.19768261245E+03  0.00000000000E+00 0.  1.
         11    1    4    4    0    0 -0.17365520947E+02  0.23326963492E+02  0.10663126541E+03  0.11052572237E+03  0.00000000000E+00 0. -1.
</event>
<event>
 8    1  0.6689467E-009  0.2637801E+03  0.7561462E-02  0.1104893E+00
         -1   -1    0    0    0  501 -0.00000000000E+00  0.00000000000E+00  0.70109873677E+02  0.70109873677E+02  0.00000000000E+00 0.  1.
          1   -1    0    0  501    0  0.00000000000E+00 -0.00000000000E+00 -0.11461245462E+04  0.11461245462E+04  0.00000000000E+00 0. -1.
         25    2    1    2    0    0 -0.17288004235E+03  0.19020893295E+03 -0.45479153833E+03  0.53716943130E+03  0.12509479351E+03 0.  0.
         23    2    1    2    0    0  0.17288004235E+03 -0.19020893295E+03 -0.62122313417E+03  0.67906498856E+03  0.95624939434E+02 0.  0.
          5    1    3    3  502    0 -0.10346518989E+03  0.15243112160E+03 -0.40147248318E+03  0.44174417880E+03  0.41800000000E+01 0. -1.
         -5    1    3    3    0  502 -0.69414852454E+02  0.37777811350E+02 -0.53319055151E+02  0.95425252495E+02  0.41800000000E+01 0. -1.
        -11    1    4    4    0    0  0.51244572708E+02 -0.20153158237E+02 -0.67053351407E+02  0.86765822498E+02  0.00000000000E+00 0.  1.
         11    1    4    4    0    0  0.12163546964E+03 -0.17005577472E+03 -0.55416978277E+03  0.59229916607E+03  0.00000000000E+00 0. -1.
</event>
<event>
 8    1  0.6689467E-009  0.2363345E+03  0.7561462E-02  0.1122259E+00
          1   -1    0    0  501    0  0.00000000000E+00  0.00000000000E+00  0.76406365181E+02  0.76406365181E+02  0.00000000000E+00 0. -1.
         -1   -1    0    0    0  501 -0.00000000000E+00 -0.00000000000E+00 -0.80017343211E+03  0.80017343211E+03  0.00000000000E+00 0.  1.
         25    2    1    2    0    0  0.17218350657E+03  0.12396638852E+03 -0.48688292096E+03  0.54563519830E+03  0.12509182818E+03 0.  0.
         23    2    1    2    0    0 -0.17218350657E+03 -0.12396638852E+03 -0.23688414597E+03  0.33094459900E+03  0.91626434921E+02 0.  0.
          5    1    3    3  502    0  0.34801620012E+02  0.10093291134E+03 -0.21862527933E+03  0.24333740055E+03  0.41800000000E+01 0.  1.
         -5    1    3    3    0  502  0.13738188656E+03  0.23033477180E+02 -0.26825764164E+03  0.30229779775E+03  0.41800000000E+01 0.  1.
        -11    1    4    4    0    0 -0.18082206604E+03 -0.11712308995E+03 -0.20570124080E+03  0.29787151296E+03  0.00000000000E+00 0. -1.
         11    1    4    4    0    0  0.86385594709E+01 -0.68432985674E+01 -0.31182905176E+02  0.33073086040E+02  0.00000000000E+00 0.  1.
</event>
<event>
 8    1  0.6689467E-009  0.1128797E+03  0.7561462E-02  0.1255328E+00
          2   -1    0    0  501    0  0.00000000000E+00  0.00000000000E+00  0.28139680980E+03  0.28139680980E+03  0.00000000000E+00 0. -1.
         -2   -1    0    0    0  501 -0.00000000000E+00 -0.00000000000E+00 -0.52827960622E+02  0.52827960622E+02  0.00000000000E+00 0.  1.
         25    2    1    2    0    0  0.48026645218E+02  0.27792168197E+02  0.13169008678E+03  0.18991848344E+03  0.12509111932E+03 0.  0.
         23    2    1    2    0    0 -0.48026645218E+02 -0.27792168197E+02  0.96878762401E+02  0.14430628698E+03  0.91432196701E+02 0.  0.
          5    1    3    3  502    0  0.45804830433E+02 -0.36077868086E+02  0.10572602866E+03  0.12081043247E+03  0.41800000000E+01 0. -1.
         -5    1    3    3    0  502  0.22218147853E+01  0.63870036283E+02  0.25964058117E+02  0.69108050976E+02  0.41800000000E+01 0. -1.
        -11    1    4    4    0    0  0.22732620262E+02 -0.22996667084E+02  0.49102437905E+02  0.58793436106E+02  0.00000000000E+00 0. -1.
         11    1    4    4    0    0 -0.70759265480E+02 -0.47955011125E+01  0.47776324497E+02  0.85512850874E+02  0.00000000000E+00 0.  1.
</event>
<event>
 8    1  0.6689467E-009  0.1256469E+03  0.7561462E-02  0.1234062E+00
         -1   -1    0    0    0  501 -0.00000000000E+00  0.00000000000E+00  0.28425909011E+03  0.28425909011E+03  0.00000000000E+00 0.  1.
          1   -1    0    0  501    0  0.00000000000E+00 -0.00000000000E+00 -0.93909023591E+02  0.93909023591E+02  0.00000000000E+00 0. -1.
         25    2    1    2    0    0 -0.56281216146E+02 -0.53101728531E+02 -0.68387749608E+01  0.14725236466E+03  0.12509644756E+03 0.  0.
         23    2    1    2    0    0  0.56281216146E+02  0.53101728531E+02  0.19718884148E+03  0.23091574904E+03  0.91930816854E+02 0.  0.
          5    1    3    3  502    0 -0.81418855533E+02 -0.29392997214E+01 -0.29285040409E+02  0.86676153070E+02  0.41800000000E+01 0.  1.
         -5    1    3    3    0  502  0.25137639388E+02 -0.50162428809E+02  0.22446265448E+02  0.60576211590E+02  0.41800000000E+01 0.  1.
        -11    1    4    4    0    0  0.75284131026E+02  0.24612613946E+02  0.16870481730E+03  0.18637273548E+03  0.00000000000E+00 0.  1.
         11    1    4    4    0    0 -0.19002914881E+02  0.28489114584E+02  0.28484024179E+02  0.44543013562E+02  0.00000000000E+00 0. -1.
</event>
<event>
 8    1  0.6689467E-009  0.1350899E+03  0.7561462E-02  0.1220093E+00
          1   -1    0    0  501    0  0.00000000000E+00  0.00000000000E+00  0.10316971103E+04  0.10316971103E+04  0.00000000000E+00 0. -1.
         -1   -1    0    0    0  501 -0.00000000000E+00 -0.00000000000E+00 -0.18360495850E+02  0.18360495850E+02  0.00000000000E+00 0.  1.
         25    2    1    2    0    0  0.18160529585E+02  0.80071863267E+02  0.64778818949E+03  0.66484466561E+03  0.12509029871E+03 0.  0.
         23    2    1    2    0    0 -0.18160529585E+02 -0.80071863267E+02  0.36554842497E+03  0.38521294054E+03  0.89565900009E+02 0.  0.
          5    1    3    3  502    0 -0.39919809803E+02  0.81812998275E+02  0.37642366140E+03  0.38729730591E+03  0.41800000000E+01 0. -1.
         -5    1    3    3    0  502  0.58080339387E+02 -0.17411350079E+01  0.27136452809E+03  0.27754735970E+03  0.41800000000E+01 0. -1.
        -11    1    4    4    0    0 -0.54035390317E+02 -0.54437094959E+02  0.25156849752E+03  0.26300176740E+03  0.00000000000E+00 0. -1.
         11    1    4    4    0    0  0.35874860733E+02 -0.25634768307E+02  0.11397992745E+03  0.12221117314E+03  0.00000000000E+00 0.  1.
</event>
<event>
 8    1  0.6689467E-009  0.9579993E+02  0.7561462E-02  0.1289385E+00
         -1   -1    0    0    0  501 -0.00000000000E+00  0.00000000000E+00  0.55726014595E+02  0.55726014595E+02  0.00000000000E+00 0.  1.
          1   -1    0    0  501    0  0.00000000000E+00 -0.00000000000E+00 -0.29545078425E+03  0.29545078425E+03  0.00000000000E+00 0. -1.
         25    2    1    2    0    0 -0.27761131471E+02 -0.45470828452E+02 -0.76121771639E+02  0.15582085984E+03  0.12508932641E+03 0.  0.
         23    2    1    2    0    0  0.27761131471E+02  0.45470828452E+02 -0.16360299802E+03  0.19535593901E+03  0.92518783416E+02 0.  0.
          5    1    3    3  502    0 -0.46011808117E+02 -0.14051108594E+02  0.20534898596E+02  0.52475466642E+02  0.41800000000E+01 0. -1.
         -5    1    3    3    0  502  0.18250676647E+02 -0.31419719857E+02 -0.96656670235E+02  0.10334539320E+03  0.41800000000E+01 0. -1.
        -11    1    4    4    0    0 -0.22294111745E+02  0.51690788881E+02 -0.84065689041E+02  0.10117314440E+03  0.00000000000E+00 0. -1.
         11    1    4    4    0    0  0.50055243216E+02 -0.62199604297E+01 -0.79537308980E+02  0.94182794612E+02  0.00000000000E+00 0.  1.
</event>
<event>
 8    1  0.6689467E-009  0.1079846E+03  0.7561462E-02  0.1264348E+00
          2   -1    0    0  501    0  0.00000000000E+00  0.00000000000E+00  0.67863285681E+03  0.67863285681E+03  0.00000000000E+00 0. -1.
         -2   -1    0    0    0  501 -0.00000000000E+00 -0.00000000000E+00 -0.34209343414E+02  0.34209343414E+02  0.00000000000E+00 0.  1.
         25    2    1    2    0    0 -0.43850797225E+02 -0.68567649597E+02  0.49517986703E+03  0.51717416925E+03  0.12506640491E+03 0.  0.
         23    2    1    2    0    0  0.43850797225E+02  0.68567649597E+02  0.14924364636E+03  0.19566803097E+03  0.96891162532E+02 0.  0.
          5    1    3    3  502    0 -0.54354513962E+02 -0.14996121762E+02  0.77561599117E+02  0.95982138513E+02  0.41800000000E+01 0.  1.
         -5    1    3    3    0  502  0.10503716737E+02 -0.53571527835E+02  0.41761826791E+03  0.42119203074E+03  0.41800000000E+01 0.  1.
        -11    1    4    4    0    0  0.58968946288E+02  0.36835354569E+02  0.14429402418E+03  0.16017161230E+03  0.00000000000E+00 0.  1.
         11    1    4    4    0    0 -0.15118149063E+02  0.31732295028E+02  0.49496221820E+01  0.35496418673E+02  0.00000000000E+00 0. -1.
</event>
<event>
 8    1  0.6689467E-009  0.6989640E+02  0.7561462E-02  0.1360446E+00
         -3   -1    0    0    0  501 -0.00000000000E+00  0.00000000000E+00  0.89185348357E+02  0.89185348357E+02  0.00000000000E+00 0.  1.
          3   -1    0    0  501    0  0.00000000000E+00 -0.00000000000E+00 -0.22017822508E+03  0.22017822508E+03  0.00000000000E+00 0. -1.
         25    2    1    2    0    0  0.39004847125E+02  0.27624354011E+02 -0.15637654779E+03  0.20587672657E+03  0.12508844394E+03 0.  0.
         23    2    1    2    0    0 -0.39004847125E+02 -0.27624354011E+02  0.25383671073E+02  0.10348684687E+03  0.88208353821E+02 0.  0.
          5    1    3    3  502    0  0.50955737440E+01  0.22609650635E+02 -0.16784574366E+03  0.16948990306E+03  0.41800000000E+01 0.  1.
         -5    1    3    3    0  502  0.33909273381E+02  0.50147033764E+01  0.11469195866E+02  0.36386823508E+02  0.41800000000E+01 0.  1.
        -11    1    4    4    0    0  0.81486638055E+01  0.15691467035E+02 -0.18710922080E+02  0.25743377102E+02  0.00000000000E+00 0. -1.
         11    1    4    4    0    0 -0.47153510931E+02 -0.43315821046E+02  0.44094593153E+02  0.77743469767E+02  0.00000000000E+00 0.  1.
</event>
<event>
 8    1  0.6689467E-009  0.1151272E+03  0.7561462E-02  0.1251359E+00
          2   -1    0    0  501    0  0.00000000000E+00  0.00000000000E+00  0.24505604234E+03  0.24505604234E+03  0.00000000000E+00 0. -1.
         -2   -1    0    0    0  501 -0.00000000000E+00 -0.00000000000E+00 -0.67368922029E+02  0.67368922029E+02  0.00000000000E+00 0.  1.
         25    2    1    2    0    0 -0.61451498839E+02 -0.64354874445E+01  0.12565908497E+03  0.18776410714E+03  0.12508977611E+03 0.  0.
         23    2    1    2    0    0  0.61451498839E+02  0.64354874445E+01  0.52028035335E+02  0.12466085722E+03  0.94951096121E+02 0.  0.
          5    1    3    3  502    0 -0.68741099833E+02 -0.54569064478E+02  0.62110468691E+02  0.10760252936E+03  0.41800000000E+01 0.  1.
         -5    1    3    3    0  502  0.72896009940E+01  0.48133577033E+02  0.63548616282E+02  0.80161577779E+02  0.41800000000E+01 0.  1.
        -11    1    4    4    0    0  0.21447849958E+02  0.37281617676E+02  0.59685922811E+02  0.73568598371E+02  0.00000000000E+00 0. -1.
         11    1    4    4    0    0  0.40003648881E+02 -0.30846130232E+02 -0.76578874758E+01  0.51092258853E+02  0.00000000000E+00 0.  1.
</event>
<event>
 8    1  0.6689467E-009  0.9944211E+02  0.7561462E-02  0.1281473E+00
          2   -1    0    0  501    0  0.00000000000E+00  0.00000000000E+00  0.40752455710E+02  0.40752455710E+02  0.00000000000E+00 0.  1.
         -2   -1    0    0    0  501 -0.00000000000E+00 -0.00000000000E+00 -0.60570152691E+03  0.60570152691E+03  0.00000000000E+00 0. -1.
         25    2    1    2    0    0 -0.39469318980E+02 -0.88337554939E+02 -0.42833864225E+03  0.45660023639E+03  0.12509369558E+03 0.  0.
         23    2    1    2    0    0  0.39469318980E+02  0.88337554939E+02 -0.13661042895E+03  0.18985374623E+03  0.89558276587E+02 0.  0.
          5    1    3    3  502    0 -0.23858859547E+02 -0.80273642519E+02 -0.43033683076E+03  0.43842942781E+03  0.41800000000E+01 0. -1.
         -5    1    3    3    0  502 -0.15610459433E+02 -0.80639124209E+01  0.19981885073E+01  0.18170808583E+02  0.41800000000E+01 0. -1.
        -11    1    4    4    0    0  0.31366213448E+02  0.63053320088E+02 -0.14566959148E+03  0.16179984673E+03  0.00000000000E+00 0. -1.
         11    1    4    4    0    0  0.81031055323E+01  0.25284234851E+02  0.90591625292E+01  0.28053899497E+02  0.00000000000E+00 0.  1.
</event>
<event>
 8    1  0.6689467E-009  0.1474053E+03  0.7561462E-02  0.1203698E+00
         -2   -1    0    0    0  501 -0.00000000000E+00  0.00000000000E+00  0.85557442941E+02  0.85557442941E+02  0.00000000000E+00 0.  1.
          2   -1    0    0  501    0  0.00000000000E+00 -0.00000000000E+00 -0.26275850415E+03  0.26275850415E+03  0.00000000000E+00 0. -1.
         25    2    1    2    0    0  0.88455331587E+02 -0.42151816628E+02 -0.66175669939E+02  0.17212714117E+03  0.12508961629E+03 0.  0.
         23    2    1    2    0    0 -0.88455331587E+02  0.42151816628E+02 -0.11102539128E+03  0.17618880592E+03  0.95471129114E+02 0.  0.
          5    1    3    3  502    0  0.97619349178E+02  0.16280438214E+02 -0.34424688189E+02  0.10486716149E+03  0.41800000000E+01 0. -1.
         -5    1    3    3    0  502 -0.91640175912E+01 -0.58432254842E+02 -0.31750981751E+02  0.67259979679E+02  0.41800000000E+01 0. -1.
        -11    1    4    4    0    0 -0.10267127623E+02  0.56105561073E+02 -0.52620777666E+02  0.77602797212E+02  0.00000000000E+00 0. -1.
         11    1    4    4    0    0 -0.78188203964E+02 -0.13953744445E+02 -0.58404613609E+02  0.98586008713E+02  0.00000000000E+00 0.  1.
</event>
<event>
 8    1  0.6689467E-009  0.2769132E+03  0.7561462E-02  0.1097387E+00
          1   -1    0    0  501    0  0.00000000000E+00  0.00000000000E+00  0.97555064719E+03  0.97555064719E+03  0.00000000000E+00 0. -1.
         -1   -1    0    0    0  501 -0.00000000000E+00 -0.00000000000E+00 -0.85207587935E+02  0.85207587935E+02  0.00000000000E+00 0.  1.
         25    2    1    2    0    0 -0.23690162811E+03 -0.11629649716E+03  0.52803568313E+03  0.60341744009E+03  0.12507464847E+03 0.  0.
         23    2    1    2    0    0  0.23690162811E+03  0.11629649716E+03  0.36230737613E+03  0.45734079504E+03  0.90811405453E+02 0.  0.
          5    1    3    3  502    0 -0.13993355158E+01 -0.40883511135E+02  0.11339520937E+03  0.12062075083E+03  0.41800000000E+01 0.  1.
         -5    1    3    3    0  502 -0.23550229259E+03 -0.75412986024E+02  0.41464047376E+03  0.48279668926E+03  0.41800000000E+01 0.  1.
        -11    1    4    4    0    0  0.11011663056E+03  0.69647820243E+02  0.10742068011E+03  0.16886590451E+03  0.00000000000E+00 0.  1.
         11    1    4    4    0    0  0.12678499755E+03  0.46648676916E+02  0.25488669601E+03  0.28847489053E+03  0.00000000000E+00 0. -1.
</event>
<event>
 8    1  0.6689467E-009  0.1002954E+03  0.7561462E-02  0.1279676E+00
         -3   -1    0    0    0  501 -0.00000000000E+00  0.00000000000E+00  0.28122495995E+02  0.28122495995E+02  0.00000000000E+00 0.  1.
          3   -1    0    0  501    0  0.00000000000E+00 -0.00000000000E+00 -0.74730330626E+03  0.74730330626E+03  0.00000000000E+00 0. -1.
         25    2    1    2    0    0  0.17911618034E+02 -0.94191881861E+02 -0.43286898919E+03  0.46066957552E+03  0.12509180367E+03 0.  0.
         23    2    1    2    0    0 -0.17911618034E+02  0.94191881861E+02 -0.28631182108E+03  0.31475622673E+03  0.88904930727E+02 0.  0.
          5    1    3    3  502    0  0.22808027802E+02 -0.58795556837E+02 -0.63639970754E+02  0.89691927806E+02  0.41800000000E+01 0. -1.
         -5    1    3    3    0  502 -0.48964097685E+01 -0.35396325024E+02 -0.36922901843E+03  0.37097764772E+03  0.41800000000E+01 0. -1.
        -11    1    4    4    0    0 -0.22205465759E+02  0.31322380012E+02 -0.24681085150E+02  0.45643511734E+02  0.00000000000E+00 0.  1.
         11    1    4    4    0    0  0.42938477248E+01  0.62869501849E+02 -0.26163073593E+03  0.26911271499E+03  0.00000000000E+00 0. -1.
</event>
<event>
 8    1  0.6689467E-009  0.1126717E+03  0.7561462E-02  0.1255701E+00
         -3   -1    0    0    0  501 -0.00000000000E+00  0.00000000000E+00  0.10780671218E+03  0.10780671218E+03  0.00000000000E+00 0.  1.
          3   -1    0    0  501    0  0.00000000000E+00 -0.00000000000E+00 -0.13173802715E+03  0.13173802715E+03  0.00000000000E+00 0. -1.
         25    2    1    2    0    0 -0.24685230214E+02 -0.40824632841E+02 -0.28095828186E+02  0.13679454968E+03  0.12508941611E+03 0.  0.
         23    2    1    2    0    0  0.24685230214E+02  0.40824632841E+02  0.41645132167E+01  0.10275018965E+03  0.90907904307E+02 0.  0.
          5    1    3    3  502    0 -0.50143148636E+02 -0.70360602746E+02 -0.40706090585E+02  0.95600250965E+02  0.41800000000E+01 0.  1.
         -5    1    3    3    0  502  0.25457918422E+02  0.29535969905E+02  0.12610262399E+02  0.41194298712E+02  0.41800000000E+01 0.  1.
        -11    1    4    4    0    0  0.24328892108E+02 -0.24366915607E+02 -0.10362700491E+02  0.35958686418E+02  0.00000000000E+00 0. -1.
         11    1    4    4    0    0  0.35633810638E+00  0.65191548448E+02  0.14527213708E+02  0.66791503233E+02  0.00000000000E+00 0.  1.
</event>
<event>
 8    1  0.6689467E-009  0.1862157E+03  0.7561462E-02  0.1161920E+00
         -1   -1    0    0    0  501 -0.00000000000E+00  0.00000000000E+00  0.55922631171E+03  0.55922631171E+03  0.00000000000E+00 0.  1.
          1   -1    0    0  501    0  0.00000000000E+00 -0.00000000000E+00 -0.16642917584E+03  0.16642917584E+03  0.00000000000E+00 0. -1.
         25    2    1    2    0    0 -0.15339155896E+03  0.68469974966E+02  0.47393899289E+03  0.51815345413E+03  0.12509086780E+03 0.  0.
         23    2    1    2    0    0  0.15339155896E+03 -0.68469974966E+02 -0.81141857020E+02  0.20750203343E+03  0.90862451462E+02 0.  0.
          5    1    3    3  502    0 -0.15733671335E+03  0.24177030187E+02  0.31364023130E+03  0.35174854264E+03  0.41800000000E+01 0. -1.
         -5    1    3    3    0  502  0.39451543891E+01  0.44292944779E+02  0.16029876159E+03  0.16640491149E+03  0.41800000000E+01 0. -1.
        -11    1    4    4    0    0  0.11567233339E+03 -0.45082276290E+02 -0.11178722064E+02  0.12464936492E+03  0.00000000000E+00 0.  1.
         11    1    4    4    0    0  0.37719225568E+02 -0.23387698676E+02 -0.69963134956E+02  0.82852668513E+02  0.00000000000E+00 0. -1.
</event>
<event>
 8    1  0.6689467E-009  0.8243975E+02  0.7561462E-02  0.1322267E+00
          4   -1    0    0  501    0  0.00000000000E+00  0.00000000000E+00  0.30497509524E+03  0.30497509524E+03  0.00000000000E+00 0. -1.
         -4   -1    0    0    0  501 -0.00000000000E+00 -0.00000000000E+00 -0.44566083746E+02  0.44566083746E+02  0.00000000000E+00 0.  1.
         25    2    1    2    0    0 -0.20786736969E+02 -0.72809704878E+01  0.91467629422E+02  0.15651791164E+03  0.12508568450E+03 0.  0.
         23    2    1    2    0    0  0.20786736969E+02  0.72809704878E+01  0.16894138207E+03  0.19302326734E+03  0.90728662474E+02 0.  0.
          5    1    3    3  502    0  0.26965601022E+02 -0.16355401925E+02 -0.18083994805E+02  0.36594344901E+02  0.41800000000E+01 0.  1.
         -5    1    3    3    0  502 -0.47752337990E+02  0.90744314372E+01  0.10955162423E+03  0.11992356674E+03  0.41800000000E+01 0.  1.
        -11    1    4    4    0    0  0.40682143400E+02 -0.23980529419E+02  0.13405458534E+03  0.14212928774E+03  0.00000000000E+00 0. -1.
         11    1    4    4    0    0 -0.19895406432E+02  0.31261499906E+02  0.34886796727E+02  0.50893979598E+02  0.00000000000E+00 0.  1.
</event>
<event>
 8    1  0.6689467E-009  0.1078353E+03  0.7561462E-02  0.1264632E+00
         -1   -1    0    0    0  501 -0.00000000000E+00  0.00000000000E+00  0.15931829928E+02  0.15931829928E+02  0.00000000000E+00 0.  1.
          1   -1    0    0  501    0  0.00000000000E+00 -0.00000000000E+00 -0.89740147707E+03  0.89740147707E+03  0.00000000000E+00 0. -1.
         25    2    1    2    0    0  0.33688374159E+02 -0.13765320634E+02 -0.62604912232E+03  0.63946002790E+03  0.12508890090E+03 0.  0.
         23    2    1    2    0    0 -0.33688374159E+02  0.13765320634E+02 -0.25542052483E+03  0.27387327910E+03  0.91883284084E+02 0.  0.
          5    1    3    3  502    0 -0.40626807644E+02 -0.27527894938E+02 -0.34071218899E+03  0.34425367192E+03  0.41800000000E+01 0. -1.
         -5    1    3    3    0  502  0.74315181803E+02  0.13762574304E+02 -0.28533693332E+03  0.29520635599E+03  0.41800000000E+01 0. -1.
        -11    1    4    4    0    0 -0.12104993197E+02  0.48413102453E+02 -0.19256161994E+03  0.19892294192E+03  0.00000000000E+00 0. -1.
         11    1    4    4    0    0 -0.21583380962E+02 -0.34647781819E+02 -0.62858904891E+02  0.74950337177E+02  0.00000000000E+00 0.  1.
</event>
<event>
 8    1  0.6689467E-009  0.1151681E+03  0.7561462E-02  0.1251288E+00
         -1   -1    0    0    0  501 -0.00000000000E+00  0.00000000000E+00  0.61324169355E+02  0.61324169355E+02  0.00000000000E+00 0.  1.
          1   -1    0    0  501    0  0.00000000000E+00 -0.00000000000E+00 -0.31965889319E+03  0.31965889319E+03  0.00000000000E+00 0. -1.
         25    2    1    2    0    0  0.51028915950E+02  0.31848385396E+02 -0.53340412672E+02  0.14869669011E+03  0.12508891282E+03 0.  0.
         23    2    1    2    0    0 -0.51028915950E+02 -0.31848385396E+02 -0.20499431117E+03  0.23228637244E+03  0.91192221677E+02 0.  0.
          5    1    3    3  502    0  0.23161621665E+02  0.76808990454E+02 -0.11561777922E+02  0.81161744938E+02  0.41800000000E+01 0. -1.
         -5    1    3    3    0  502  0.27867294285E+02 -0.44960605058E+02 -0.41778634749E+02  0.67534945172E+02  0.41800000000E+01 0. -1.
        -11    1    4    4    0    0 -0.19134246126E+02  0.25164523705E+02 -0.23493705050E+02  0.39386886207E+02  0.00000000000E+00 0.  1.
         11    1    4    4    0    0 -0.31894669824E+02 -0.57012909102E+02 -0.18150060612E+03  0.19289948623E+03  0.00000000000E+00 0. -1.
</event>
<event>
 8    1  0.6689467E-009  0.1407584E+03  0.7561462E-02  0.1212312E+00
          3   -1    0    0  501    0  0.00000000000E+00  0.00000000000E+00  0.10618423889E+04  0.10618423889E+04  0.00000000000E+00 0. -1.
         -3   -1    0    0    0  501 -0.00000000000E+00 -0.00000000000E+00 -0.21583732663E+02  0.21583732663E+02  0.00000000000E+00 0.  1.
         25    2    1    2    0    0 -0.89306676711E+02  0.32540457010E+02  0.73425183271E+03  0.75087222242E+03  0.12509507070E+03 0.  0.
         23    2    1    2    0    0  0.89306676711E+02 -0.32540457010E+02  0.30600682350E+03  0.33255389912E+03  0.88979525411E+02 0.  0.
          5    1    3    3  502    0 -0.10514244044E+03  0.60698468943E+02  0.63159621201E+03  0.64317220427E+03  0.41800000000E+01 0.  1.
         -5    1    3    3    0  502  0.15835763729E+02 -0.28158011933E+02  0.10265562069E+03  0.10770001815E+03  0.41800000000E+01 0.  1.
        -11    1    4    4    0    0  0.77840797156E+01  0.25974409009E+02  0.96781346842E+02  0.10050816343E+03  0.00000000000E+00 0. -1.
         11    1    4    4    0    0  0.81522596995E+02 -0.58514866019E+02  0.20922547666E+03  0.23204573568E+03  0.00000000000E+00 0.  1.
</event>
<event>
 8    1  0.6689467E-009  0.7952179E+02  0.7561462E-02  0.1330414E+00
         -2   -1    0    0    0  501 -0.00000000000E+00  0.00000000000E+00  0.15526698810E+03  0.15526698810E+03  0.00000000000E+00 0. -1.
          2   -1    0    0  501    0  0.00000000000E+00 -0.00000000000E+00 -0.10905547433E+03  0.10905547433E+03  0.00000000000E+00 0.  1.
         25    2    1    2    0    0  0.48796674834E+02 -0.21767940936E+02 -0.16417177125E+02  0.13701262118E+03  0.12509186996E+03 0.  0.
         23    2    1    2    0    0 -0.48796674834E+02  0.21767940936E+02  0.62628690892E+02  0.12730984126E+03  0.97110679283E+02 0.  0.
          5    1    3    3  502    0  0.71206980062E+01  0.20316565109E+02  0.45941655136E+02  0.50907516484E+02  0.41800000000E+01 0. -1.
         -5    1    3    3    0  502  0.41675976828E+02 -0.42084506045E+02 -0.62358832261E+02  0.86105104695E+02  0.41800000000E+01 0. -1.
        -11    1    4    4    0    0 -0.45178618700E+02 -0.95786910446E+01 -0.10764472294E+02  0.47420805281E+02  0.00000000000E+00 0.  1.
         11    1    4    4    0    0 -0.36180561345E+01  0.31346631981E+02  0.73393163187E+02  0.79889035977E+02  0.00000000000E+00 0. -1.
</event>
<event>
 8    1  0.6689467E-009  0.1031955E+03  0.7561462E-02  0.1273716E+00
          2   -1    0    0  501    0  0.00000000000E+00  0.00000000000E+00  0.50196899029E+03  0.50196899029E+03  0.00000000000E+00 0.  1.
         -2   -1    0    0    0  501 -0.00000000000E+00 -0.00000000000E+00 -0.32730270196E+02  0.32730270196E+02  0.00000000000E+00 0. -1.
         25    2    1    2    0    0  0.59550742149E+02  0.26912334634E+01  0.28303394189E+03  0.31513576540E+03  0.12509518274E+03 0.  0.
         23    2    1    2    0    0 -0.59550742149E+02 -0.26912334634E+01  0.18620477820E+03  0.21956349509E+03  0.99911837740E+02 0.  0.
          5    1    3    3  502    0  0.94781528020E+02 -0.66549841100E+01  0.15412126897E+03  0.18110401657E+03  0.41800000000E+01 0. -1.
         -5    1    3    3    0  502 -0.35230785872E+02  0.93462175733E+01  0.12891267292E+03  0.13403174883E+03  0.41800000000E+01 0. -1.
        -11    1    4    4    0    0 -0.26652521073E+02  0.21102274336E+02  0.17382389620E+03  0.17711693807E+03  0.00000000000E+00 0.  1.
         11    1    4    4    0    0 -0.32898221075E+02 -0.23793507799E+02  0.12380882005E+02  0.42446557016E+02  0.00000000000E+00 0. -1.
</event>
<event>
 8    1  0.6689467E-009  0.9293007E+02  0.7561462E-02  0.1295907E+00
         -1   -1    0    0    0  501 -0.00000000000E+00  0.00000000000E+00  0.18879840723E+03  0.18879840723E+03  0.00000000000E+00 0.  1.
          1   -1    0    0  501    0  0.00000000000E+00 -0.00000000000E+00 -0.73358604006E+02  0.73358604006E+02  0.00000000000E+00 0. -1.
         25    2    1    2    0    0  0.32160080978E+01  0.39968274178E+02  0.88808576261E+02  0.15856139465E+03  0.12508775722E+03 0.  0.
         23    2    1    2    0    0 -0.32160080978E+01 -0.39968274178E+02  0.26631226967E+02  0.10359561659E+03  0.91733439258E+02 0.  0.
          5    1    3    3  502    0 -0.34390299178E+02  0.68614462563E+02  0.28865379046E+02  0.82105539752E+02  0.41800000000E+01 0.  1.
         -5    1    3    3    0  502  0.37606307276E+02 -0.28646188386E+02  0.59943197215E+02  0.76455854899E+02  0.41800000000E+01 0.  1.
        -11    1    4    4    0    0 -0.24354028774E+02 -0.28501769448E+02  0.54901787903E+02  0.66480643003E+02  0.00000000000E+00 0.  1.
         11    1    4    4    0    0  0.21138020676E+02 -0.11466504730E+02 -0.28270560935E+02  0.37114973588E+02  0.00000000000E+00 0. -1.
</event>
<event>
 8    1  0.6689467E-009  0.1044154E+03  0.7561462E-02  0.1271276E+00
         -2   -1    0    0    0  501 -0.00000000000E+00  0.00000000000E+00  0.61152696657E+02  0.61152696657E+02  0.00000000000E+00 0.  1.
          2   -1    0    0  501    0  0.00000000000E+00 -0.00000000000E+00 -0.29321188720E+03  0.29321188720E+03  0.00000000000E+00 0. -1.
         25    2    1    2    0    0  0.42214441234E+02 -0.20595407382E+02 -0.20884313880E+03  0.24793210599E+03  0.12509453507E+03 0.  0.
         23    2    1    2    0    0 -0.42214441234E+02  0.20595407382E+02 -0.23216051746E+02  0.10643247787E+03  0.92642632907E+02 0.  0.
          5    1    3    3  502    0 -0.49209155785E+01 -0.49235818584E+02 -0.17758733750E+03  0.18439933862E+03  0.41800000000E+01 0.  1.
         -5    1    3    3    0  502  0.47135356812E+02  0.28640411202E+02 -0.31255801297E+02  0.63532767375E+02  0.41800000000E+01 0.  1.
        -11    1    4    4    0    0  0.29265363470E+02  0.12851274586E+02 -0.65078541141E+01  0.32618536489E+02  0.00000000000E+00 0. -1.
         11    1    4    4    0    0 -0.71479804704E+02  0.77441327961E+01 -0.16708197632E+02  0.73813941376E+02  0.00000000000E+00 0.  1.
</event>
<event>
 8    1  0.6689467E-009  0.7000096E+02  0.7561462E-02  0.1360090E+00
          1   -1    0    0  501    0  0.00000000000E+00  0.00000000000E+00  0.40889014037E+02  0.40889014037E+02  0.00000000000E+00 0. -1.
         -1   -1    0    0    0  501 -0.00000000000E+00 -0.00000000000E+00 -0.31175030009E+03  0.31175030009E+03  0.00000000000E+00 0.  1.
         25    2    1    2    0    0 -0.28861777542E+02  0.33413738854E+01 -0.13642476361E+03  0.18735383043E+03  0.12508227160E+03 0.  0.
         23    2    1    2    0    0  0.28861777542E+02 -0.33413738854E+01 -0.13443652244E+03  0.16528548370E+03  0.91662127255E+02 0.  0.
          5    1    3    3  502    0 -0.34048972317E+02 -0.35364070018E+02 -0.13951393730E+03  0.14795797060E+03  0.41800000000E+01 0.  1.
         -5    1    3    3    0  502  0.51871947747E+01  0.38705443903E+02  0.30891736883E+01  0.39395859826E+02  0.41800000000E+01 0.  1.
        -11    1    4    4    0    0 -0.10343384692E+02 -0.63516462314E+01  0.99160263407E+01  0.15673435971E+02  0.00000000000E+00 0. -1.
         11    1    4    4    0    0  0.39205162234E+02  0.30102723460E+01 -0.14435254878E+03  0.14961204773E+03  0.00000000000E+00 0.  1.
</event>
<event>
 8    1  0.6689467E-009  0.1246241E+03  0.7561462E-02  0.1235658E+00
         -1   -1    0    0    0  501 -0.00000000000E+00  0.00000000000E+00  0.18288805889E+02  0.18288805889E+02  0.00000000000E+00 0.  1.
          1   -1    0    0  501    0  0.00000000000E+00 -0.00000000000E+00 -0.90407769644E+03  0.90407769644E+03  0.00000000000E+00 0. -1.
         25    2    1    2    0    0  0.53561641633E+02  0.46165355872E+02 -0.45747390910E+03  0.47951003058E+03  0.12508957744E+03 0.  0.
         23    2    1    2    0    0 -0.53561641633E+02 -0.46165355872E+02 -0.42831498144E+03  0.44285647174E+03  0.87567355193E+02 0.  0.
          5    1    3    3  502    0  0.30305950917E+00 -0.40956158721E+02 -0.11720144597E+03  0.12422218046E+03  0.41800000000E+01 0.  1.
         -5    1    3    3    0  502  0.53258582124E+02  0.87121514593E+02 -0.34027246313E+03  0.35528785012E+03  0.41800000000E+01 0.  1.
        -11    1    4    4    0    0  0.19773842913E+02 -0.10960773766E+01 -0.34831272385E+02  0.40067739955E+02  0.00000000000E+00 0.  1.
         11    1    4    4    0    0 -0.73335484547E+02 -0.45069278495E+02 -0.39348370906E+03  0.40278873179E+03  0.00000000000E+00 0. -1.
</event>
<event>
 8    1  0.6689467E-009  0.1688970E+03  0.7561462E-02  0.1179003E+00
          1   -1    0    0  501    0  0.00000000000E+00  0.00000000000E+00  0.77862338065E+03  0.77862338065E+03  0.00000000000E+00 0.  1.
         -1   -1    0    0    0  501 -0.00000000000E+00 -0.00000000000E+00 -0.44349743560E+02  0.44349743560E+02  0.00000000000E+00 0. -1.
         25    2    1    2    0    0  0.15030231809E+03  0.59237372811E+01  0.37169934436E+03  0.42003846605E+03  0.12508410319E+03 0.  0.
         23    2    1    2    0    0 -0.15030231809E+03 -0.59237372811E+01  0.36257429272E+03  0.40293465816E+03  0.90941429040E+02 0.  0.
          5    1    3    3  502    0  0.13318187034E+02  0.27643094726E+02  0.18416862461E+03  0.18675403471E+03  0.41800000000E+01 0. -1.
         -5    1    3    3    0  502  0.13698413106E+03 -0.21719357445E+02  0.18753071975E+03  0.23328443133E+03  0.41800000000E+01 0. -1.
        -11    1    4    4    0    0 -0.98997264130E+02  0.32251926932E+02  0.27833350460E+03  0.29717029609E+03  0.00000000000E+00 0.  1.
         11    1    4    4    0    0 -0.51305053963E+02 -0.38175664213E+02  0.84240788121E+02  0.10576436207E+03  0.00000000000E+00 0. -1.
</event>
<event>
 8    1  0.6689467E-009  0.1099082E+03  0.7561462E-02  0.1260740E+00
         -1   -1    0    0    0  501 -0.00000000000E+00  0.00000000000E+00  0.59944453227E+02  0.59944453227E+02  0.00000000000E+00 0.  1.
          1   -1    0    0  501    0  0.00000000000E+00 -0.00000000000E+00 -0.24969950305E+03  0.24969950305E+03  0.00000000000E+00 0. -1.
         25    2    1    2    0    0 -0.18830001402E+02 -0.52973365406E+02 -0.88350158880E+02  0.16312551493E+03  0.12507372486E+03 0.  0.
         23    2    1    2    0    0  0.18830001402E+02  0.52973365406E+02 -0.10140489095E+03  0.14651844135E+03  0.89576533497E+02 0.  0.
          5    1    3    3  502    0 -0.23785851977E+02 -0.81915468589E+02 -0.18701918343E+02  0.87425081630E+02  0.41800000000E+01 0. -1.
         -5    1    3    3    0  502  0.49558505750E+01  0.28942103182E+02 -0.69648240537E+02  0.75700433297E+02  0.41800000000E+01 0. -1.
        -11    1    4    4    0    0 -0.34600763937E+02  0.95215743178E+01 -0.44599194545E+02  0.57244749948E+02  0.00000000000E+00 0.  1.
         11    1    4    4    0    0  0.53430765339E+02  0.43451791089E+02 -0.56805696403E+02  0.89273691406E+02  0.00000000000E+00 0. -1.
</event>
<event>
 8    1  0.6689467E-009  0.1563244E+03  0.7561462E-02  0.1192910E+00
         -2   -1    0    0    0  501 -0.00000000000E+00  0.00000000000E+00  0.35766904231E+03  0.35766904231E+03  0.00000000000E+00 0.  1.
          2   -1    0    0  501    0  0.00000000000E+00 -0.00000000000E+00 -0.13991092636E+03  0.13991092636E+03  0.00000000000E+00 0. -1.
         25    2    1    2    0    0 -0.11436779925E+03 -0.23710355902E+02  0.28681311719E+03  0.33399542751E+03  0.12509599084E+03 0.  0.
         23    2    1    2    0    0  0.11436779925E+03  0.23710355902E+02 -0.69055001241E+02  0.16358454115E+03  0.91373598082E+02 0.  0.
          5    1    3    3  502    0 -0.91370176210E+02  0.39155274342E+02  0.20753533221E+03  0.23015219122E+03  0.41800000000E+01 0. -1.
         -5    1    3    3    0  502 -0.22997623036E+02 -0.62865630244E+02  0.79277784988E+02  0.10384323629E+03  0.41800000000E+01 0. -1.
        -11    1    4    4    0    0  0.61384268892E+01 -0.26193710532E+02 -0.24377362200E+02  0.36304910741E+02  0.00000000000E+00 0. -1.
         11    1    4    4    0    0  0.10822937236E+03  0.49904066434E+02 -0.44677639041E+02  0.12727963041E+03  0.00000000000E+00 0.  1.
</event>
<event>
 8    1  0.6689467E-009  0.9093990E+02  0.7561462E-02  0.1300591E+00
         -1   -1    0    0    0  501 -0.00000000000E+00  0.00000000000E+00  0.37148426598E+03  0.37148426598E+03  0.00000000000E+00 0.  1.
          1   -1    0    0  501    0  0.00000000000E+00 -0.00000000000E+00 -0.43283892713E+02  0.43283892713E+02  0.00000000000E+00 0. -1.
         25    2    1    2    0    0 -0.35648809000E+02 -0.39321041405E+01  0.26979725959E+03  0.29954025639E+03  0.12508998718E+03 0.  0.
         23    2    1    2    0    0  0.35648809000E+02  0.39321041405E+01  0.58403113682E+02  0.11522790230E+03  0.92629621370E+02 0.  0.
          5    1    3    3  502    0  0.64628139722E+01  0.29032610496E+02  0.23195835777E+03  0.23389487506E+03  0.41800000000E+01 0.  1.
         -5    1    3    3    0  502 -0.42111622973E+02 -0.32964714636E+02  0.37838901815E+02  0.65645381338E+02  0.41800000000E+01 0.  1.
        -11    1    4    4    0    0 -0.27568625405E+02 -0.16051238904E+02  0.11078185892E+02  0.33769773167E+02  0.00000000000E+00 0. -1.
         11    1    4    4    0    0  0.63217434405E+02  0.19983343045E+02  0.47324927790E+02  0.81458129136E+02  0.00000000000E+00 0.  1.
</event>
<event>
 8    1  0.6689467E-009  0.1620724E+03  0.7561462E-02  0.1186377E+00
         -2   -1    0    0    0  501 -0.00000000000E+00  0.00000000000E+00  0.44061641655E+02  0.44061641655E+02  0.00000000000E+00 0.  1.
          2   -1    0    0  501    0  0.00000000000E+00 -0.00000000000E+00 -0.80617755321E+03  0.80617755321E+03  0.00000000000E+00 0. -1.
         25    2    1    2    0    0 -0.82699718644E+02 -0.10553538813E+03 -0.54931647656E+03  0.57911381670E+03  0.12508900697E+03 0.  0.
         23    2    1    2    0    0  0.82699718644E+02  0.10553538813E+03 -0.21279943499E+03  0.27112537816E+03  0.10123442863E+03 0.  0.
          5    1    3    3  502    0  0.14910858834E+02 -0.25757129801E+02 -0.22865797242E+02  0.37763481437E+02  0.41800000000E+01 0.  1.
         -5    1    3    3    0  502 -0.97610577478E+02 -0.79778258326E+02 -0.52645067932E+03  0.54135033527E+03  0.41800000000E+01 0.  1.
        -11    1    4    4    0    0  0.70464170234E+02  0.94495634380E+01 -0.86904209743E+02  0.11228016391E+03  0.00000000000E+00 0.  1.
         11    1    4    4    0    0  0.12235548410E+02  0.96085824688E+02 -0.12589522525E+03  0.15884521426E+03  0.00000000000E+00 0. -1.
</event>
<event>
 8    1  0.6689467E-009  0.3035234E+03  0.7561462E-02  0.1083492E+00
         -1   -1    0    0    0  501 -0.00000000000E+00  0.00000000000E+00  0.70455110738E+03  0.70455110738E+03  0.00000000000E+00 0.  1.
          1   -1    0    0  501    0  0.00000000000E+00 -0.00000000000E+00 -0.15629317649E+03  0.15629317649E+03  0.00000000000E+00 0. -1.
         25    2    1    2    0    0 -0.27146232062E+03 -0.91090182419E+02  0.11418172954E+03  0.33267917344E+03  0.12509497284E+03 0.  0.
         23    2    1    2    0    0  0.27146232062E+03  0.91090182419E+02  0.43407620134E+03  0.52816511043E+03  0.92450107907E+02 0.  0.
          5    1    3    3  502    0 -0.17855327216E+03 -0.11241033263E+03  0.10800190423E+03  0.23706378382E+03  0.41800000000E+01 0.  1.
         -5    1    3    3    0  502 -0.92909048469E+02  0.21320150216E+02  0.61798253168E+01  0.95615389627E+02  0.41800000000E+01 0.  1.
        -11    1    4    4    0    0  0.30943674275E+02  0.46694615587E+02  0.72064450286E+02  0.91275314831E+02  0.00000000000E+00 0. -1.
         11    1    4    4    0    0  0.24051864635E+03  0.44395566832E+02  0.36201175106E+03  0.43688979560E+03  0.00000000000E+00 0.  1.
</event>
<event>
 8    1  0.6689467E-009  0.1899872E+03  0.7561462E-02  0.1158473E+00
         -1   -1    0    0    0  501 -0.00000000000E+00  0.00000000000E+00  0.37986595123E+03  0.37986595123E+03  0.00000000000E+00 0.  1.
          1   -1    0    0  501    0  0.00000000000E+00 -0.00000000000E+00 -0.13812035879E+03  0.13812035879E+03  0.00000000000E+00 0. -1.
         25    2    1    2    0    0  0.22599880522E+02  0.18838484451E+03  0.21902956136E+03  0.31562797699E+03  0.12508983520E+03 0.  0.
         23    2    1    2    0    0 -0.22599880522E+02 -0.18838484451E+03  0.22716031076E+02  0.20235833303E+03  0.66582825384E+02 0.  0.
          5    1    3    3  502    0  0.16862320917E+02  0.15162530116E+03  0.81341471974E+02  0.17294067561E+03  0.41800000000E+01 0.  1.
         -5    1    3    3    0  502  0.57375596059E+01  0.36759543355E+02  0.13768808938E+03  0.14268730138E+03  0.41800000000E+01 0.  1.
        -11    1    4    4    0    0 -0.53471168381E+01 -0.79049227602E+02 -0.23151020293E+02  0.82542969317E+02  0.00000000000E+00 0. -1.
         11    1    4    4    0    0 -0.17252763684E+02 -0.10933561691E+03  0.45867051369E+02  0.11981536371E+03  0.00000000000E+00 0.  1.
</event>
<event>
 8    1  0.6689467E-009  0.1317244E+03  0.7561462E-02  0.1224919E+00
          2   -1    0    0  501    0  0.00000000000E+00  0.00000000000E+00  0.27151706874E+03  0.27151706874E+03  0.00000000000E+00 0. -1.
         -2   -1    0    0    0  501 -0.00000000000E+00 -0.00000000000E+00 -0.66932216229E+02  0.66932216229E+02  0.00000000000E+00 0.  1.
         25    2    1    2    0    0  0.73826310873E+02  0.31026826294E+02  0.87480561918E+02  0.17237833919E+03  0.12509378475E+03 0.  0.
         23    2    1    2    0    0 -0.73826310873E+02 -0.31026826294E+02  0.11710429059E+03  0.16607094577E+03  0.86331662950E+02 0.  0.
          5    1    3    3  502    0  0.60854347917E+01 -0.45478380546E+02  0.31206262957E+02  0.55647271824E+02  0.41800000000E+01 0.  1.
         -5    1    3    3    0  502  0.67740876082E+02  0.76505206840E+02  0.56274298961E+02  0.11673106737E+03  0.41800000000E+01 0.  1.
        -11    1    4    4    0    0 -0.87356351022E+02 -0.71348916705E+01  0.10286401482E+03  0.13514083131E+03  0.00000000000E+00 0. -1.
         11    1    4    4    0    0  0.13530040149E+02 -0.23891934624E+02  0.14240275774E+02  0.30930114462E+02  0.00000000000E+00 0.  1.
</event>
<event>
 8    1  0.6689467E-009  0.1293237E+03  0.7561462E-02  0.1228463E+00
         -1   -1    0    0    0  501 -0.00000000000E+00  0.00000000000E+00  0.30498161881E+02  0.30498161881E+02  0.00000000000E+00 0.  1.
          1   -1    0    0  501    0  0.00000000000E+00 -0.00000000000E+00 -0.66003891618E+03  0.66003891618E+03  0.00000000000E+00 0. -1.
         25    2    1    2    0    0 -0.54797382504E+02  0.63137125872E+02 -0.26055101271E+03  0.30087209308E+03  0.12509251128E+03 0.  0.
         23    2    1    2    0    0  0.54797382504E+02 -0.63137125872E+02 -0.36898974160E+03  0.38966498498E+03  0.93254068690E+02 0.  0.
          5    1    3    3  502    0  0.21957413939E+02  0.50897522775E+02 -0.18195049523E+03  0.19025283432E+03  0.41800000000E+01 0.  1.
         -5    1    3    3    0  502 -0.76754796443E+02  0.12239603097E+02 -0.78600517471E+02  0.11061925876E+03  0.41800000000E+01 0.  1.
        -11    1    4    4    0    0  0.14383583567E+02  0.24671930907E+02 -0.87095655472E+02  0.91658304878E+02  0.00000000000E+00 0.  1.
         11    1    4    4    0    0  0.40413798937E+02 -0.87809056779E+02 -0.28189408612E+03  0.29800668011E+03  0.00000000000E+00 0. -1.
</event>
<event>
 8    1  0.6689467E-009  0.1260721E+03  0.7561462E-02  0.1233403E+00
          1   -1    0    0  501    0  0.00000000000E+00  0.00000000000E+00  0.27094989477E+03  0.27094989477E+03  0.00000000000E+00 0.  1.
         -1   -1    0    0    0  501 -0.00000000000E+00 -0.00000000000E+00 -0.82322880717E+02  0.82322880717E+02  0.00000000000E+00 0. -1.
         25    2    1    2    0    0  0.35035782117E+02  0.85950120775E+02  0.49293437032E+02  0.16337655878E+03  0.12508847962E+03 0.  0.
         23    2    1    2    0    0 -0.35035782117E+02 -0.85950120775E+02  0.13933357702E+03  0.18989621671E+03  0.89620299843E+02 0.  0.
          5    1    3    3  502    0  0.77021226420E+02  0.77706009555E+02  0.50032181951E+02  0.12037933739E+03  0.41800000000E+01 0. -1.
         -5    1    3    3    0  502 -0.41985444303E+02  0.82441112200E+01 -0.73874491900E+00  0.42997221389E+02  0.41800000000E+01 0. -1.
        -11    1    4    4    0    0 -0.40675983147E+02 -0.56153301944E+02  0.28462107244E+02  0.74952121204E+02  0.00000000000E+00 0. -1.
         11    1    4    4    0    0  0.56402010302E+01 -0.29796818832E+02  0.11087146978E+03  0.11494409550E+03  0.00000000000E+00 0.  1.
</event>
<event>
 8    1  0.6689467E-009  0.9570635E+02  0.7561462E-02  0.1289593E+00
          2   -1    0    0  501    0  0.00000000000E+00  0.00000000000E+00  0.43065329314E+03  0.43065329314E+03  0.00000000000E+00 0. -1.
         -2   -1    0    0    0  501 -0.00000000000E+00 -0.00000000000E+00 -0.35129177853E+02  0.35129177853E+02  0.00000000000E+00 0.  1.
         25    2    1    2    0    0  0.55843775565E+02 -0.10562482576E+02  0.23317221139E+03  0.27064138613E+03  0.12508951360E+03 0.  0.
         23    2    1    2    0    0 -0.55843775565E+02  0.10562482576E+02  0.16235190389E+03  0.19514108487E+03  0.92151011915E+02 0.  0.
          5    1    3    3  502    0  0.41045007799E+02  0.22274336321E+02  0.22945021491E+03  0.23419161438E+03  0.41800000000E+01 0. -1.
         -5    1    3    3    0  502  0.14798767766E+02 -0.32836818897E+02  0.37219964843E+01  0.36449771748E+02  0.41800000000E+01 0. -1.
        -11    1    4    4    0    0 -0.77371443433E+01 -0.38668299659E+02  0.58868918142E+02  0.70856547504E+02  0.00000000000E+00 0.  1.
         11    1    4    4    0    0 -0.48106631222E+02  0.49230782234E+02  0.10348298575E+03  0.12428453736E+03  0.00000000000E+00 0. -1.
</event>
<event>
 8    1  0.6689467E-009  0.1791592E+03  0.7561462E-02  0.1168619E+00
          1   -1    0    0  501    0  0.00000000000E+00  0.00000000000E+00  0.11716287056E+03  0.11716287056E+03  0.00000000000E+00 0. -1.
         -1   -1    0    0    0  501 -0.00000000000E+00 -0.00000000000E+00 -0.40954324097E+03  0.40954324097E+03  0.00000000000E+00 0.  1.
         25    2    1    2    0    0 -0.83583441188E+02  0.14784625086E+03 -0.49185885677E+02  0.21658776975E+03  0.12508519145E+03 0.  0.
         23    2    1    2    0    0  0.83583441188E+02 -0.14784625086E+03 -0.24319448473E+03  0.31011834179E+03  0.90471669472E+02 0.  0.
          5    1    3    3  502    0 -0.32700979668E+02  0.97501047516E+02  0.32465638590E+02  0.10792265020E+03  0.41800000000E+01 0.  1.
         -5    1    3    3    0  502 -0.50882461520E+02  0.50345203344E+02 -0.81651524267E+02  0.10866511954E+03  0.41800000000E+01 0.  1.
        -11    1    4    4    0    0 -0.71742921954E+01 -0.48914300317E+02 -0.11190117241E+03  0.12233540628E+03  0.00000000000E+00 0.  1.
         11    1    4    4    0    0  0.90757733384E+02 -0.98931950544E+02 -0.13129331232E+03  0.18778293551E+03  0.00000000000E+00 0. -1.
</event>
<event>
 8    1  0.6689467E-009  0.1682457E+03  0.7561462E-02  0.1179690E+00
          3   -1    0    0  501    0  0.00000000000E+00  0.00000000000E+00  0.74851427522E+02  0.74851427522E+02  0.00000000000E+00 0. -1.
         -3   -1    0    0    0  501 -0.00000000000E+00 -0.00000000000E+00 -0.45373969002E+03  0.45373969002E+03  0.00000000000E+00 0.  1.
         25    2    1    2    0    0  0.12791599889E+03 -0.49912775917E+02 -0.11934162561E+03  0.22078535701E+03  0.12509980932E+03 0.  0.
         23    2    1    2    0    0 -0.12791599889E+03  0.49912775917E+02 -0.25954663688E+03  0.30780576053E+03  0.92337108082E+02 0.  0.
          5    1    3    3  502    0  0.18291280385E+02 -0.65792141079E+02 -0.74674597394E+02  0.10127657509E+03  0.41800000000E+01 0.  1.
         -5    1    3    3    0  502  0.10962471850E+03  0.15879365162E+02 -0.44667028220E+02  0.11950878192E+03  0.41800000000E+01 0.  1.
        -11    1    4    4    0    0 -0.57648410856E+02 -0.17098244917E+02 -0.55474584548E+02  0.81811483205E+02  0.00000000000E+00 0.  1.
         11    1    4    4    0    0 -0.70267588034E+02  0.67011020834E+02 -0.20407205233E+03  0.22599427733E+03  0.00000000000E+00 0. -1.
</event>
<event>
 8    1  0.6689467E-009  0.1698511E+03  0.7561462E-02  0.1178003E+00
          2   -1    0    0  501    0  0.00000000000E+00  0.00000000000E+00  0.93776992726E+03  0.93776992726E+03  0.00000000000E+00 0. -1.
         -2   -1    0    0    0  501 -0.00000000000E+00 -0.00000000000E+00 -0.37789026028E+02  0.37789026028E+02  0.00000000000E+00 0.  1.
         25    2    1    2    0    0  0.15173755445E+03 -0.21562821340E+02  0.45973576976E+03  0.50049446552E+03  0.12509392999E+03 0.  0.
         23    2    1    2    0    0 -0.15173755445E+03  0.21562821340E+02  0.44024513147E+03  0.47506448777E+03  0.91549172926E+02 0.  0.
          5    1    3    3  502    0  0.12979252950E+03 -0.58589320815E+02  0.41271541024E+03  0.43661228965E+03  0.41800000000E+01 0. -1.
         -5    1    3    3    0  502  0.21945024949E+02  0.37026499475E+02  0.47020359525E+02  0.63882175865E+02  0.41800000000E+01 0. -1.
        -11    1    4    4    0    0 -0.54455489554E+02  0.15033442758E+02  0.59553716888E+02  0.82085625654E+02  0.00000000000E+00 0.  1.
         11    1    4    4    0    0 -0.97282064897E+02  0.65293785814E+01  0.38069141458E+03  0.39297886212E+03  0.00000000000E+00 0. -1.
</event>
<event>
 8    1  0.6689467E-009  0.1597346E+03  0.7561462E-02  0.1188997E+00
         -1   -1    0    0    0  501 -0.00000000000E+00  0.00000000000E+00  0.21447165618E+02  0.21447165618E+02  0.00000000000E+00 0.  1.
          1   -1    0    0  501    0  0.00000000000E+00 -0.00000000000E+00 -0.12699987264E+04  0.12699987264E+04  0.00000000000E+00 0. -1.
         25    2    1    2    0    0 -0.11141940436E+03 -0.45158107515E+02 -0.78926809195E+03  0.80811248518E+03  0.12509248337E+03 0.  0.
         23    2    1    2    0    0  0.11141940436E+03  0.45158107515E+02 -0.45928346879E+03  0.48333340680E+03  0.90644023939E+02 0.  0.
          5    1    3    3  502    0  0.21008539573E+02  0.15107093185E+02 -0.16720574655E+03  0.16924779785E+03  0.41800000000E+01 0.  1.
         -5    1    3    3    0  502 -0.13242794394E+03 -0.60265200700E+02 -0.62206234540E+03  0.63886468733E+03  0.41800000000E+01 0.  1.
        -11    1    4    4    0    0  0.27551994952E+02 -0.25873380609E+02 -0.16293139944E+03  0.16725784039E+03  0.00000000000E+00 0.  1.
         11    1    4    4    0    0  0.83867409411E+02  0.71031488124E+02 -0.29635206935E+03  0.31607556640E+03  0.00000000000E+00 0. -1.
</event>
<event>
 8    1  0.6689467E-009  0.1211230E+03  0.7561462E-02  0.1241256E+00
         -2   -1    0    0    0  501 -0.00000000000E+00  0.00000000000E+00  0.82003295206E+03  0.82003295206E+03  0.00000000000E+00 0.  1.
          2   -1    0    0  501    0  0.00000000000E+00 -0.00000000000E+00 -0.27306519400E+02  0.27306519400E+02  0.00000000000E+00 0. -1.
         25    2    1    2    0    0 -0.24136784972E+02 -0.10032087753E+03  0.45517702070E+03  0.48319667384E+03  0.12508414200E+03 0.  0.
         23    2    1    2    0    0  0.24136784972E+02  0.10032087753E+03  0.33754941196E+03  0.36414279762E+03  0.89518203098E+02 0.  0.
          5    1    3    3  502    0  0.15176857924E+02 -0.82202307866E+02  0.41703567788E+03  0.42535136706E+03  0.41800000000E+01 0.  1.
         -5    1    3    3    0  502 -0.39313642896E+02 -0.18118569666E+02  0.38141342820E+02  0.57845306781E+02  0.41800000000E+01 0.  1.
        -11    1    4    4    0    0 -0.13951951762E+02  0.50240015635E+02  0.59726073673E+02  0.79283794090E+02  0.00000000000E+00 0. -1.
         11    1    4    4    0    0  0.38088736734E+02  0.50080861897E+02  0.27782333829E+03  0.28485900353E+03  0.00000000000E+00 0.  1.
</event>
<event>
 8    1  0.6689467E-009  0.1833134E+03  0.7561462E-02  0.1164634E+00
          2   -1    0    0  501    0  0.00000000000E+00  0.00000000000E+00  0.45047093551E+03  0.45047093551E+03  0.00000000000E+00 0. -1.
         -2   -1    0    0    0  501 -0.00000000000E+00 -0.00000000000E+00 -0.84488379472E+02  0.84488379472E+02  0.00000000000E+00 0.  1.
         25    2    1    2    0    0  0.14129292301E+03 -0.69212566617E+02  0.13813149416E+03  0.24388867967E+03  0.12508920386E+03 0.  0.
         23    2    1    2    0    0 -0.14129292301E+03  0.69212566617E+02  0.22785106188E+03  0.29107063531E+03  0.89732596468E+02 0.  0.
          5    1    3    3  502    0  0.34590919595E+02 -0.86066177053E+02  0.61286159046E+02  0.11125369316E+03  0.41800000000E+01 0. -1.
         -5    1    3    3    0  502  0.10670200342E+03  0.16853610436E+02  0.76845335112E+02  0.13263498651E+03  0.41800000000E+01 0. -1.
        -11    1    4    4    0    0 -0.61588245560E+02  0.23484489064E+01  0.32340376046E+02  0.69602637350E+02  0.00000000000E+00 0.  1.
         11    1    4    4    0    0 -0.79704677455E+02  0.66864117710E+02  0.19551068583E+03  0.22146799796E+03  0.00000000000E+00 0. -1.
</event>
<event>
 8    1  0.6689467E-009  0.1736223E+03  0.7561462E-02  0.1174122E+00
         -2   -1    0    0    0  501 -0.00000000000E+00  0.00000000000E+00  0.18602638906E+03  0.18602638906E+03  0.00000000000E+00 0.  1.
          2   -1    0    0  501    0  0.00000000000E+00 -0.00000000000E+00 -0.25610087162E+03  0.25610087162E+03  0.00000000000E+00 0. -1.
         25    2    1    2    0    0  0.12347678139E+03  0.71122613581E+02 -0.16300350458E+03  0.25004983328E+03  0.12509930022E+03 0.  0.
         23    2    1    2    0    0 -0.12347678139E+03 -0.71122613581E+02  0.92929022015E+02  0.19207742740E+03  0.89179556404E+02 0.  0.
          5    1    3    3  502    0  0.14680817925E+03  0.65157355521E+02 -0.11982584567E+03  0.20043409930E+03  0.41800000000E+01 0.  1.
         -5    1    3    3    0  502 -0.23331397859E+02  0.59652580604E+01 -0.43177658906E+02  0.49615733981E+02  0.41800000000E+01 0.  1.
        -11    1    4    4    0    0 -0.27366826222E+02 -0.59281698347E+02  0.62973473563E+02  0.90713402036E+02  0.00000000000E+00 0.  1.
         11    1    4    4    0    0 -0.96109955164E+02 -0.11840915234E+02  0.29955548452E+02  0.10136402537E+03  0.00000000000E+00 0. -1.
</event>
<event>
 8    1  0.6689467E-009  0.1037455E+03  0.7561462E-02  0.1272611E+00
          4   -1    0    0  501    0  0.00000000000E+00  0.00000000000E+00  0.27556581708E+03  0.27556581708E+03  0.00000000000E+00 0.  1.
         -4   -1    0    0    0  501 -0.00000000000E+00 -0.00000000000E+00 -0.82415159183E+02  0.82415159183E+02  0.00000000000E+00 0. -1.
         25    2    1    2    0    0 -0.13341932292E+02 -0.25696002471E+02 -0.14245895389E+02  0.12918554839E+03  0.12509064185E+03 0.  0.
         23    2    1    2    0    0  0.13341932292E+02  0.25696002471E+02  0.20739655329E+03  0.22879542787E+03  0.92172261544E+02 0.  0.
          5    1    3    3  502    0  0.54191472779E+02 -0.12265178272E+02  0.88953421040E+01  0.56424727125E+02  0.41800000000E+01 0.  1.
         -5    1    3    3    0  502 -0.67533405071E+02 -0.13430824200E+02 -0.23141237493E+02  0.72760821270E+02  0.41800000000E+01 0.  1.
        -11    1    4    4    0    0  0.44900833973E+02  0.24629149796E+02  0.64021734821E+02  0.81984525617E+02  0.00000000000E+00 0. -1.
         11    1    4    4    0    0 -0.31558901681E+02  0.10668526754E+01  0.14337481847E+03  0.14681090225E+03  0.00000000000E+00 0.  1.
</event>
<event>
 8    1  0.6689467E-009  0.9199598E+02  0.7561462E-02  0.1298089E+00
          2   -1    0    0  501    0  0.00000000000E+00  0.00000000000E+00  0.51207669478E+03  0.51207669478E+03  0.00000000000E+00 0. -1.
         -2   -1    0    0    0  501 -0.00000000000E+00 -0.00000000000E+00 -0.56033642332E+02  0.56033642332E+02  0.00000000000E+00 0.  1.
         25    2    1    2    0    0  0.26160173405E+02 -0.42396726218E+02  0.44443438950E+03  0.46438249568E+03  0.12508932273E+03 0.  0.
         23    2    1    2    0    0 -0.26160173405E+02  0.42396726218E+02  0.11608662946E+02  0.10372784143E+03  0.90237835551E+02 0.  0.
          5    1    3    3  502    0 -0.45249320655E+02 -0.22794163808E+02  0.27142690228E+03  0.27614690041E+03  0.41800000000E+01 0. -1.
         -5    1    3    3    0  502  0.71409494060E+02 -0.19602562410E+02  0.17300748722E+03  0.18823559528E+03  0.41800000000E+01 0. -1.
        -11    1    4    4    0    0 -0.18386927537E+02  0.27602521977E+01  0.46672752158E+02  0.50239863559E+02  0.00000000000E+00 0. -1.
         11    1    4    4    0    0 -0.77732458685E+01  0.39636474020E+02 -0.35064089212E+02  0.53487977867E+02  0.00000000000E+00 0.  1.
</event>
<event>
 8    1  0.6689467E-009  0.1199573E+03  0.7561462E-02  0.1243168E+00
          2   -1    0    0  501    0  0.00000000000E+00  0.00000000000E+00  0.44160415939E+03  0.44160415939E+03  0.00000000000E+00 0. -1.
         -2   -1    0    0    0  501 -0.00000000000E+00 -0.00000000000E+00 -0.65143564355E+02  0.65143564355E+02  0.00000000000E+00 0.  1.
         25    2    1    2    0    0  0.63641842146E+02 -0.59177260138E+02  0.34341897887E+03  0.37568119702E+03  0.12509010575E+03 0.  0.
         23    2    1    2    0    0 -0.63641842146E+02  0.59177260138E+02  0.33041616165E+02  0.13106652672E+03  0.92382107788E+02 0.  0.
          5    1    3    3  502    0  0.49382694093E+02  0.47958039772E+01  0.36299594172E+02  0.61618042396E+02  0.41800000000E+01 0. -1.
         -5    1    3    3    0  502  0.14259148052E+02 -0.63973064115E+02  0.30711938470E+03  0.31406315462E+03  0.41800000000E+01 0. -1.
        -11    1    4    4    0    0 -0.47579739335E+02  0.83026772990E+02  0.35821380650E+02  0.10217851017E+03  0.00000000000E+00 0. -1.
         11    1    4    4    0    0 -0.16062102811E+02 -0.23849512852E+02 -0.27797644855E+01  0.28888016556E+02  0.00000000000E+00 0.  1.
</event>
<event>
 8    1  0.6689467E-009  0.1044023E+03  0.7561462E-02  0.1271302E+00
         -2   -1    0    0    0  501 -0.00000000000E+00  0.00000000000E+00  0.14798335221E+03  0.14798335221E+03  0.00000000000E+00 0.  1.
          2   -1    0    0  501    0  0.00000000000E+00 -0.00000000000E+00 -0.13308797313E+03  0.13308797313E+03  0.00000000000E+00 0. -1.
         25    2    1    2    0    0  0.42861252512E+02  0.64820891797E+02  0.52624759781E+02  0.15638340658E+03  0.12509024555E+03 0.  0.
         23    2    1    2    0    0 -0.42861252512E+02 -0.64820891797E+02 -0.37729380701E+02  0.12468791876E+03  0.89915159663E+02 0.  0.
          5    1    3    3  502    0  0.55407917809E+02  0.70473690199E+02  0.83336769656E+02  0.12247068197E+03  0.41800000000E+01 0.  1.
         -5    1    3    3    0  502 -0.12546665297E+02 -0.56527984012E+01 -0.30712009875E+02  0.33912724609E+02  0.41800000000E+01 0.  1.
        -11    1    4    4    0    0 -0.10907652692E+01 -0.62851723333E+02  0.72441903616E+01  0.63277224882E+02  0.00000000000E+00 0.  1.
         11    1    4    4    0    0 -0.41770487243E+02 -0.19691684646E+01 -0.44973571063E+02  0.61410693882E+02  0.00000000000E+00 0. -1.
</event>
<event>
 8    1  0.6689467E-009  0.1267043E+03  0.7561462E-02  0.1232430E+00
         -1   -1    0    0    0  501 -0.00000000000E+00  0.00000000000E+00  0.76441451275E+02  0.76441451275E+02  0.00000000000E+00 0.  1.
          1   -1    0    0  501    0  0.00000000000E+00 -0.00000000000E+00 -0.21741061932E+03  0.21741061932E+03  0.00000000000E+00 0. -1.
         25    2    1    2    0    0  0.61805012025E+02  0.29848669210E+02 -0.88608134897E+02  0.16796019177E+03  0.12509365245E+03 0.  0.
         23    2    1    2    0    0 -0.61805012025E+02 -0.29848669210E+02 -0.52361033143E+02  0.12589187882E+03  0.91631243561E+02 0.  0.
          5    1    3    3  502    0  0.95272657309E+02 -0.87305147619E+00 -0.71664109969E+02  0.11929316203E+03  0.41800000000E+01 0. -1.
         -5    1    3    3    0  502 -0.33467645284E+02  0.30721720686E+02 -0.16944024928E+02  0.48667029738E+02  0.41800000000E+01 0. -1.
        -11    1    4    4    0    0 -0.72202701187E+02 -0.51305542177E+02 -0.30892310054E+02  0.93807374642E+02  0.00000000000E+00 0.  1.
         11    1    4    4    0    0  0.10397689162E+02  0.21456872967E+02 -0.21468723089E+02  0.32084504181E+02  0.00000000000E+00 0. -1.
</event>
<event>
 8    1  0.6689467E-009  0.1294446E+03  0.7561462E-02  0.1228282E+00
         -3   -1    0    0    0  501 -0.00000000000E+00  0.00000000000E+00  0.36402350022E+03  0.36402350022E+03  0.00000000000E+00 0.  1.
          3   -1    0    0  501    0  0.00000000000E+00 -0.00000000000E+00 -0.63914401133E+02  0.63914401133E+02  0.00000000000E+00 0. -1.
         25    2    1    2    0    0 -0.24302336369E+02 -0.99566691396E+02  0.20411993273E+03  0.26041579535E+03  0.12508920794E+03 0.  0.
         23    2    1    2    0    0  0.24302336369E+02  0.99566691396E+02  0.95989166362E+02  0.16752210601E+03  0.91354290282E+02 0.  0.
          5    1    3    3  502    0 -0.58326859996E+02 -0.10380277572E+03  0.18733833647E+03  0.22201388145E+03  0.41800000000E+01 0.  1.
         -5    1    3    3    0  502  0.34024523627E+02  0.42360843256E+01  0.16781596257E+02  0.38401913903E+02  0.41800000000E+01 0.  1.
        -11    1    4    4    0    0  0.14054024649E+02  0.17227334315E+02  0.79985810634E+02  0.83018230283E+02  0.00000000000E+00 0.  1.
         11    1    4    4    0    0  0.10248311719E+02  0.82339357081E+02  0.16003355728E+02  0.84503875722E+02  0.00000000000E+00 0. -1.
</event>
<event>
 7    1  0.6689467E-009  0.1407905E+03  0.7561462E-02  0.1212269E+00
         -1   -1    0    0    0  501 -0.00000000000E+00  0.00000000000E+00  0.29322205060E+03  0.29322205060E+03  0.00000000000E+00 0.  1.
          1   -1    0    0  501    0  0.00000000000E+00 -0.00000000000E+00 -0.75694965950E+02  0.75694965950E+02  0.00000000000E+00 0. -1.
         23    2    1    2    0    0 -0.10039958804E+03  0.21130271681E+02  0.10745217726E+03  0.17311092251E+03  0.88852999011E+02 0.  0.
          5    1    1    2  502    0  0.92530517540E+02  0.30549261064E+02  0.33761640378E+02  0.10321082690E+03  0.41800000000E+01 0.  1.
         -5    1    1    2    0  502  0.78690705051E+01 -0.51679532745E+02  0.76313267015E+02  0.92595267146E+02  0.41800000000E+01 0.  1.
        -11    1    3    3    0    0 -0.11507159361E+03  0.16680084184E+02  0.78323816970E+02  0.14019385567E+03  0.00000000000E+00 0. -1.
         11    1    3    3    0    0  0.14672005562E+02  0.44501874964E+01  0.29128360287E+02  0.32917066835E+02  0.00000000000E+00 0.  1.
</event>
<event>
 8    1  0.6689467E-009  0.8646865E+02  0.7561462E-02  0.1311636E+00
          4   -1    0    0  501    0  0.00000000000E+00  0.00000000000E+00  0.91616239586E+02  0.91616239586E+02  0.00000000000E+00 0. -1.
         -4   -1    0    0    0  501 -0.00000000000E+00 -0.00000000000E+00 -0.19319111961E+03  0.19319111961E+03  0.00000000000E+00 0.  1.
         25    2    1    2    0    0 -0.21134817684E+02 -0.61849824071E+02 -0.84696671110E+02  0.16459878330E+03  0.12508857706E+03 0.  0.
         23    2    1    2    0    0  0.21134817684E+02  0.61849824071E+02 -0.16878208915E+02  0.12020857589E+03  0.99464297745E+02 0.  0.
          5    1    3    3  502    0 -0.54043281726E+02 -0.41954717192E+02  0.31458961846E+01  0.68616642713E+02  0.41800000000E+01 0.  1.
         -5    1    3    3    0  502  0.32908464042E+02 -0.19895106879E+02 -0.87842567294E+02  0.95982140590E+02  0.41800000000E+01 0.  1.
        -11    1    4    4    0    0  0.13415565845E+02  0.28789659267E+02 -0.58458082774E+02  0.66529462115E+02  0.00000000000E+00 0.  1.
         11    1    4    4    0    0  0.77192518392E+01  0.33060164804E+02  0.41579873860E+02  0.53679113778E+02  0.00000000000E+00 0. -1.
</event>
<event>
 8    1  0.6689467E-009  0.1279696E+03  0.7561462E-02  0.1230500E+00
         -3   -1    0    0    0  501 -0.00000000000E+00  0.00000000000E+00  0.30482806692E+03  0.30482806692E+03  0.00000000000E+00 0.  1.
          3   -1    0    0  501    0  0.00000000000E+00 -0.00000000000E+00 -0.89382668743E+02  0.89382668743E+02  0.00000000000E+00 0. -1.
         25    2    1    2    0    0 -0.75640950223E+02 -0.50206418673E+02  0.14392590814E+02  0.15527836244E+03  0.12514785393E+03 0.  0.
         23    2    1    2    0    0  0.75640950223E+02  0.50206418673E+02  0.20105280736E+03  0.23893237322E+03  0.91783494156E+02 0.  0.
          5    1    3    3  502    0 -0.93347150678E+02 -0.87952475922E+00  0.33603917975E+02  0.99303372585E+02  0.41800000000E+01 0. -1.
         -5    1    3    3    0  502  0.17706200455E+02 -0.49326893913E+02 -0.19211327161E+02  0.55974989852E+02  0.41800000000E+01 0. -1.
        -11    1    4    4    0    0  0.18923916908E+02  0.49720729891E+02  0.16082494185E+03  0.16939577189E+03  0.00000000000E+00 0.  1.
         11    1    4    4    0    0  0.56717033316E+02  0.48568878152E+00  0.40227865510E+02  0.69536601335E+02  0.00000000000E+00 0. -1.
</event>
<event>
 8    1  0.6689467E-009  0.1046829E+03  0.7561462E-02  0.1270746E+00
          2   -1    0    0  501    0  0.00000000000E+00  0.00000000000E+00  0.12312252925E+04  0.12312252925E+04  0.00000000000E+00 0. -1.
         -2   -1    0    0    0  501 -0.00000000000E+00 -0.00000000000E+00 -0.21605604706E+02  0.21605604706E+02  0.00000000000E+00 0.  1.
         25    2    1    2    0    0  0.26859493581E+02 -0.68492216749E+02  0.10196133432E+04  0.10298890503E+04  0.12508984809E+03 0.  0.
         23    2    1    2    0    0 -0.26859493581E+02  0.68492216749E+02  0.19000634460E+03  0.22294184693E+03  0.90487789103E+02 0.  0.
          5    1    3    3  502    0 -0.98136355530E+01 -0.54331174045E+02  0.93343143125E+03  0.93507213259E+03  0.41800000000E+01 0. -1.
         -5    1    3    3    0  502  0.36673129134E+02 -0.14161042704E+02  0.86181911978E+02  0.94816917706E+02  0.41800000000E+01 0. -1.
        -11    1    4    4    0    0  0.12407276560E+01  0.82883353771E+02  0.15520533760E+03  0.17595421722E+03  0.00000000000E+00 0. -1.
         11    1    4    4    0    0 -0.28100221237E+02 -0.14391137022E+02  0.34801006998E+02  0.46987629717E+02  0.00000000000E+00 0.  1.
</event>
<event>
 8    1  0.6689467E-009  0.1314658E+03  0.7561462E-02  0.1225297E+00
          4   -1    0    0  501    0  0.00000000000E+00  0.00000000000E+00  0.28605326083E+03  0.28605326083E+03  0.00000000000E+00 0. -1.
         -4   -1    0    0    0  501 -0.00000000000E+00 -0.00000000000E+00 -0.86390214036E+02  0.86390214036E+02  0.00000000000E+00 0.  1.
         25    2    1    2    0    0 -0.44574494825E+02  0.68806197357E+02  0.19950803069E+03  0.24934599250E+03  0.12509512893E+03 0.  0.
         23    2    1    2    0    0  0.44574494825E+02 -0.68806197357E+02  0.15501609781E+00  0.12309748236E+03  0.91824766539E+02 0.  0.
          5    1    3    3  502    0 -0.11679991402E+02  0.97386861859E+02  0.17077347039E+03  0.19698140433E+03  0.41800000000E+01 0. -1.
         -5    1    3    3    0  502 -0.32894503423E+02 -0.28580664503E+02  0.28734560304E+02  0.52364588175E+02  0.41800000000E+01 0. -1.
        -11    1    4    4    0    0  0.71102801477E+02 -0.39063083758E+02 -0.10602138384E+02  0.81816491180E+02  0.00000000000E+00 0.  1.
         11    1    4    4    0    0 -0.26528306652E+02 -0.29743113599E+02  0.10757154482E+02  0.41280991181E+02  0.00000000000E+00 0. -1.
</event>
<event>
 8    1  0.6689467E-009  0.9363843E+02  0.7561462E-02  0.1294272E+00
         -2   -1    0    0    0  501 -0.00000000000E+00  0.00000000000E+00  0.48961060387E+02  0.48961060387E+02  0.00000000000E+00 0.  1.
          2   -1    0    0  501    0  0.00000000000E+00 -0.00000000000E+00 -0.40634537885E+03  0.40634537885E+03  0.00000000000E+00 0. -1.
         25    2    1    2    0    0  0.45233921699E+02 -0.27490404289E+02 -0.75363008676E+02  0.15533635860E+03  0.12509185116E+03 0.  0.
         23    2    1    2    0    0 -0.45233921699E+02  0.27490404289E+02 -0.28202130979E+03  0.29997008064E+03  0.87431116320E+02 0.  0.
          5    1    3    3  502    0  0.71852768604E+02 -0.26288867809E+02 -0.14313662037E+01  0.76638411622E+02  0.41800000000E+01 0. -1.
         -5    1    3    3    0  502 -0.26618846904E+02 -0.12015364805E+01 -0.73931642472E+02  0.78697946981E+02  0.41800000000E+01 0. -1.
        -11    1    4    4    0    0  0.10142135151E+02  0.26413209875E+02 -0.27371199327E+02  0.39366268732E+02  0.00000000000E+00 0.  1.
         11    1    4    4    0    0 -0.55376056850E+02  0.10771944145E+01 -0.25465011046E+03  0.26060381190E+03  0.00000000000E+00 0. -1.
</event>
<event>
 8    1  0.6689467E-009  0.2029850E+03  0.7561462E-02  0.1147245E+00
          2   -1    0    0  501    0  0.00000000000E+00  0.00000000000E+00  0.12881805170E+04  0.12881805170E+04  0.00000000000E+00 0. -1.
         -2   -1    0    0    0  501 -0.00000000000E+00 -0.00000000000E+00 -0.38806765404E+02  0.38806765404E+02  0.00000000000E+00 0.  1.
         25    2    1    2    0    0  0.15811945570E+03  0.72845899471E+02  0.90779477262E+03  0.93276308245E+03  0.12508929393E+03 0.  0.
         23    2    1    2    0    0 -0.15811945570E+03 -0.72845899471E+02  0.34157897903E+03  0.39422420000E+03  0.91805411667E+02 0.  0.
          5    1    3    3  502    0  0.78772622113E+02  0.10002695359E+03  0.46830822772E+03  0.48532523733E+03  0.41800000000E+01 0.  1.
         -5    1    3    3    0  502  0.79346833585E+02 -0.27181054117E+02  0.43948654490E+03  0.44743784512E+03  0.41800000000E+01 0.  1.
        -11    1    4    4    0    0  0.53692055276E+01  0.99791053896E+01  0.37605533219E+02  0.39275781865E+02  0.00000000000E+00 0.  1.
         11    1    4    4    0    0 -0.16348866123E+03 -0.82825004861E+02  0.30397344581E+03  0.35494841813E+03  0.00000000000E+00 0. -1.
</event>
<event>
 8    1  0.6689467E-009  0.1355144E+03  0.7561462E-02  0.1219495E+00
         -1   -1    0    0    0  501 -0.00000000000E+00  0.00000000000E+00  0.17120130510E+02  0.17120130510E+02  0.00000000000E+00 0.  1.
          1   -1    0    0  501    0  0.00000000000E+00 -0.00000000000E+00 -0.22857735260E+04  0.22857735260E+04  0.00000000000E+00 0. -1.
         25    2    1    2    0    0  0.35389743667E+02 -0.11012198934E+03 -0.18785790036E+04  0.18862887426E+04  0.12508741420E+03 0.  0.
         23    2    1    2    0    0 -0.35389743667E+02  0.11012198934E+03 -0.39007439191E+03  0.41660491393E+03  0.89567497426E+02 0.  0.
          5    1    3    3  502    0  0.45949251803E+02 -0.57376210710E+02 -0.16413907413E+04  0.16430412050E+04  0.41800000000E+01 0.  1.
         -5    1    3    3    0  502 -0.10559508137E+02 -0.52745778633E+02 -0.23718826234E+03  0.24324753763E+03  0.41800000000E+01 0.  1.
        -11    1    4    4    0    0 -0.41871399201E+02  0.99121575799E+01 -0.15761611750E+03  0.16338392037E+03  0.00000000000E+00 0. -1.
         11    1    4    4    0    0  0.64816555342E+01  0.10020983176E+03 -0.23245827441E+03  0.25322099357E+03  0.00000000000E+00 0.  1.
</event>
<event>
 8    1  0.6689467E-009  0.2237974E+03  0.7561462E-02  0.1131083E+00
          1   -1    0    0  501    0  0.00000000000E+00  0.00000000000E+00  0.16709184679E+03  0.16709184679E+03  0.00000000000E+00 0. -1.
         -1   -1    0    0    0  501 -0.00000000000E+00 -0.00000000000E+00 -0.32927250666E+03  0.32927250666E+03  0.00000000000E+00 0.  1.
         25    2    1    2    0    0 -0.19604569618E+03 -0.64964597573E+02 -0.94415177323E+02  0.25927115945E+03  0.12511192784E+03 0.  0.
         23    2    1    2    0    0  0.19604569618E+03  0.64964597573E+02 -0.67765482552E+02  0.23709319400E+03  0.94692703457E+02 0.  0.
          5    1    3    3  502    0 -0.52685519062E+01 -0.24816994381E+02 -0.54452457190E+02  0.60217799224E+02  0.41800000000E+01 0.  1.
         -5    1    3    3    0  502 -0.19077714427E+03 -0.40147603192E+02 -0.39962720132E+02  0.19905336023E+03  0.41800000000E+01 0.  1.
        -11    1    4    4    0    0  0.84525001001E+02 -0.19788968843E+02 -0.32070028242E+02  0.92544939319E+02  0.00000000000E+00 0. -1.
         11    1    4    4    0    0  0.11152069518E+03  0.84753566416E+02 -0.35695454310E+02  0.14454825468E+03  0.00000000000E+00 0.  1.
</event>
<event>
 8    1  0.6689467E-009  0.2061866E+03  0.7561462E-02  0.1144622E+00
          2   -1    0    0  501    0  0.00000000000E+00  0.00000000000E+00  0.12910195746E+04  0.12910195746E+04  0.00000000000E+00 0. -1.
         -2   -1    0    0    0  501 -0.00000000000E+00 -0.00000000000E+00 -0.40037183145E+02  0.40037183145E+02  0.00000000000E+00 0.  1.
         25    2    1    2    0    0 -0.83293174772E+02 -0.17603441975E+03  0.78232068859E+03  0.81584227103E+03  0.12508829480E+03 0.  0.
         23    2    1    2    0    0  0.83293174772E+02  0.17603441975E+03  0.46866170284E+03  0.51521448669E+03  0.88748553173E+02 0.  0.
          5    1    3    3  502    0 -0.79782763204E+02 -0.13341272401E+03  0.73763655370E+03  0.75384972109E+03  0.41800000000E+01 0.  1.
         -5    1    3    3    0  502 -0.35104115683E+01 -0.42621695737E+02  0.44684134894E+02  0.61992549940E+02  0.41800000000E+01 0.  1.
        -11    1    4    4    0    0  0.10230479149E+03  0.14387079902E+03  0.38019700957E+03  0.41918354364E+03  0.00000000000E+00 0. -1.
         11    1    4    4    0    0 -0.19011616716E+02  0.32163620731E+02  0.88464693265E+02  0.96030943050E+02  0.00000000000E+00 0.  1.
</event>
<event>
 8    1  0.6689467E-009  0.1237546E+03  0.7561462E-02  0.1237029E+00
          4   -1    0    0  501    0  0.00000000000E+00  0.00000000000E+00  0.75764869785E+03  0.75764869785E+03  0.00000000000E+00 0. -1.
         -4   -1    0    0    0  501 -0.00000000000E+00 -0.00000000000E+00 -0.23427971749E+02  0.23427971749E+02  0.00000000000E+00 0.  1.
         25    2    1    2    0    0 -0.58134819200E+02  0.29439658665E+02  0.52837651502E+03  0.54687755460E+03  0.12508783873E+03 0.  0.
         23    2    1    2    0    0  0.58134819200E+02 -0.29439658665E+02  0.20584421108E+03  0.23419911499E+03  0.90725054555E+02 0.  0.
          5    1    3    3  502    0 -0.82395791056E+02 -0.20510166024E+02  0.30032641332E+03  0.31212683356E+03  0.41800000000E+01 0. -1.
         -5    1    3    3    0  502  0.24260971856E+02  0.49949824689E+02  0.22805010170E+03  0.23475072104E+03  0.41800000000E+01 0. -1.
        -11    1    4    4    0    0  0.72851268929E+02 -0.44810292508E+02  0.18756877889E+03  0.20614877277E+03  0.00000000000E+00 0. -1.
         11    1    4    4    0    0 -0.14716449728E+02  0.15370633843E+02  0.18275432184E+02  0.28050342224E+02  0.00000000000E+00 0.  1.
</event>
<event>
 8    1  0.6689467E-009  0.1559768E+03  0.7561462E-02  0.1193315E+00
         -1   -1    0    0    0  501 -0.00000000000E+00  0.00000000000E+00  0.44584330770E+02  0.44584330770E+02  0.00000000000E+00 0.  1.
          1   -1    0    0  501    0  0.00000000000E+00 -0.00000000000E+00 -0.66805593935E+03  0.66805593935E+03  0.00000000000E+00 0. -1.
         25    2    1    2    0    0  0.14354196032E+02  0.11395008031E+03 -0.18920584138E+03  0.25423903993E+03  0.12509186730E+03 0.  0.
         23    2    1    2    0    0 -0.14354196032E+02 -0.11395008031E+03 -0.43426576720E+03  0.45840123019E+03  0.91401682352E+02 0.  0.
          5    1    3    3  502    0 -0.53726171797E+02  0.43380180928E+02 -0.10009359726E+03  0.12167391769E+03  0.41800000000E+01 0. -1.
         -5    1    3    3    0  502  0.68080367829E+02  0.70569899377E+02 -0.89112244119E+02  0.13256512224E+03  0.41800000000E+01 0. -1.
        -11    1    4    4    0    0 -0.43243763177E+02 -0.22546983671E+02 -0.18554025841E+03  0.19184258395E+03  0.00000000000E+00 0. -1.
         11    1    4    4    0    0  0.28889567145E+02 -0.91403096634E+02 -0.24872550879E+03  0.26655864625E+03  0.00000000000E+00 0.  1.
</event>
<event>
 8    1  0.6689467E-009  0.9630891E+02  0.7561462E-02  0.1288255E+00
          1   -1    0    0  501    0  0.00000000000E+00  0.00000000000E+00  0.21003470659E+03  0.21003470659E+03  0.00000000000E+00 0. -1.
         -1   -1    0    0    0  501 -0.00000000000E+00 -0.00000000000E+00 -0.64756759747E+02  0.64756759747E+02  0.00000000000E+00 0.  1.
         25    2    1    2    0    0 -0.17564259809E+02 -0.18582468358E+02  0.12284689207E+03  0.17717788665E+03  0.12508730260E+03 0.  0.
         23    2    1    2    0    0  0.17564259809E+02  0.18582468358E+02  0.22431054766E+02  0.97613579688E+02  0.91495613932E+02 0.  0.
          5    1    3    3  502    0 -0.51797399056E+01 -0.61224139342E+02  0.11697069505E+03  0.13219243868E+03  0.41800000000E+01 0.  1.
         -5    1    3    3    0  502 -0.12384519903E+02  0.42641670985E+02  0.58761970289E+01  0.44985447971E+02  0.41800000000E+01 0.  1.
        -11    1    4    4    0    0  0.31484212983E+02  0.45965872698E+02  0.33442925193E+02  0.64981123147E+02  0.00000000000E+00 0. -1.
         11    1    4    4    0    0 -0.13919953174E+02 -0.27383404340E+02 -0.11011870428E+02  0.32632456541E+02  0.00000000000E+00 0.  1.
</event>
<event>
 8    1  0.6689467E-009  0.1814695E+03  0.7561462E-02  0.1166388E+00
         -2   -1    0    0    0  501 -0.00000000000E+00  0.00000000000E+00  0.33030556911E+02  0.33030556911E+02  0.00000000000E+00 0.  1.
          2   -1    0    0  501    0  0.00000000000E+00 -0.00000000000E+00 -0.15735775117E+04  0.15735775117E+04  0.00000000000E+00 0. -1.
         25    2    1    2    0    0 -0.14518565256E+03 -0.33515502629E+02 -0.12632479641E+04  0.12781415995E+04  0.12509343308E+03 0.  0.
         23    2    1    2    0    0  0.14518565256E+03  0.33515502629E+02 -0.27729899072E+03  0.32846646912E+03  0.93772749013E+02 0.  0.
          5    1    3    3  502    0 -0.85866279508E+02 -0.76046662285E+02 -0.60026194949E+03  0.61113664038E+03  0.41800000000E+01 0. -1.
         -5    1    3    3    0  502 -0.59319373047E+02  0.42531159656E+02 -0.66298601456E+03  0.66700495910E+03  0.41800000000E+01 0. -1.
        -11    1    4    4    0    0  0.64998700130E+02  0.62126316850E+02 -0.12488806279E+03  0.15388807131E+03  0.00000000000E+00 0.  1.
         11    1    4    4    0    0  0.80186952425E+02 -0.28610814221E+02 -0.15241092793E+03  0.17457839781E+03  0.00000000000E+00 0. -1.
</event>
<event>
 8    1  0.6689467E-009  0.1077992E+03  0.7561462E-02  0.1264701E+00
         -2   -1    0    0    0  501 -0.00000000000E+00  0.00000000000E+00  0.10132747476E+03  0.10132747476E+03  0.00000000000E+00 0.  1.
          2   -1    0    0  501    0  0.00000000000E+00 -0.00000000000E+00 -0.21235761370E+03  0.21235761370E+03  0.00000000000E+00 0. -1.
         25    2    1    2    0    0  0.32726519426E+02 -0.24599580597E+02 -0.15862204235E+03  0.20612051358E+03  0.12509416197E+03 0.  0.
         23    2    1    2    0    0 -0.32726519426E+02  0.24599580597E+02  0.47591903404E+02  0.10756457488E+03  0.87344055669E+02 0.  0.
          5    1    3    3  502    0 -0.19994157108E+02 -0.54665471511E+02 -0.12167246014E+03  0.13494346983E+03  0.41800000000E+01 0.  1.
         -5    1    3    3    0  502  0.52720676534E+02  0.30065890914E+02 -0.36949582212E+02  0.71177043745E+02  0.41800000000E+01 0.  1.
        -11    1    4    4    0    0 -0.66351765427E+01  0.55539008428E+02  0.29431825476E+02  0.63204741719E+02  0.00000000000E+00 0.  1.
         11    1    4    4    0    0 -0.26091342884E+02 -0.30939427831E+02  0.18160077928E+02  0.44359833164E+02  0.00000000000E+00 0. -1.
</event>
<event>
 8    1  0.6689467E-009  0.1026788E+03  0.7561462E-02  0.1274761E+00
         -1   -1    0    0    0  501 -0.00000000000E+00  0.00000000000E+00  0.29455536136E+02  0.29455536136E+02  0.00000000000E+00 0.  1.
          1   -1    0    0  501    0  0.00000000000E+00 -0.00000000000E+00 -0.57910264050E+03  0.57910264050E+03  0.00000000000E+00 0. -1.
         25    2    1    2    0    0 -0.72744780055E+02 -0.15709514607E+02 -0.34996706974E+03  0.37902820680E+03  0.12508732859E+03 0.  0.
         23    2    1    2    0    0  0.72744780055E+02  0.15709514607E+02 -0.19968003462E+03  0.22952996983E+03  0.85283638228E+02 0.  0.
          5    1    3    3  502    0 -0.24415195295E+02 -0.52292600517E+02 -0.28194882797E+03  0.28782500208E+03  0.41800000000E+01 0. -1.
         -5    1    3    3    0  502 -0.48329584759E+02  0.36583085909E+02 -0.68018241770E+02  0.91203204720E+02  0.41800000000E+01 0. -1.
        -11    1    4    4    0    0  0.51893882525E+02 -0.10804111114E+02 -0.40211528441E+02  0.66533231397E+02  0.00000000000E+00 0.  1.
         11    1    4    4    0    0  0.20850897529E+02  0.26513625721E+02 -0.15946850618E+03  0.16299673843E+03  0.00000000000E+00 0. -1.
</event>
<event>
 8    1  0.6689467E-009  0.1906496E+03  0.7561462E-02  0.1157877E+00
          2   -1    0    0  501    0  0.00000000000E+00  0.00000000000E+00  0.40276724735E+03  0.40276724735E+03  0.00000000000E+00 0. -1.
         -2   -1    0    0    0  501 -0.00000000000E+00 -0.00000000000E+00 -0.11153710646E+03  0.11153710646E+03  0.00000000000E+00 0.  1.
         25    2    1    2    0    0  0.12808135038E+03 -0.11755665771E+03  0.10423933490E+03  0.23819672141E+03  0.12508972406E+03 0.  0.
         23    2    1    2    0    0 -0.12808135038E+03  0.11755665771E+03  0.18699080599E+03  0.27610763240E+03  0.10509739797E+03 0.  0.
          5    1    3    3  502    0  0.14568150142E+03 -0.83397772737E+02  0.10754361114E+03  0.19940258035E+03  0.41800000000E+01 0. -1.
         -5    1    3    3    0  502 -0.17600151044E+02 -0.34158884968E+02 -0.33042762365E+01  0.38794141059E+02  0.41800000000E+01 0. -1.
        -11    1    4    4    0    0 -0.54279769302E+02  0.38293268326E+02  0.80082519808E+01  0.66908892192E+02  0.00000000000E+00 0.  1.
         11    1    4    4    0    0 -0.73801581076E+02  0.79263389379E+02  0.17898255401E+03  0.20919874021E+03  0.00000000000E+00 0. -1.
</event>
<event>
 8    1  0.6689467E-009  0.2164952E+03  0.7561462E-02  0.1136523E+00
          3   -1    0    0  501    0  0.00000000000E+00  0.00000000000E+00  0.35591464334E+03  0.35591464334E+03  0.00000000000E+00 0. -1.
         -3   -1    0    0    0  501 -0.00000000000E+00 -0.00000000000E+00 -0.21750629776E+03  0.21750629776E+03  0.00000000000E+00 0.  1.
         25    2    1    2    0    0  0.16706517854E+03  0.12263742454E+03  0.22573598756E+03  0.33099035021E+03  0.12508862489E+03 0.  0.
         23    2    1    2    0    0 -0.16706517854E+03 -0.12263742454E+03 -0.87327641981E+02  0.24243059089E+03  0.90530451065E+02 0.  0.
          5    1    3    3  502    0  0.11627365935E+03  0.59813413229E+02  0.54719388363E+02  0.14180582542E+03  0.41800000000E+01 0.  1.
         -5    1    3    3    0  502  0.50791519184E+02  0.62824011312E+02  0.17101659920E+03  0.18918452479E+03  0.41800000000E+01 0.  1.
        -11    1    4    4    0    0 -0.38698412452E+02 -0.74917592915E+02 -0.58090206247E+02  0.10239475043E+03  0.00000000000E+00 0.  1.
         11    1    4    4    0    0 -0.12836676608E+03 -0.47719831626E+02 -0.29237435734E+02  0.14003584046E+03  0.00000000000E+00 0. -1.
</event>
<event>
 8    1  0.6689467E-009  0.9723428E+02  0.7561462E-02  0.1286222E+00
          1   -1    0    0  501    0  0.00000000000E+00  0.00000000000E+00  0.11611220273E+04  0.11611220273E+04  0.00000000000E+00 0. -1.
         -1   -1    0    0    0  501 -0.00000000000E+00 -0.00000000000E+00 -0.13839794406E+02  0.13839794406E+02  0.00000000000E+00 0.  1.
         25    2    1    2    0    0 -0.25805480920E+02 -0.50406636608E+02  0.76698841071E+03  0.77918222686E+03  0.12508784367E+03 0.  0.
         23    2    1    2    0    0  0.25805480920E+02  0.50406636608E+02  0.38029382221E+03  0.39577959487E+03  0.93868762887E+02 0.  0.
          5    1    3    3  502    0 -0.56187021076E+02 -0.42928510419E+02  0.71399318717E+03  0.71749814082E+03  0.41800000000E+01 0. -1.
         -5    1    3    3    0  502  0.30381540157E+02 -0.74781261892E+01  0.52995223540E+02  0.61684086049E+02  0.41800000000E+01 0. -1.
        -11    1    4    4    0    0 -0.24958545844E+02  0.24908419809E+02  0.53434100292E+02  0.64020008295E+02  0.00000000000E+00 0.  1.
         11    1    4    4    0    0  0.50764026764E+02  0.25498216799E+02  0.32685972191E+03  0.33175958657E+03  0.00000000000E+00 0. -1.
</event>
<event>
 8    1  0.6689467E-009  0.1166471E+03  0.7561462E-02  0.1248733E+00
         -2   -1    0    0    0  501 -0.00000000000E+00  0.00000000000E+00  0.46086083615E+03  0.46086083615E+03  0.00000000000E+00 0. -1.
          2   -1    0    0  501    0  0.00000000000E+00 -0.00000000000E+00 -0.35817194761E+02  0.35817194761E+02  0.00000000000E+00 0.  1.
         25    2    1    2    0    0 -0.64003965766E+02  0.14135832620E+02  0.27306688848E+03  0.30742220360E+03  0.12508619541E+03 0.  0.
         23    2    1    2    0    0  0.64003965766E+02 -0.14135832620E+02  0.15197675290E+03  0.18925582731E+03  0.91785104182E+02 0.  0.
          5    1    3    3  502    0 -0.65437624757E+02  0.51209757842E+02  0.25012838961E+03  0.26360236289E+03  0.41800000000E+01 0. -1.
         -5    1    3    3    0  502  0.14336589911E+01 -0.37073925222E+02  0.22938498876E+02  0.43819840713E+02  0.41800000000E+01 0. -1.
        -11    1    4    4    0    0 -0.10116345537E+02 -0.34450817013E+02  0.50349172294E+02  0.61840426830E+02  0.00000000000E+00 0.  1.
         11    1    4    4    0    0  0.74120311304E+02  0.20314984393E+02  0.10162758061E+03  0.12741540048E+03  0.00000000000E+00 0. -1.
</event>
<event>
 8    1  0.6689467E-009  0.1235484E+03  0.7561462E-02  0.1237355E+00
          1   -1    0    0  501    0  0.00000000000E+00  0.00000000000E+00  0.31795345375E+03  0.31795345375E+03  0.00000000000E+00 0. -1.
         -1   -1    0    0    0  501 -0.00000000000E+00 -0.00000000000E+00 -0.61182742620E+02  0.61182742620E+02  0.00000000000E+00 0.  1.
         25    2    1    2    0    0 -0.38440796479E+02  0.78744554154E+02  0.13773706274E+03  0.20566814772E+03  0.12509791722E+03 0.  0.
         23    2    1    2    0    0  0.38440796479E+02 -0.78744554154E+02  0.11903364839E+03  0.17346804865E+03  0.90795125470E+02 0.  0.
          5    1    3    3  502    0 -0.44301409450E+02  0.11059130605E+03  0.98609194819E+02  0.15470713479E+03  0.41800000000E+01 0.  1.
         -5    1    3    3    0  502  0.58606129711E+01 -0.31846751896E+02  0.39127867917E+02  0.50961012927E+02  0.41800000000E+01 0.  1.
        -11    1    4    4    0    0 -0.60695135659E+01 -0.23621390715E+02 -0.99230627126E+01  0.26330139913E+02  0.00000000000E+00 0.  1.
         11    1    4    4    0    0  0.44510310044E+02 -0.55123163439E+02  0.12895671110E+03  0.14713790873E+03  0.00000000000E+00 0. -1.
</event>
<event>
 8    1  0.6689467E-009  0.9334697E+02  0.7561462E-02  0.1294943E+00
          1   -1    0    0  501    0  0.00000000000E+00  0.00000000000E+00  0.59436168246E+02  0.59436168246E+02  0.00000000000E+00 0. -1.
         -1   -1    0    0    0  501 -0.00000000000E+00 -0.00000000000E+00 -0.22279780454E+03  0.22279780454E+03  0.00000000000E+00 0.  1.
         25    2    1    2    0    0 -0.22464945846E+02  0.14962039773E+02 -0.67094120054E+02  0.14449313674E+03  0.12509240262E+03 0.  0.
         23    2    1    2    0    0  0.22464945846E+02 -0.14962039773E+02 -0.96267516235E+02  0.13774083604E+03  0.94744745532E+02 0.  0.
          5    1    3    3  502    0  0.12321263718E+02  0.46009016923E+02  0.14895968419E+02  0.50079990545E+02  0.41800000000E+01 0.  1.
         -5    1    3    3    0  502 -0.34786209564E+02 -0.31046977151E+02 -0.81990088474E+02  0.94413146192E+02  0.41800000000E+01 0.  1.
        -11    1    4    4    0    0  0.51315707744E+02 -0.30094158108E+02 -0.83994669665E+02  0.10292747323E+03  0.00000000000E+00 0.  1.
         11    1    4    4    0    0 -0.28850761898E+02  0.15132118335E+02 -0.12272846570E+02  0.34813362813E+02  0.00000000000E+00 0. -1.
</event>
<event>
 7    1  0.6689467E-009  0.8355683E+02  0.7561462E-02  0.1319250E+00
          2   -1    0    0  501    0  0.00000000000E+00  0.00000000000E+00  0.12186048412E+03  0.12186048412E+03  0.00000000000E+00 0. -1.
         -2   -1    0    0    0  501 -0.00000000000E+00 -0.00000000000E+00 -0.10605575456E+03  0.10605575456E+03  0.00000000000E+00 0.  1.
         23    2    1    2    0    0 -0.16540206723E+01 -0.27781258021E+02 -0.77548981603E+01  0.97233219828E+02  0.92841943706E+02 0.  0.
          5    1    1    2  502    0  0.44116245581E+02 -0.14248023932E+02  0.47203081341E+02  0.66293684452E+02  0.41800000000E+01 0. -1.
         -5    1    1    2    0  502 -0.42462224909E+02  0.42029281953E+02 -0.23643453617E+02  0.64389334402E+02  0.41800000000E+01 0. -1.
        -11    1    3    3    0    0 -0.31921520915E+01 -0.44134017957E+02  0.31742220476E+02  0.54457046714E+02  0.00000000000E+00 0. -1.
         11    1    3    3    0    0  0.15381314192E+01  0.16352759936E+02 -0.39497118636E+02  0.42776173115E+02  0.00000000000E+00 0.  1.
</event>
<event>
 8    1  0.6689467E-009  0.9136578E+02  0.7561462E-02  0.1299578E+00
         -2   -1    0    0    0  501 -0.00000000000E+00  0.00000000000E+00  0.27502545022E+02  0.27502545022E+02  0.00000000000E+00 0.  1.
          2   -1    0    0  501    0  0.00000000000E+00 -0.00000000000E+00 -0.50799886783E+03  0.50799886783E+03  0.00000000000E+00 0. -1.
         25    2    1    2    0    0 -0.40332199143E+02  0.24948744423E+02 -0.32199876359E+03  0.34868272859E+03  0.12508922945E+03 0.  0.
         23    2    1    2    0    0  0.40332199143E+02 -0.24948744423E+02 -0.15849755922E+03  0.18681868427E+03  0.86779135612E+02 0.  0.
          5    1    3    3  502    0  0.36232941001E+02 -0.20641780489E+02 -0.72849630461E+02  0.84044334572E+02  0.41800000000E+01 0.  1.
         -5    1    3    3    0  502 -0.76565140144E+02  0.45590524912E+02 -0.24914913313E+03  0.26463839401E+03  0.41800000000E+01 0.  1.
        -11    1    4    4    0    0  0.37287685868E+01 -0.12353274066E+02  0.84616602420E+01  0.15430709296E+02  0.00000000000E+00 0.  1.
         11    1    4    4    0    0  0.36603430557E+02 -0.12595470356E+02 -0.16695921946E+03  0.17138797497E+03  0.00000000000E+00 0. -1.
</event>
<event>
 8    1  0.6689467E-009  0.1019529E+03  0.7561462E-02  0.1276242E+00
         -2   -1    0    0    0  501 -0.00000000000E+00  0.00000000000E+00  0.33955415754E+03  0.33955415754E+03  0.00000000000E+00 0.  1.
          2   -1    0    0  501    0  0.00000000000E+00 -0.00000000000E+00 -0.45165409100E+02  0.45165409100E+02  0.00000000000E+00 0. -1.
         25    2    1    2    0    0 -0.57470899831E+02 -0.81943065701E+01  0.14422196329E+03  0.19954314827E+03  0.12508973714E+03 0.  0.
         23    2    1    2    0    0  0.57470899831E+02  0.81943065701E+01  0.15016678514E+03  0.18517641837E+03  0.91488751064E+02 0.  0.
          5    1    3    3  502    0 -0.14856971166E+02  0.33497187904E+02 -0.64592461085E+01  0.37443096159E+02  0.41800000000E+01 0.  1.
         -5    1    3    3    0  502 -0.42613928666E+02 -0.41691494474E+02  0.15068120940E+03  0.16210005211E+03  0.41800000000E+01 0.  1.
        -11    1    4    4    0    0  0.21946933184E+02  0.48680799817E+02  0.87872667485E+02  0.10282555051E+03  0.00000000000E+00 0.  1.
         11    1    4    4    0    0  0.35523966647E+02 -0.40486493247E+02  0.62294117660E+02  0.82350867857E+02  0.00000000000E+00 0. -1.
</event>
<event>
 8    1  0.6689467E-009  0.1281868E+03  0.7561462E-02  0.1230171E+00
         -2   -1    0    0    0  501 -0.00000000000E+00  0.00000000000E+00  0.62725540193E+03  0.62725540193E+03  0.00000000000E+00 0.  1.
          2   -1    0    0  501    0  0.00000000000E+00 -0.00000000000E+00 -0.47912753132E+02  0.47912753132E+02  0.00000000000E+00 0. -1.
         25    2    1    2    0    0 -0.84178340878E+02  0.43945320344E+02  0.11786304295E+03  0.19635527117E+03  0.12508601589E+03 0.  0.
         23    2    1    2    0    0  0.84178340878E+02 -0.43945320344E+02  0.46147960585E+03  0.47881288389E+03  0.85329753971E+02 0.  0.
          5    1    3    3  502    0 -0.38637991401E+02  0.71049767241E+02  0.11809378065E+03  0.14319419413E+03  0.41800000000E+01 0. -1.
         -5    1    3    3    0  502 -0.45540349477E+02 -0.27104446897E+02 -0.23073770272E+00  0.53161077039E+02  0.41800000000E+01 0. -1.
        -11    1    4    4    0    0  0.81136614256E+02 -0.30222807491E+01  0.36583764973E+03  0.37473920306E+03  0.00000000000E+00 0.  1.
         11    1    4    4    0    0  0.30417266220E+01 -0.40923039595E+02  0.95641956121E+02  0.10407368083E+03  0.00000000000E+00 0. -1.
</event>
<event>
 8    1  0.6689467E-009  0.1226447E+03  0.7561462E-02  0.1238797E+00
         -3   -1    0    0    0  501 -0.00000000000E+00  0.00000000000E+00  0.19100607810E+03  0.19100607810E+03  0.00000000000E+00 0.  1.
          3   -1    0    0  501    0  0.00000000000E+00 -0.00000000000E+00 -0.12299740071E+03  0.12299740071E+03  0.00000000000E+00 0. -1.
         25    2    1    2    0    0  0.77184247468E+02  0.74960485988E+02  0.47639358871E+02  0.17173429123E+03  0.12508667297E+03 0.  0.
         23    2    1    2    0    0 -0.77184247468E+02 -0.74960485988E+02  0.20369318525E+02  0.14226918758E+03  0.90824721744E+02 0.  0.
          5    1    3    3  502    0 -0.94986991948E+00 -0.10540545579E+02 -0.30098640134E+02  0.32177723535E+02  0.41800000000E+01 0. -1.
         -5    1    3    3    0  502  0.78134117388E+02  0.85501031567E+02  0.77737999005E+02  0.13955656770E+03  0.41800000000E+01 0. -1.
        -11    1    4    4    0    0 -0.55922740262E+02 -0.20525422102E+02  0.49054653775E+02  0.77168678152E+02  0.00000000000E+00 0.  1.
         11    1    4    4    0    0 -0.21261507206E+02 -0.54435063886E+02 -0.28685335249E+02  0.65100509425E+02  0.00000000000E+00 0. -1.
</event>
<event>
 8    1  0.6689467E-009  0.7878699E+02  0.7561462E-02  0.1332529E+00
          2   -1    0    0  501    0  0.00000000000E+00  0.00000000000E+00  0.21918768379E+03  0.21918768379E+03  0.00000000000E+00 0. -1.
         -2   -1    0    0    0  501 -0.00000000000E+00 -0.00000000000E+00 -0.67718343391E+02  0.67718343391E+02  0.00000000000E+00 0.  1.
         25    2    1    2    0    0 -0.32823816514E+02 -0.28996889636E+02  0.45885404091E+02  0.14025482417E+03  0.12509085840E+03 0.  0.
         23    2    1    2    0    0  0.32823816514E+02  0.28996889636E+02  0.10558393631E+03  0.14665120302E+03  0.91871569052E+02 0.  0.
          5    1    3    3  502    0  0.11353300711E+02 -0.31661175174E+02 -0.34520460770E+02  0.48378322234E+02  0.41800000000E+01 0.  1.
         -5    1    3    3    0  502 -0.44177117225E+02  0.26642855372E+01  0.80405864861E+02  0.91876501934E+02  0.41800000000E+01 0.  1.
        -11    1    4    4    0    0  0.20099364130E+02 -0.20148616440E+02 -0.11250097896E+01  0.28481868442E+02  0.00000000000E+00 0.  1.
         11    1    4    4    0    0  0.12724452384E+02  0.49145506077E+02  0.10670894610E+03  0.11816933457E+03  0.00000000000E+00 0. -1.
</event>
<event>
 8    1  0.6689467E-009  0.1345462E+03  0.7561462E-02  0.1220862E+00
          1   -1    0    0  501    0  0.00000000000E+00  0.00000000000E+00  0.12783200593E+03  0.12783200593E+03  0.00000000000E+00 0. -1.
         -1   -1    0    0    0  501 -0.00000000000E+00 -0.00000000000E+00 -0.29504233019E+03  0.29504233019E+03  0.00000000000E+00 0.  1.
         25    2    1    2    0    0  0.13975025283E+02  0.10108119696E+03 -0.22272366475E+03  0.27507567495E+03  0.12509231152E+03 0.  0.
         23    2    1    2    0    0 -0.13975025283E+02 -0.10108119696E+03  0.55513340491E+02  0.14779866116E+03  0.91378353879E+02 0.  0.
          5    1    3    3  502    0  0.49782715147E+02  0.34292881254E+01 -0.11421683905E+03  0.12471181768E+03  0.41800000000E+01 0. -1.
         -5    1    3    3    0  502 -0.35807689865E+02  0.97651908835E+02 -0.10850682570E+03  0.15036385728E+03  0.41800000000E+01 0. -1.
        -11    1    4    4    0    0  0.20342677920E+02 -0.36152921467E+02  0.61425730649E+02  0.74121377897E+02  0.00000000000E+00 0. -1.
         11    1    4    4    0    0 -0.34317703203E+02 -0.64928275493E+02 -0.59123901577E+01  0.73677283263E+02  0.00000000000E+00 0.  1.
</event>
<event>
 8    1  0.6689467E-009  0.1033918E+03  0.7561462E-02  0.1273321E+00
          1   -1    0    0  501    0  0.00000000000E+00  0.00000000000E+00  0.33145871651E+02  0.33145871651E+02  0.00000000000E+00 0. -1.
         -1   -1    0    0    0  501 -0.00000000000E+00 -0.00000000000E+00 -0.65074536832E+03  0.65074536832E+03  0.00000000000E+00 0.  1.
         25    2    1    2    0    0  0.31044604075E+02 -0.71248418529E+02 -0.47254000078E+03  0.49495707931E+03  0.12509337888E+03 0.  0.
         23    2    1    2    0    0 -0.31044604075E+02  0.71248418529E+02 -0.14505949589E+03  0.18893416066E+03  0.92810318016E+02 0.  0.
          5    1    3    3  502    0  0.41342756039E+02 -0.81984000999E+02 -0.18092825242E+03  0.20293620874E+03  0.41800000000E+01 0. -1.
         -5    1    3    3    0  502 -0.10298151963E+02  0.10735582470E+02 -0.29161174836E+03  0.29202087057E+03  0.41800000000E+01 0. -1.
        -11    1    4    4    0    0 -0.43436565935E+02  0.22108198174E+02 -0.17685655670E+02  0.51848723255E+02  0.00000000000E+00 0. -1.
         11    1    4    4    0    0  0.12391961860E+02  0.49140220355E+02 -0.12737384022E+03  0.13708543740E+03  0.00000000000E+00 0.  1.
</event>
<event>
 8    1  0.6689467E-009  0.1030234E+03  0.7561462E-02  0.1274064E+00
         -2   -1    0    0    0  501 -0.00000000000E+00  0.00000000000E+00  0.25664956988E+02  0.25664956988E+02  0.00000000000E+00 0.  1.
          2   -1    0    0  501    0  0.00000000000E+00 -0.00000000000E+00 -0.47653938793E+03  0.47653938793E+03  0.00000000000E+00 0. -1.
         25    2    1    2    0    0  0.13841628667E+02  0.59107599053E+01 -0.22474049775E+03  0.25764245069E+03  0.12507922810E+03 0.  0.
         23    2    1    2    0    0 -0.13841628667E+02 -0.59107599053E+01 -0.22613393320E+03  0.24456189423E+03  0.91909937435E+02 0.  0.
          5    1    3    3  502    0  0.52858866370E+02 -0.32754694316E+02 -0.16500170852E+03  0.17638017453E+03  0.41800000000E+01 0. -1.
         -5    1    3    3    0  502 -0.39017237703E+02  0.38665454221E+02 -0.59738789231E+02  0.81262276161E+02  0.41800000000E+01 0. -1.
        -11    1    4    4    0    0 -0.10805721792E+02 -0.46596793830E+02 -0.83743833230E+02  0.96441974383E+02  0.00000000000E+00 0.  1.
         11    1    4    4    0    0 -0.30359068754E+01  0.40686033925E+02 -0.14239009997E+03  0.14811991985E+03  0.00000000000E+00 0. -1.
</event>
<event>
 8    1  0.6689467E-009  0.1136895E+03  0.7561462E-02  0.1253886E+00
          2   -1    0    0  501    0  0.00000000000E+00  0.00000000000E+00  0.15991789939E+04  0.15991789939E+04  0.00000000000E+00 0. -1.
         -2   -1    0    0    0  501 -0.00000000000E+00 -0.00000000000E+00 -0.12677398775E+02  0.12677398775E+02  0.00000000000E+00 0.  1.
         25    2    1    2    0    0 -0.63023379963E+02 -0.24983389087E+02  0.12182694515E+04  0.12265500597E+04  0.12509387007E+03 0.  0.
         23    2    1    2    0    0  0.63023379963E+02  0.24983389087E+02  0.36823214362E+03  0.38530633297E+03  0.90939224116E+02 0.  0.
          5    1    3    3  502    0  0.99788229448E+01 -0.52799728168E+02  0.28822309862E+03  0.29321905665E+03  0.41800000000E+01 0. -1.
         -5    1    3    3    0  502 -0.73002202908E+02  0.27816339081E+02  0.93004635286E+03  0.93333100303E+03  0.41800000000E+01 0. -1.
        -11    1    4    4    0    0  0.48774158162E+02  0.47836291845E+02  0.33792817879E+03  0.34476467821E+03  0.00000000000E+00 0. -1.
         11    1    4    4    0    0  0.14249221801E+02 -0.22852902758E+02  0.30303964826E+02  0.40541654759E+02  0.00000000000E+00 0.  1.
</event>
<event>
 8    1  0.6689467E-009  0.1113566E+03  0.7561462E-02  0.1258078E+00
          2   -1    0    0  501    0  0.00000000000E+00  0.00000000000E+00  0.66239081676E+03  0.66239081676E+03  0.00000000000E+00 0. -1.
         -2   -1    0    0    0  501 -0.00000000000E+00 -0.00000000000E+00 -0.30588532367E+02  0.30588532367E+02  0.00000000000E+00 0.  1.
         25    2    1    2    0    0 -0.75020955957E+02  0.53283023140E+02  0.32911844900E+03  0.36391393158E+03  0.12508865553E+03 0.  0.
         23    2    1    2    0    0  0.75020955957E+02 -0.53283023140E+02  0.30268383539E+03  0.32906541754E+03  0.90550098981E+02 0.  0.
          5    1    3    3  502    0 -0.48508011970E+02  0.48087232307E+02  0.32954179505E+03  0.33657194806E+03  0.41800000000E+01 0.  1.
         -5    1    3    3    0  502 -0.26512943988E+02  0.51957908332E+01 -0.42334604938E+00  0.27341983526E+02  0.41800000000E+01 0.  1.
        -11    1    4    4    0    0  0.58041932781E+02  0.12186619345E+02  0.17162348131E+03  0.18158193464E+03  0.00000000000E+00 0. -1.
         11    1    4    4    0    0  0.16979023176E+02 -0.65469642486E+02  0.13106035409E+03  0.14748348290E+03  0.00000000000E+00 0.  1.
</event>
<event>
 8    1  0.6689467E-009  0.1530923E+03  0.7561462E-02  0.1196724E+00
         -1   -1    0    0    0  501 -0.00000000000E+00  0.00000000000E+00  0.72367248256E+03  0.72367248256E+03  0.00000000000E+00 0.  1.
          1   -1    0    0  501    0  0.00000000000E+00 -0.00000000000E+00 -0.34146046169E+02  0.34146046169E+02  0.00000000000E+00 0. -1.
         25    2    1    2    0    0  0.10390928189E+03 -0.46833699569E+02  0.35397170790E+03  0.39234365425E+03  0.12508812397E+03 0.  0.
         23    2    1    2    0    0 -0.10390928189E+03  0.46833699569E+02  0.33555472849E+03  0.36547487448E+03  0.89355323207E+02 0.  0.
          5    1    3    3  502    0  0.12749645745E+03 -0.13879057891E+02  0.27595537027E+03  0.30433010644E+03  0.41800000000E+01 0.  1.
         -5    1    3    3    0  502 -0.23587175565E+02 -0.32954641678E+02  0.78016337634E+02  0.88013547804E+02  0.41800000000E+01 0.  1.
        -11    1    4    4    0    0 -0.80495405889E+00  0.33101193513E+02  0.38737519120E+02  0.50960105481E+02  0.00000000000E+00 0. -1.
         11    1    4    4    0    0 -0.10310432783E+03  0.13732506055E+02  0.29681720937E+03  0.31451476900E+03  0.00000000000E+00 0.  1.
</event>
<event>
 8    1  0.6689467E-009  0.9691370E+02  0.7561462E-02  0.1286923E+00
          1   -1    0    0  501    0  0.00000000000E+00  0.00000000000E+00  0.23473556279E+03  0.23473556279E+03  0.00000000000E+00 0. -1.
         -1   -1    0    0    0  501 -0.00000000000E+00 -0.00000000000E+00 -0.63887364301E+02  0.63887364301E+02  0.00000000000E+00 0.  1.
         25    2    1    2    0    0  0.21768556956E+02  0.51445029978E+02  0.10169363433E+03  0.17061108789E+03  0.12508431902E+03 0.  0.
         23    2    1    2    0    0 -0.21768556956E+02 -0.51445029978E+02  0.69154564158E+02  0.12801183921E+03  0.92109804318E+02 0.  0.
          5    1    3    3  502    0 -0.47911074458E+02  0.15828494394E+02  0.13033437848E+02  0.52281499526E+02  0.41800000000E+01 0.  1.
         -5    1    3    3    0  502  0.69679631414E+02  0.35616535583E+02  0.88660196487E+02  0.11832958836E+03  0.41800000000E+01 0.  1.
        -11    1    4    4    0    0 -0.28559029665E+02 -0.26437767713E+02 -0.13654253495E+02  0.41243331286E+02  0.00000000000E+00 0.  1.
         11    1    4    4    0    0  0.67904727091E+01 -0.25007262265E+02  0.82808817653E+02  0.86768507920E+02  0.00000000000E+00 0. -1.
</event>
<event>
 8    1  0.6689467E-009  0.1552702E+03  0.7561462E-02  0.1194143E+00
          3   -1    0    0  501    0  0.00000000000E+00  0.00000000000E+00  0.17567919721E+03  0.17567919721E+03  0.00000000000E+00 0. -1.
         -3   -1    0    0    0  501 -0.00000000000E+00 -0.00000000000E+00 -0.15945115483E+03  0.15945115483E+03  0.00000000000E+00 0.  1.
         25    2    1    2    0    0  0.58610580938E+02  0.11114380939E+03  0.56841158675E+01  0.17739025097E+03  0.12508735108E+03 0.  0.
         23    2    1    2    0    0 -0.58610580938E+02 -0.11114380939E+03  0.10543926518E+02  0.15774010107E+03  0.94776677162E+02 0.  0.
          5    1    3    3  502    0 -0.21105300697E+02 -0.14960977959E+02  0.10084104340E+02  0.28078926962E+02  0.41800000000E+01 0. -1.
         -5    1    3    3    0  502  0.79715881635E+02  0.12610478735E+03 -0.43999884724E+01  0.14931132401E+03  0.41800000000E+01 0. -1.
        -11    1    4    4    0    0 -0.32472089865E+02 -0.10255774304E+03 -0.27268306080E+02  0.11097787074E+03  0.00000000000E+00 0.  1.
         11    1    4    4    0    0 -0.26138491073E+02 -0.85860663532E+01  0.37812232598E+02  0.46762230326E+02  0.00000000000E+00 0. -1.
</event>
<event>
 8    1  0.6689467E-009  0.1096097E+03  0.7561462E-02  0.1261294E+00
         -1   -1    0    0    0  501 -0.00000000000E+00  0.00000000000E+00  0.20282682000E+03  0.20282682000E+03  0.00000000000E+00 0.  1.
          1   -1    0    0  501    0  0.00000000000E+00 -0.00000000000E+00 -0.16261626575E+03  0.16261626575E+03  0.00000000000E+00 0. -1.
         25    2    1    2    0    0 -0.92741773043E+02 -0.34437263683E+02  0.10849744690E+03  0.19289176594E+03  0.12509426761E+03 0.  0.
         23    2    1    2    0    0  0.92741773043E+02  0.34437263683E+02 -0.68286892641E+02  0.17255131981E+03  0.12378972762E+03 0.  0.
          5    1    3    3  502    0 -0.23498503379E+02  0.16692626762E+02  0.10244309261E+03  0.10650297213E+03  0.41800000000E+01 0. -1.
         -5    1    3    3    0  502 -0.69243269664E+02 -0.51129890445E+02  0.60543542894E+01  0.86388793813E+02  0.41800000000E+01 0. -1.
        -11    1    4    4    0    0  0.61488611189E+02  0.62052416769E+01 -0.10155432292E+03  0.11888075889E+03  0.00000000000E+00 0. -1.
         11    1    4    4    0    0  0.31253161854E+02  0.28232022006E+02  0.33267430278E+02  0.53670560923E+02  0.00000000000E+00 0.  1.
</event>
<event>
 8    1  0.6689467E-009  0.8870673E+02  0.7561462E-02  0.1306014E+00
         -3   -1    0    0    0  501 -0.00000000000E+00  0.00000000000E+00  0.13345851630E+03  0.13345851630E+03  0.00000000000E+00 0.  1.
          3   -1    0    0  501    0  0.00000000000E+00 -0.00000000000E+00 -0.14749158016E+03  0.14749158016E+03  0.00000000000E+00 0. -1.
         25    2    1    2    0    0  0.56330261031E+02 -0.48957284029E+02 -0.55809259525E+02  0.15598974760E+03  0.12509282130E+03 0.  0.
         23    2    1    2    0    0 -0.56330261031E+02  0.48957284029E+02  0.41776195666E+02  0.12496034886E+03  0.91103920305E+02 0.  0.
          5    1    3    3  502    0  0.43103285201E+02 -0.29394063026E+02  0.34410105247E+02  0.62637304215E+02  0.41800000000E+01 0. -1.
         -5    1    3    3    0  502  0.13226975830E+02 -0.19563221004E+02 -0.90219364772E+02  0.93352443383E+02  0.41800000000E+01 0. -1.
        -11    1    4    4    0    0 -0.31438581304E+02 -0.13229505647E+02  0.46661640785E+02  0.57798900810E+02  0.00000000000E+00 0.  1.
         11    1    4    4    0    0 -0.24891679727E+02  0.62186789676E+02 -0.48854451192E+01  0.67161448047E+02  0.00000000000E+00 0. -1.
</event>
<event>
 8    1  0.6689467E-009  0.1985664E+03  0.7561462E-02  0.1150954E+00
          1   -1    0    0  501    0  0.00000000000E+00  0.00000000000E+00  0.83268897177E+03  0.83268897177E+03  0.00000000000E+00 0. -1.
         -1   -1    0    0    0  501 -0.00000000000E+00 -0.00000000000E+00 -0.55462207161E+02  0.55462207161E+02  0.00000000000E+00 0.  1.
         25    2    1    2    0    0  0.11520772236E+03 -0.12335866548E+03  0.24522818951E+03  0.32291645770E+03  0.12509194251E+03 0.  0.
         23    2    1    2    0    0 -0.11520772236E+03  0.12335866548E+03  0.53199857510E+03  0.56523472124E+03  0.89317560117E+02 0.  0.
          5    1    3    3  502    0  0.13906689989E+03 -0.12317693908E+03  0.21906763447E+03  0.28726340149E+03  0.41800000000E+01 0.  1.
         -5    1    3    3    0  502 -0.23859177525E+02 -0.18172640280E+00  0.26160555041E+02  0.35653056204E+02  0.41800000000E+01 0.  1.
        -11    1    4    4    0    0 -0.19446242207E+02 -0.10811085377E+02  0.10910762750E+03  0.11135308833E+03  0.00000000000E+00 0. -1.
         11    1    4    4    0    0 -0.95761480153E+02  0.13416975085E+03  0.42289094760E+03  0.45388163290E+03  0.00000000000E+00 0.  1.
</event>
<event>
 8    1  0.6689467E-009  0.9787520E+02  0.7561462E-02  0.1284829E+00
         -3   -1    0    0    0  501 -0.00000000000E+00  0.00000000000E+00  0.62947619870E+02  0.62947619870E+02  0.00000000000E+00 0.  1.
          3   -1    0    0  501    0  0.00000000000E+00 -0.00000000000E+00 -0.21607881261E+03  0.21607881261E+03  0.00000000000E+00 0. -1.
         25    2    1    2    0    0  0.28038073785E+01  0.16662029174E+02 -0.36513373684E+02  0.13140356943E+03  0.12509271381E+03 0.  0.
         23    2    1    2    0    0 -0.28038073785E+01 -0.16662029174E+02 -0.11661781905E+03  0.14762286305E+03  0.88923053376E+02 0.  0.
          5    1    3    3  502    0  0.57956130509E+02  0.35145937469E+02 -0.20050709760E+02  0.70807156037E+02  0.41800000000E+01 0. -1.
         -5    1    3    3    0  502 -0.55152323131E+02 -0.18483908295E+02 -0.16462663924E+02  0.60596413393E+02  0.41800000000E+01 0. -1.
        -11    1    4    4    0    0 -0.22087101858E+02 -0.35986719093E+02 -0.11231001159E+03  0.11998509375E+03  0.00000000000E+00 0. -1.
         11    1    4    4    0    0  0.19283294479E+02  0.19324689919E+02 -0.43078074621E+01  0.27637769294E+02  0.00000000000E+00 0.  1.
</event>
<event>
 7    1  0.6689467E-009  0.2611884E+03  0.7561462E-02  0.1106431E+00
          1   -1    0    0  501    0  0.00000000000E+00  0.00000000000E+00  0.20577479777E+04  0.20577479777E+04  0.00000000000E+00 0. -1.
         -1   -1    0    0    0  501 -0.00000000000E+00 -0.00000000000E+00 -0.43515974948E+02  0.43515974948E+02  0.00000000000E+00 0.  1.
         25    2    1    2    0    0 -0.14005419799E+03 -0.19312921489E+03  0.13759794841E+04  0.14020989482E+04  0.12509135836E+03 0.  0.
          5    1    3    3  502    0 -0.81839702794E+01 -0.10385753317E+03  0.69220839104E+03  0.70001663809E+03  0.41800000000E+01 0.  1.
         -5    1    3    3    0  502 -0.13187022771E+03 -0.89271681719E+02  0.68377109306E+03  0.70208231015E+03  0.41800000000E+01 0.  1.
        -11    1    1    2    0    0  0.10127116634E+03  0.54794661607E+02  0.14355595990E+03  0.18402885017E+03  0.00000000000E+00 0.  1.
         11    1    1    2    0    0  0.38783031654E+02  0.13833455328E+03  0.49469655876E+03  0.51513615426E+03  0.00000000000E+00 0. -1.
</event>
<event>
 8    1  0.6689467E-009  0.9437890E+02  0.7561462E-02  0.1292581E+00
          2   -1    0    0  501    0  0.00000000000E+00  0.00000000000E+00  0.15784233097E+03  0.15784233097E+03  0.00000000000E+00 0.  1.
         -2   -1    0    0    0  501 -0.00000000000E+00 -0.00000000000E+00 -0.10568138651E+03  0.10568138651E+03  0.00000000000E+00 0. -1.
         25    2    1    2    0    0 -0.21175434908E+02 -0.40985896418E+02 -0.22750499930E+02  0.13524798487E+03  0.12508472895E+03 0.  0.
         23    2    1    2    0    0  0.21175434908E+02  0.40985896418E+02  0.74911444395E+02  0.12827573261E+03  0.93352537872E+02 0.  0.
          5    1    3    3  502    0 -0.46554255742E+02  0.80167075370E+01 -0.53858229855E+02  0.71761742249E+02  0.41800000000E+01 0.  1.
         -5    1    3    3    0  502  0.25378820834E+02 -0.49002603955E+02  0.31107729926E+02  0.63486242623E+02  0.41800000000E+01 0.  1.
        -11    1    4    4    0    0  0.38951008344E+02 -0.24810880335E+01  0.71165188302E+02  0.81165392101E+02  0.00000000000E+00 0.  1.
         11    1    4    4    0    0 -0.17775573436E+02  0.43466984452E+02  0.37462560925E+01  0.47110340511E+02  0.00000000000E+00 0. -1.
</event>
<event>
 7    1  0.6689467E-009  0.1286672E+03  0.7561462E-02  0.1229447E+00
          3   -1    0    0  501    0  0.00000000000E+00  0.00000000000E+00  0.20936160022E+04  0.20936160022E+04  0.00000000000E+00 0. -1.
         -3   -1    0    0    0  501 -0.00000000000E+00 -0.00000000000E+00 -0.17796921120E+02  0.17796921120E+02  0.00000000000E+00 0.  1.
         23    2    1    2    0    0  0.20192377288E+02 -0.78341771824E+02  0.23513625906E+03  0.26470428540E+03  0.90742124009E+02 0.  0.
          5    1    1    2  502    0 -0.25183170437E+02  0.11028598789E+03  0.12455637669E+04  0.12506973099E+04  0.41800000000E+01 0. -1.
         -5    1    1    2    0  502  0.49907931495E+01 -0.31944216065E+02  0.59511905513E+03  0.59601132803E+03  0.41800000000E+01 0. -1.
        -11    1    3    3    0    0  0.43184673501E+02 -0.17688709239E+02  0.49352522005E+02  0.67922587467E+02  0.00000000000E+00 0.  1.
         11    1    3    3    0    0 -0.22992296213E+02 -0.60653062585E+02  0.18578373706E+03  0.19678169793E+03  0.00000000000E+00 0. -1.
</event>
<event>
 8    1  0.6689467E-009  0.1033064E+03  0.7561462E-02  0.1273493E+00
         -2   -1    0    0    0  501 -0.00000000000E+00  0.00000000000E+00  0.52402635493E+02  0.52402635493E+02  0.00000000000E+00 0.  1.
          2   -1    0    0  501    0  0.00000000000E+00 -0.00000000000E+00 -0.23828853788E+03  0.23828853788E+03  0.00000000000E+00 0. -1.
         25    2    1    2    0    0  0.25331683190E+02 -0.29099181704E+01 -0.10729870523E+03  0.16676617935E+03  0.12509110533E+03 0.  0.
         23    2    1    2    0    0 -0.25331683190E+02  0.29099181704E+01 -0.78587197153E+02  0.12392499402E+03  0.92365008468E+02 0.  0.
          5    1    3    3  502    0  0.59278667127E+02 -0.35337753192E+02 -0.28156179100E+02  0.74652260505E+02  0.41800000000E+01 0. -1.
         -5    1    3    3    0  502 -0.33946983937E+02  0.32427835022E+02 -0.79142526130E+02  0.92113918844E+02  0.41800000000E+01 0. -1.
        -11    1    4    4    0    0 -0.38946874396E+02 -0.33561155424E+02 -0.23644987056E+02  0.56588829211E+02  0.00000000000E+00 0.  1.
         11    1    4    4    0    0  0.13615191206E+02  0.36471073595E+02 -0.54942210097E+02  0.67336164808E+02  0.00000000000E+00 0. -1.
</event>
<event>
 8    1  0.6689467E-009  0.9049733E+02  0.7561462E-02  0.1301652E+00
         -2   -1    0    0    0  501 -0.00000000000E+00  0.00000000000E+00  0.42868173558E+02  0.42868173558E+02  0.00000000000E+00 0.  1.
          2   -1    0    0  501    0  0.00000000000E+00 -0.00000000000E+00 -0.35073278617E+03  0.35073278617E+03  0.00000000000E+00 0. -1.
         25    2    1    2    0    0  0.26283648321E+02  0.41355803848E+02 -0.23582323457E+03  0.27140599533E+03  0.12508990229E+03 0.  0.
         23    2    1    2    0    0 -0.26283648321E+02 -0.41355803848E+02 -0.72041378039E+02  0.12219496440E+03  0.85676814215E+02 0.  0.
          5    1    3    3  502    0 -0.11427867633E+02 -0.32534557893E+02 -0.19842706457E+02  0.40003737519E+02  0.41800000000E+01 0.  1.
         -5    1    3    3    0  502  0.37711515955E+02  0.73890361741E+02 -0.21598052811E+03  0.23140225781E+03  0.41800000000E+01 0.  1.
        -11    1    4    4    0    0 -0.22294877146E+02 -0.65916087157E+00 -0.77768805890E+02  0.80904160644E+02  0.00000000000E+00 0. -1.
         11    1    4    4    0    0 -0.39887711755E+01 -0.40696642977E+02  0.57274278506E+01  0.41290803757E+02  0.00000000000E+00 0.  1.
</event>
<event>
 8    1  0.6689467E-009  0.9185583E+02  0.7561462E-02  0.1298419E+00
          2   -1    0    0  501    0  0.00000000000E+00  0.00000000000E+00  0.12150614401E+03  0.12150614401E+03  0.00000000000E+00 0. -1.
         -2   -1    0    0    0  501 -0.00000000000E+00 -0.00000000000E+00 -0.11826677827E+03  0.11826677827E+03  0.00000000000E+00 0.  1.
         25    2    1    2    0    0  0.32202692720E+02 -0.18828205530E+02  0.29417746108E+02  0.13379880063E+03  0.12508077598E+03 0.  0.
         23    2    1    2    0    0 -0.32202692720E+02  0.18828205530E+02 -0.26178380364E+02  0.10597412165E+03  0.95674929419E+02 0.  0.
          5    1    3    3  502    0 -0.22071969188E+02  0.27070448521E+02 -0.25857615368E+02  0.43658557918E+02  0.41800000000E+01 0.  1.
         -5    1    3    3    0  502  0.54274661908E+02 -0.45898654052E+02  0.55275361477E+02  0.90140242707E+02  0.41800000000E+01 0.  1.
        -11    1    4    4    0    0 -0.32842697903E+02 -0.20029198939E+02  0.21811712228E+02  0.44221741327E+02  0.00000000000E+00 0. -1.
         11    1    4    4    0    0  0.64000518324E+00  0.38857404469E+02 -0.47990092592E+02  0.61752380324E+02  0.00000000000E+00 0.  1.
</event>
<event>
 8    1  0.6689467E-009  0.9102235E+02  0.7561462E-02  0.1300395E+00
         -2   -1    0    0    0  501 -0.00000000000E+00  0.00000000000E+00  0.49978556556E+02  0.49978556556E+02  0.00000000000E+00 0. -1.
          2   -1    0    0  501    0  0.00000000000E+00 -0.00000000000E+00 -0.34058227822E+03  0.34058227822E+03  0.00000000000E+00 0.  1.
         25    2    1    2    0    0  0.35280495019E+01  0.34496068778E+02 -0.25581787041E+03  0.28686149072E+03  0.12507720072E+03 0.  0.
         23    2    1    2    0    0 -0.35280495019E+01 -0.34496068778E+02 -0.34785851252E+02  0.10369934406E+03  0.91329472878E+02 0.  0.
          5    1    3    3  502    0 -0.11766880122E+02  0.79841605918E+02 -0.14325547986E+03  0.16447719116E+03  0.41800000000E+01 0. -1.
         -5    1    3    3    0  502  0.15294929623E+02 -0.45345537140E+02 -0.11256239055E+03  0.12238429955E+03  0.41800000000E+01 0. -1.
        -11    1    4    4    0    0  0.11398876158E+02  0.38614327820E+01 -0.56080543236E+02  0.57357409028E+02  0.00000000000E+00 0.  1.
         11    1    4    4    0    0 -0.14926925660E+02 -0.38357501560E+02  0.21294691984E+02  0.46341935029E+02  0.00000000000E+00 0. -1.
</event>
<event>
 8    1  0.6689467E-009  0.1329204E+03  0.7561462E-02  0.1223186E+00
          2   -1    0    0  501    0  0.00000000000E+00  0.00000000000E+00  0.24145235233E+03  0.24145235233E+03  0.00000000000E+00 0. -1.
         -2   -1    0    0    0  501 -0.00000000000E+00 -0.00000000000E+00 -0.79213515076E+02  0.79213515076E+02  0.00000000000E+00 0.  1.
         25    2    1    2    0    0 -0.70639560959E+01  0.78717944216E+02  0.12378954939E+03  0.19291702981E+03  0.12508682440E+03 0.  0.
         23    2    1    2    0    0  0.70639560959E+01 -0.78717944216E+02  0.38449287865E+02  0.12774883759E+03  0.92709241993E+02 0.  0.
          5    1    3    3  502    0  0.27505563868E+02  0.10219318992E+03  0.86243801287E+02  0.13658502762E+03  0.41800000000E+01 0.  1.
         -5    1    3    3    0  502 -0.34569519964E+02 -0.23475245699E+02  0.37545748100E+02  0.56332002198E+02  0.41800000000E+01 0.  1.
        -11    1    4    4    0    0  0.38309847272E+02 -0.77745490150E+02  0.41954001222E+02  0.96291971915E+02  0.00000000000E+00 0.  1.
         11    1    4    4    0    0 -0.31245891177E+02 -0.97245406539E+00 -0.35047133576E+01  0.31456865674E+02  0.00000000000E+00 0. -1.
</event>
<event>
 8    1  0.6689467E-009  0.1288966E+03  0.7561462E-02  0.1229102E+00
          2   -1    0    0  501    0  0.00000000000E+00  0.00000000000E+00  0.56508915357E+03  0.56508915357E+03  0.00000000000E+00 0. -1.
         -2   -1    0    0    0  501 -0.00000000000E+00 -0.00000000000E+00 -0.45300041313E+02  0.45300041313E+02  0.00000000000E+00 0.  1.
         25    2    1    2    0    0 -0.88244638869E+02  0.68399655366E+02  0.35204781389E+03  0.38993744211E+03  0.12509163182E+03 0.  0.
         23    2    1    2    0    0  0.88244638869E+02 -0.68399655366E+02  0.16774129837E+03  0.22045175278E+03  0.89421490594E+02 0.  0.
          5    1    3    3  502    0 -0.59673414631E+02  0.27289671329E+02  0.47101183719E+02  0.80880383795E+02  0.41800000000E+01 0.  1.
         -5    1    3    3    0  502 -0.28571224238E+02  0.41109984037E+02  0.30494663017E+03  0.30905705832E+03  0.41800000000E+01 0.  1.
        -11    1    4    4    0    0  0.95287789535E+02 -0.82502552948E+02  0.13874609803E+03  0.18744842970E+03  0.00000000000E+00 0.  1.
         11    1    4    4    0    0 -0.70431506660E+01  0.14102897582E+02  0.28995200341E+02  0.33003323080E+02  0.00000000000E+00 0. -1.
</event>
<event>
 7    1  0.6689467E-009  0.2988599E+03  0.7561462E-02  0.1085812E+00
          3   -1    0    0  501    0  0.00000000000E+00  0.00000000000E+00  0.11058033789E+04  0.11058033789E+04  0.00000000000E+00 0. -1.
         -3   -1    0    0    0  501 -0.00000000000E+00 -0.00000000000E+00 -0.10106633794E+03  0.10106633794E+03  0.00000000000E+00 0.  1.
         23    2    1    2    0    0 -0.26531724652E+03  0.11399736675E+03  0.72528223474E+03  0.78594545548E+03  0.91034598022E+02 0.  0.
          5    1    1    2  502    0  0.23411218063E+03 -0.75766121226E+02  0.16522950222E+03  0.29642415396E+03  0.41800000000E+01 0. -1.
         -5    1    1    2    0  502  0.31205065893E+02 -0.38231245524E+02  0.11422530402E+03  0.12450010743E+03  0.41800000000E+01 0. -1.
        -11    1    3    3    0    0 -0.63298970459E+02  0.71789468878E+02  0.25506371151E+03  0.27242977890E+03  0.00000000000E+00 0. -1.
         11    1    3    3    0    0 -0.20201827606E+03  0.42207897871E+02  0.47021852322E+03  0.51351567658E+03  0.00000000000E+00 0.  1.
</event>
<event>
 8    1  0.6689467E-009  0.2124267E+03  0.7561462E-02  0.1139659E+00
          1   -1    0    0  501    0  0.00000000000E+00  0.00000000000E+00  0.89362172981E+03  0.89362172981E+03  0.00000000000E+00 0. -1.
         -1   -1    0    0    0  501 -0.00000000000E+00 -0.00000000000E+00 -0.59384526751E+02  0.59384526751E+02  0.00000000000E+00 0.  1.
         25    2    1    2    0    0  0.18624706128E+03  0.76304971317E+02  0.36374204940E+03  0.43412720570E+03  0.12509090993E+03 0.  0.
         23    2    1    2    0    0 -0.18624706128E+03 -0.76304971317E+02  0.47049515366E+03  0.51887905086E+03  0.85786731619E+02 0.  0.
          5    1    3    3  502    0  0.19200315196E+03  0.58788730772E+02  0.36341125220E+03  0.41521866029E+03  0.41800000000E+01 0.  1.
         -5    1    3    3    0  502 -0.57560906880E+01  0.17516240545E+02  0.33079720519E+00  0.18908545413E+02  0.41800000000E+01 0.  1.
        -11    1    4    4    0    0 -0.84034549461E+02 -0.55744097640E+02  0.32211987866E+03  0.33753581462E+03  0.00000000000E+00 0. -1.
         11    1    4    4    0    0 -0.10221251182E+03 -0.20560873677E+02  0.14837527500E+03  0.18134323624E+03  0.00000000000E+00 0.  1.
</event>
<event>
 8    1  0.6689467E-009  0.2217604E+03  0.7561462E-02  0.1132577E+00
         -2   -1    0    0    0  501 -0.00000000000E+00  0.00000000000E+00  0.96244771907E+02  0.96244771907E+02  0.00000000000E+00 0.  1.
          2   -1    0    0  501    0  0.00000000000E+00 -0.00000000000E+00 -0.63074411798E+03  0.63074411798E+03  0.00000000000E+00 0. -1.
         25    2    1    2    0    0  0.62880269204E+02  0.19344376338E+03 -0.14853317693E+03  0.28122047285E+03  0.12509369230E+03 0.  0.
         23    2    1    2    0    0 -0.62880269204E+02 -0.19344376338E+03 -0.38596616915E+03  0.44576841704E+03  0.91461358286E+02 0.  0.
          5    1    3    3  502    0  0.10298160125E+02 -0.11834414971E+02 -0.39854823163E+02  0.43034693086E+02  0.41800000000E+01 0.  1.
         -5    1    3    3    0  502  0.52582109079E+02  0.20527817835E+03 -0.10867835377E+03  0.23818577976E+03  0.41800000000E+01 0.  1.
        -11    1    4    4    0    0 -0.21343768678E+02 -0.16159242238E+03 -0.23507029092E+03  0.28605193428E+03  0.00000000000E+00 0.  1.
         11    1    4    4    0    0 -0.41536500526E+02 -0.31851340997E+02 -0.15089587822E+03  0.15971648276E+03  0.00000000000E+00 0. -1.
</event>
<event>
 8    1  0.6689467E-009  0.1685686E+03  0.7561462E-02  0.1179349E+00
         -1   -1    0    0    0  501 -0.00000000000E+00  0.00000000000E+00  0.20593880492E+02  0.20593880492E+02  0.00000000000E+00 0.  1.
          1   -1    0    0  501    0  0.00000000000E+00 -0.00000000000E+00 -0.15060318765E+04  0.15060318765E+04  0.00000000000E+00 0. -1.
         25    2    1    2    0    0 -0.12717657331E+03  0.53613923724E+02 -0.77486803912E+03  0.79694179750E+03  0.12508963565E+03 0.  0.
         23    2    1    2    0    0  0.12717657331E+03 -0.53613923724E+02 -0.71056995690E+03  0.72968395949E+03  0.92090626461E+02 0.  0.
          5    1    3    3  502    0  0.10059452460E+02  0.30311333995E+02 -0.30981399774E+03  0.31148379597E+03  0.41800000000E+01 0. -1.
         -5    1    3    3    0  502 -0.13723602577E+03  0.23302589729E+02 -0.46505404137E+03  0.48545800154E+03  0.41800000000E+01 0. -1.
        -11    1    4    4    0    0  0.14620565312E+01  0.19953264322E+02 -0.99812946281E+02  0.10179830358E+03  0.00000000000E+00 0.  1.
         11    1    4    4    0    0  0.12571451678E+03 -0.73567188047E+02 -0.61075701061E+03  0.62788565591E+03  0.00000000000E+00 0. -1.
</event>
<event>
 8    1  0.6689467E-009  0.6504179E+02  0.7561462E-02  0.1377814E+00
          4   -1    0    0  501    0  0.00000000000E+00  0.00000000000E+00  0.44255770583E+02  0.44255770583E+02  0.00000000000E+00 0. -1.
         -4   -1    0    0    0  501 -0.00000000000E+00 -0.00000000000E+00 -0.27783097382E+03  0.27783097382E+03  0.00000000000E+00 0.  1.
         25    2    1    2    0    0 -0.28803017955E+02 -0.20824670189E+02 -0.13437799952E+03  0.18699869763E+03  0.12509110850E+03 0.  0.
         23    2    1    2    0    0  0.28803017955E+02  0.20824670189E+02 -0.99197203710E+02  0.13508804678E+03  0.84530553209E+02 0.  0.
          5    1    3    3  502    0  0.60451411019E+01 -0.31853617824E+02 -0.14505312970E+03  0.14869122212E+03  0.41800000000E+01 0.  1.
         -5    1    3    3    0  502 -0.34848159057E+02  0.11028947635E+02  0.10675130174E+02  0.38307475508E+02  0.41800000000E+01 0.  1.
        -11    1    4    4    0    0  0.42743754631E+02  0.17999273386E+02 -0.13620938014E+02  0.48337690830E+02  0.00000000000E+00 0. -1.
         11    1    4    4    0    0 -0.13940736676E+02  0.28253968036E+01 -0.85576265696E+02  0.86750355946E+02  0.00000000000E+00 0.  1.
</event>
<event>
 8    1  0.6689467E-009  0.1056985E+03  0.7561462E-02  0.1268749E+00
          1   -1    0    0  501    0  0.00000000000E+00  0.00000000000E+00  0.40640726456E+03  0.40640726456E+03  0.00000000000E+00 0. -1.
         -1   -1    0    0    0  501 -0.00000000000E+00 -0.00000000000E+00 -0.50190505529E+02  0.50190505529E+02  0.00000000000E+00 0.  1.
         25    2    1    2    0    0 -0.27578637852E+02  0.27613076066E+02  0.33329969069E+03  0.35813252812E+03  0.12508861120E+03 0.  0.
         23    2    1    2    0    0  0.27578637852E+02 -0.27613076066E+02  0.22917068344E+02  0.98465241967E+02  0.87447976641E+02 0.  0.
          5    1    3    3  502    0  0.32797071137E+02 -0.31990007110E+02  0.12340956957E+03  0.13170574282E+03  0.41800000000E+01 0.  1.
         -5    1    3    3    0  502 -0.60375708989E+02  0.59603083175E+02  0.20989012112E+03  0.22642678530E+03  0.41800000000E+01 0.  1.
        -11    1    4    4    0    0  0.23403788236E+02 -0.51305745159E+02  0.39845606636E+02  0.69048455148E+02  0.00000000000E+00 0.  1.
         11    1    4    4    0    0  0.41748496153E+01  0.23692669093E+02 -0.16928538291E+02  0.29416786819E+02  0.00000000000E+00 0. -1.
</event>
<event>
 8    1  0.6689467E-009  0.1186996E+03  0.7561462E-02  0.1245258E+00
          1   -1    0    0  501    0  0.00000000000E+00  0.00000000000E+00  0.12625123462E+03  0.12625123462E+03  0.00000000000E+00 0. -1.
         -1   -1    0    0    0  501 -0.00000000000E+00 -0.00000000000E+00 -0.17105829769E+03  0.17105829769E+03  0.00000000000E+00 0.  1.
         25    2    1    2    0    0 -0.77062233116E+02  0.44282642399E+02  0.19846970009E+02  0.15472668679E+03  0.12508759010E+03 0.  0.
         23    2    1    2    0    0  0.77062233116E+02 -0.44282642399E+02 -0.64654033077E+02  0.14258284553E+03  0.90830521602E+02 0.  0.
          5    1    3    3  502    0 -0.90355410182E+02  0.27745754661E+02 -0.30927804465E+02  0.99538578149E+02  0.41800000000E+01 0.  1.
         -5    1    3    3    0  502  0.13293177066E+02  0.16536887738E+02  0.50774774474E+02  0.55188108641E+02  0.41800000000E+01 0.  1.
        -11    1    4    4    0    0 -0.94400510342E+01 -0.32521694883E+02  0.14365946542E+00  0.33864374195E+02  0.00000000000E+00 0. -1.
         11    1    4    4    0    0  0.86502284150E+02 -0.11760947516E+02 -0.64797692542E+02  0.10871847133E+03  0.00000000000E+00 0.  1.
</event>
<event>
 8    1  0.6689467E-009  0.7911131E+02  0.7561462E-02  0.1331592E+00
          1   -1    0    0  501    0  0.00000000000E+00  0.00000000000E+00  0.49864653218E+02  0.49864653218E+02  0.00000000000E+00 0. -1.
         -1   -1    0    0    0  501 -0.00000000000E+00 -0.00000000000E+00 -0.23816745363E+03  0.23816745363E+03  0.00000000000E+00 0.  1.
         25    2    1    2    0    0 -0.17360937498E+02  0.61190141234E+01 -0.11034324062E+03  0.16780580261E+03  0.12507722475E+03 0.  0.
         23    2    1    2    0    0  0.17360937498E+02 -0.61190141234E+01 -0.77959559794E+02  0.12022630425E+03  0.89653927884E+02 0.  0.
          5    1    3    3  502    0 -0.40572963103E+02 -0.25926927739E+02 -0.11779501692E+03  0.12732442550E+03  0.41800000000E+01 0. -1.
         -5    1    3    3    0  502  0.23212025605E+02  0.32045941862E+02  0.74517762987E+01  0.40481377107E+02  0.41800000000E+01 0. -1.
        -11    1    4    4    0    0  0.42735193952E+02  0.36990034375E+01 -0.60220591974E+01  0.43315639502E+02  0.00000000000E+00 0. -1.
         11    1    4    4    0    0 -0.25374256454E+02 -0.98180175609E+01 -0.71937500597E+02  0.76910664745E+02  0.00000000000E+00 0.  1.
</event>
<event>
 8    1  0.6689467E-009  0.9898526E+02  0.7561462E-02  0.1282444E+00
         -3   -1    0    0    0  501 -0.00000000000E+00  0.00000000000E+00  0.21476954869E+03  0.21476954869E+03  0.00000000000E+00 0.  1.
          3   -1    0    0  501    0  0.00000000000E+00 -0.00000000000E+00 -0.69380437745E+02  0.69380437745E+02  0.00000000000E+00 0. -1.
         25    2    1    2    0    0  0.22342667497E+02 -0.39366792930E+02  0.44356998630E+02  0.14022243355E+03  0.12508336566E+03 0.  0.
         23    2    1    2    0    0 -0.22342667497E+02  0.39366792930E+02  0.10103211231E+03  0.14392755289E+03  0.91971264996E+02 0.  0.
          5    1    3    3  502    0 -0.37803594148E+02  0.13170548506E+02  0.44834407465E+02  0.60250905148E+02  0.41800000000E+01 0.  1.
         -5    1    3    3    0  502  0.60146261646E+02 -0.52537341436E+02 -0.47740883473E+00  0.79971528398E+02  0.41800000000E+01 0.  1.
        -11    1    4    4    0    0 -0.39784293590E+02  0.61824499793E+01  0.46722063395E+01  0.40531990037E+02  0.00000000000E+00 0. -1.
         11    1    4    4    0    0  0.17441626093E+02  0.33184342951E+02  0.96359905973E+02  0.10339556285E+03  0.00000000000E+00 0.  1.
</event>
<event>
 8    1  0.6689467E-009  0.1208295E+03  0.7561462E-02  0.1241735E+00
          1   -1    0    0  501    0  0.00000000000E+00  0.00000000000E+00  0.13694144102E+03  0.13694144102E+03  0.00000000000E+00 0. -1.
         -1   -1    0    0    0  501 -0.00000000000E+00 -0.00000000000E+00 -0.13767623945E+03  0.13767623945E+03  0.00000000000E+00 0.  1.
         25    2    1    2    0    0 -0.15733996429E+02  0.76829411972E+02 -0.30610865339E+02  0.15078064372E+03  0.12508980876E+03 0.  0.
         23    2    1    2    0    0  0.15733996429E+02 -0.76829411972E+02  0.29876066901E+02  0.12383703675E+03  0.91064345991E+02 0.  0.
          5    1    3    3  502    0 -0.96906895039E+01  0.10948844859E+03 -0.38228031399E+02  0.11644949387E+03  0.41800000000E+01 0.  1.
         -5    1    3    3    0  502 -0.60433069255E+01 -0.32659036616E+02  0.76171660599E+01  0.34331149850E+02  0.41800000000E+01 0.  1.
        -11    1    4    4    0    0 -0.20488532649E+02 -0.46971297742E+02 -0.20305740775E+02  0.55121737002E+02  0.00000000000E+00 0.  1.
         11    1    4    4    0    0  0.36222529079E+02 -0.29858114230E+02  0.50181807676E+02  0.68715299751E+02  0.00000000000E+00 0. -1.
</event>
<event>
 7    1  0.6689467E-009  0.9399083E+02  0.7561462E-02  0.1293465E+00
          1   -1    0    0  501    0  0.00000000000E+00  0.00000000000E+00  0.52602098591E+02  0.52602098591E+02  0.00000000000E+00 0. -1.
         -1   -1    0    0    0  501 -0.00000000000E+00 -0.00000000000E+00 -0.25390312775E+03  0.25390312775E+03  0.00000000000E+00 0.  1.
         23    2    1    2    0    0 -0.26538209095E+02 -0.17582634903E+02 -0.12932109708E+03  0.15862753710E+03  0.86170318466E+02 0.  0.
          5    1    1    2  502    0 -0.33948319773E+02 -0.24241336102E+02  0.39280274887E+01  0.42107393548E+02  0.41800000000E+01 0.  1.
         -5    1    1    2    0  502  0.60486528868E+02  0.41823971006E+02 -0.75907959572E+02  0.10577029570E+03  0.41800000000E+01 0.  1.
        -11    1    3    3    0    0 -0.14871349599E+01 -0.39250831348E+02 -0.11678335145E+03  0.12321197389E+03  0.00000000000E+00 0.  1.
         11    1    3    3    0    0 -0.25051074135E+02  0.21668196445E+02 -0.12537745626E+02  0.35415563215E+02  0.00000000000E+00 0. -1.
</event>
<event>
 8    1  0.6689467E-009  0.8599635E+02  0.7561462E-02  0.1312847E+00
          2   -1    0    0  501    0  0.00000000000E+00  0.00000000000E+00  0.17814903288E+03  0.17814903288E+03  0.00000000000E+00 0. -1.
         -2   -1    0    0    0  501 -0.00000000000E+00 -0.00000000000E+00 -0.70893936436E+02  0.70893936436E+02  0.00000000000E+00 0.  1.
         25    2    1    2    0    0 -0.76075760229E+01 -0.10366114698E+02  0.30845683051E+02  0.12947391563E+03  0.12508679834E+03 0.  0.
         23    2    1    2    0    0  0.76075760229E+01  0.10366114698E+02  0.76409413393E+02  0.11956905368E+03  0.91066067209E+02 0.  0.
          5    1    3    3  502    0  0.43904161445E+02  0.89669334398E+00  0.55683281092E+02  0.71038578564E+02  0.41800000000E+01 0.  1.
         -5    1    3    3    0  502 -0.51511737468E+02 -0.11262808042E+02 -0.24837598041E+02  0.58435337069E+02  0.41800000000E+01 0.  1.
        -11    1    4    4    0    0  0.68715696240E+01 -0.31941768312E+02  0.51608914056E+00  0.32676618246E+02  0.00000000000E+00 0.  1.
         11    1    4    4    0    0  0.73600639890E+00  0.42307883010E+02  0.75893324253E+02  0.86892435438E+02  0.00000000000E+00 0. -1.
</event>
<event>
 8    1  0.6689467E-009  0.1083208E+03  0.7561462E-02  0.1263711E+00
          2   -1    0    0  501    0  0.00000000000E+00  0.00000000000E+00  0.30048672284E+03  0.30048672284E+03  0.00000000000E+00 0. -1.
         -2   -1    0    0    0  501 -0.00000000000E+00 -0.00000000000E+00 -0.73573025454E+02  0.73573025454E+02  0.00000000000E+00 0.  1.
         25    2    1    2    0    0 -0.26559247860E+02 -0.93002985651E+02  0.16751705057E+03  0.23035793553E+03  0.12509143553E+03 0.  0.
         23    2    1    2    0    0  0.26559247860E+02  0.93002985651E+02  0.59396646813E+02  0.14370181276E+03  0.88132288925E+02 0.  0.
          5    1    3    3  502    0 -0.23957604942E+02 -0.92694250405E+02  0.41811391609E+02  0.10455551521E+03  0.41800000000E+01 0. -1.
         -5    1    3    3    0  502 -0.26016429175E+01 -0.30873524662E+00  0.12570565896E+03  0.12580242032E+03  0.41800000000E+01 0. -1.
        -11    1    4    4    0    0 -0.15788874769E+02  0.60408208825E+02 -0.17910437176E+01  0.62463173931E+02  0.00000000000E+00 0.  1.
         11    1    4    4    0    0  0.42348122628E+02  0.32594776826E+02  0.61187690530E+02  0.81238638830E+02  0.00000000000E+00 0. -1.
</event>
<event>
 8    1  0.6689467E-009  0.1082402E+03  0.7561462E-02  0.1263864E+00
          3   -1    0    0  501    0  0.00000000000E+00  0.00000000000E+00  0.17089594653E+03  0.17089594653E+03  0.00000000000E+00 0. -1.
         -3   -1    0    0    0  501 -0.00000000000E+00 -0.00000000000E+00 -0.12566666640E+03  0.12566666640E+03  0.00000000000E+00 0.  1.
         25    2    1    2    0    0  0.19032670056E+02  0.10604914984E+02  0.12029245800E+03  0.17491014389E+03  0.12509426939E+03 0.  0.
         23    2    1    2    0    0 -0.19032670056E+02 -0.10604914984E+02 -0.75063177865E+02  0.12165246904E+03  0.93220897882E+02 0.  0.
          5    1    3    3  502    0 -0.34717022688E+02 -0.35515525667E+02  0.24040435251E+02  0.55335695124E+02  0.41800000000E+01 0. -1.
         -5    1    3    3    0  502  0.53749692743E+02  0.46120440652E+02  0.96252022744E+02  0.11957444877E+03  0.41800000000E+01 0. -1.
        -11    1    4    4    0    0  0.37400300917E+02  0.33775347390E+01 -0.27719607289E+02  0.46675120545E+02  0.00000000000E+00 0. -1.
         11    1    4    4    0    0 -0.56432970972E+02 -0.13982449723E+02 -0.47343570575E+02  0.74977348499E+02  0.00000000000E+00 0.  1.
</event>
<event>
 8    1  0.6689467E-009  0.1068313E+03  0.7561462E-02  0.1266553E+00
         -1   -1    0    0    0  501 -0.00000000000E+00  0.00000000000E+00  0.45446838798E+03  0.45446838798E+03  0.00000000000E+00 0.  1.
          1   -1    0    0  501    0  0.00000000000E+00 -0.00000000000E+00 -0.40040176550E+02  0.40040176550E+02  0.00000000000E+00 0. -1.
         25    2    1    2    0    0  0.46789755744E+02 -0.55064856947E+02  0.16655977043E+03  0.22048194290E+03  0.12509480527E+03 0.  0.
         23    2    1    2    0    0 -0.46789755744E+02  0.55064856947E+02  0.24786844100E+03  0.27402662163E+03  0.91817240242E+02 0.  0.
          5    1    3    3  502    0  0.45012355627E+02 -0.76299355128E+02  0.17578425696E+03  0.19688900718E+03  0.41800000000E+01 0. -1.
         -5    1    3    3    0  502  0.17774001173E+01  0.21234498181E+02 -0.92244865315E+01  0.23592935721E+02  0.41800000000E+01 0. -1.
        -11    1    4    4    0    0 -0.65636086493E+02  0.52883403818E+02  0.23832066055E+03  0.25278743539E+03  0.00000000000E+00 0.  1.
         11    1    4    4    0    0  0.18846330749E+02  0.21814531294E+01  0.95477804531E+01  0.21239186238E+02  0.00000000000E+00 0. -1.
</event>
<event>
 8    1  0.6689467E-009  0.1347115E+03  0.7561462E-02  0.1220628E+00
          3   -1    0    0  501    0  0.00000000000E+00  0.00000000000E+00  0.52982994253E+03  0.52982994253E+03  0.00000000000E+00 0. -1.
         -3   -1    0    0    0  501 -0.00000000000E+00 -0.00000000000E+00 -0.40801827318E+02  0.40801827318E+02  0.00000000000E+00 0.  1.
         25    2    1    2    0    0  0.94380029984E+02 -0.27290787535E+02  0.27092773189E+03  0.31416842573E+03  0.12509031408E+03 0.  0.
         23    2    1    2    0    0 -0.94380029984E+02  0.27290787535E+02  0.21810038332E+03  0.25646334411E+03  0.92484012262E+02 0.  0.
          5    1    3    3  502    0  0.12130655702E+03 -0.10717375920E+02  0.24272703869E+03  0.27159534354E+03  0.41800000000E+01 0.  1.
         -5    1    3    3    0  502 -0.26926527031E+02 -0.16573411615E+02  0.28200693197E+02  0.42573082192E+02  0.41800000000E+01 0.  1.
        -11    1    4    4    0    0 -0.51024337261E+02  0.45774319992E+02  0.58718103200E+02  0.90258445628E+02  0.00000000000E+00 0.  1.
         11    1    4    4    0    0 -0.43355692723E+02 -0.18483532457E+02  0.15938228012E+03  0.16620489848E+03  0.00000000000E+00 0. -1.
</event>
<event>
 8    1  0.6689467E-009  0.7362454E+02  0.7561462E-02  0.1348184E+00
         -3   -1    0    0    0  501 -0.00000000000E+00  0.00000000000E+00  0.12572908020E+03  0.12572908020E+03  0.00000000000E+00 0.  1.
          3   -1    0    0  501    0  0.00000000000E+00 -0.00000000000E+00 -0.12945001285E+03  0.12945001285E+03  0.00000000000E+00 0. -1.
         25    2    1    2    0    0 -0.29844669329E+02  0.81126686473E+01  0.57691990755E+02  0.14118236757E+03  0.12509026915E+03 0.  0.
         23    2    1    2    0    0  0.29844669329E+02 -0.81126686473E+01 -0.61412923402E+02  0.11399672548E+03  0.90924070411E+02 0.  0.
          5    1    3    3  502    0  0.13721163876E+01  0.36022152385E+02 -0.27919674171E+02  0.45787102678E+02  0.41800000000E+01 0. -1.
         -5    1    3    3    0  502 -0.31216785716E+02 -0.27909483738E+02  0.85611664926E+02  0.95395264895E+02  0.41800000000E+01 0. -1.
        -11    1    4    4    0    0 -0.61302617636E+01  0.21453155458E+02  0.13289331870E+02  0.25969680975E+02  0.00000000000E+00 0.  1.
         11    1    4    4    0    0  0.35974931092E+02 -0.29565824105E+02 -0.74702255272E+02  0.88027044508E+02  0.00000000000E+00 0. -1.
</event>
<event>
 8    1  0.6689467E-009  0.9155217E+02  0.7561462E-02  0.1299136E+00
         -2   -1    0    0    0  501 -0.00000000000E+00  0.00000000000E+00  0.10182924749E+02  0.10182924749E+02  0.00000000000E+00 0.  1.
          2   -1    0    0  501    0  0.00000000000E+00 -0.00000000000E+00 -0.18444360097E+04  0.18444360097E+04  0.00000000000E+00 0. -1.
         25    2    1    2    0    0 -0.45742757624E+01 -0.31371221422E+02 -0.12133407051E+04  0.12201829406E+04  0.12508262963E+03 0.  0.
         23    2    1    2    0    0  0.45742757624E+01  0.31371221422E+02 -0.62091237978E+03  0.63443599383E+03  0.12637946575E+03 0.  0.
          5    1    3    3  502    0  0.12349389297E+02  0.61612426278E+01 -0.10897976969E+04  0.10898930961E+04  0.41800000000E+01 0.  1.
         -5    1    3    3    0  502 -0.16923665059E+02 -0.37532464050E+02 -0.12354300821E+03  0.13028984448E+03  0.41800000000E+01 0.  1.
        -11    1    4    4    0    0  0.29390443648E+01 -0.47911426593E+02 -0.17196057940E+03  0.17853454469E+03  0.00000000000E+00 0. -1.
         11    1    4    4    0    0  0.16352313975E+01  0.79282648015E+02 -0.44895180038E+03  0.45590144914E+03  0.00000000000E+00 0.  1.
</event>
<event>
 8    1  0.6689467E-009  0.1655910E+03  0.7561462E-02  0.1182525E+00
         -1   -1    0    0    0  501 -0.00000000000E+00  0.00000000000E+00  0.31834068916E+03  0.31834068916E+03  0.00000000000E+00 0.  1.
          1   -1    0    0  501    0  0.00000000000E+00 -0.00000000000E+00 -0.97411536409E+02  0.97411536409E+02  0.00000000000E+00 0. -1.
         25    2    1    2    0    0 -0.12633173902E+03  0.48763024044E+01  0.18340805595E+03  0.25547999666E+03  0.12509207448E+03 0.  0.
         23    2    1    2    0    0  0.12633173902E+03 -0.48763024044E+01  0.37521096801E+02  0.16027222891E+03  0.91081655916E+02 0.  0.
          5    1    3    3  502    0  0.22963361995E+02  0.15663285672E+02  0.29243258508E+02  0.40562237121E+02  0.41800000000E+01 0.  1.
         -5    1    3    3    0  502 -0.14929510102E+03 -0.10786983267E+02  0.15416479744E+03  0.21491775954E+03  0.41800000000E+01 0.  1.
        -11    1    4    4    0    0  0.60664054422E+02 -0.45749399703E+02  0.32861977927E+02  0.82783118240E+02  0.00000000000E+00 0. -1.
         11    1    4    4    0    0  0.65667684599E+02  0.40873097299E+02  0.46591188738E+01  0.77489110668E+02  0.00000000000E+00 0.  1.
</event>
<event>
 8    1  0.6689467E-009  0.1219874E+03  0.7561462E-02  0.1239854E+00
          2   -1    0    0  501    0  0.00000000000E+00  0.00000000000E+00  0.11208573041E+03  0.11208573041E+03  0.00000000000E+00 0. -1.
         -2   -1    0    0    0  501 -0.00000000000E+00 -0.00000000000E+00 -0.31647261835E+03  0.31647261835E+03  0.00000000000E+00 0.  1.
         25    2    1    2    0    0  0.19991633113E+02 -0.11130754218E+03 -0.22166104993E+03  0.27852704362E+03  0.12511857828E+03 0.  0.
         23    2    1    2    0    0 -0.19991633113E+02  0.11130754218E+03  0.17274161991E+02  0.15003130514E+03  0.97066788916E+02 0.  0.
          5    1    3    3  502    0 -0.67599274149E+01 -0.75912259871E+02 -0.22115961535E+03  0.23396028654E+03  0.41800000000E+01 0. -1.
         -5    1    3    3    0  502  0.26751560528E+02 -0.35395282306E+02 -0.50143458537E+00  0.44566757082E+02  0.41800000000E+01 0. -1.
        -11    1    4    4    0    0 -0.25905065488E+02  0.23191422562E+02 -0.33398833431E+02  0.48211996152E+02  0.00000000000E+00 0.  1.
         11    1    4    4    0    0  0.59134323745E+01  0.88116119615E+02  0.50672995422E+02  0.10181930899E+03  0.00000000000E+00 0. -1.
</event>
<event>
 8    1  0.6689467E-009  0.1129734E+03  0.7561462E-02  0.1255161E+00
         -1   -1    0    0    0  501 -0.00000000000E+00  0.00000000000E+00  0.68046942811E+03  0.68046942811E+03  0.00000000000E+00 0.  1.
          1   -1    0    0  501    0  0.00000000000E+00 -0.00000000000E+00 -0.21503030006E+02  0.21503030006E+02  0.00000000000E+00 0. -1.
         25    2    1    2    0    0  0.29332161948E+02  0.47035951757E+02  0.35473711368E+03  0.38019675349E+03  0.12505356876E+03 0.  0.
         23    2    1    2    0    0 -0.29332161948E+02 -0.47035951757E+02  0.30422928442E+03  0.32177570462E+03  0.88945995440E+02 0.  0.
          5    1    3    3  502    0  0.59635147140E+02 -0.86926711544E+01  0.25394112141E+03  0.26102773578E+03  0.41800000000E+01 0. -1.
         -5    1    3    3    0  502 -0.30302985192E+02  0.55728622911E+02  0.10079599228E+03  0.11916901771E+03  0.41800000000E+01 0. -1.
        -11    1    4    4    0    0 -0.50507532555E+02 -0.58981598667E+02  0.19540714094E+03  0.21027075535E+03  0.00000000000E+00 0. -1.
         11    1    4    4    0    0  0.21175370606E+02  0.11945646910E+02  0.10882214347E+03  0.11150494927E+03  0.00000000000E+00 0.  1.
</event>
<event>
 8    1  0.6689467E-009  0.3932358E+03  0.7561462E-02  0.1046147E+00
         -2   -1    0    0    0  501 -0.00000000000E+00  0.00000000000E+00  0.65184580159E+02  0.65184580159E+02  0.00000000000E+00 0.  1.
          2   -1    0    0  501    0  0.00000000000E+00 -0.00000000000E+00 -0.28010563001E+04  0.28010563001E+04  0.00000000000E+00 0. -1.
         25    2    1    2    0    0  0.35584571850E+03  0.14043349008E+03 -0.85920838763E+03  0.94880672684E+03  0.12508961189E+03 0.  0.
         23    2    1    2    0    0 -0.35584571850E+03 -0.14043349008E+03 -0.18766633323E+04  0.19174341534E+04  0.91327593676E+02 0.  0.
          5    1    3    3  502    0  0.27857616340E+03  0.15535483287E+03 -0.62508230354E+03  0.70177287032E+03  0.41800000000E+01 0. -1.
         -5    1    3    3    0  502  0.77269555103E+02 -0.14921342789E+02 -0.23412608409E+03  0.24703385652E+03  0.41800000000E+01 0. -1.
        -11    1    4    4    0    0 -0.18778637489E+03 -0.11073993907E+03 -0.11956403590E+04  0.12153530042E+04  0.00000000000E+00 0.  1.
         11    1    4    4    0    0 -0.16805934361E+03 -0.29693551010E+02 -0.68102297329E+03  0.70208114923E+03  0.00000000000E+00 0. -1.
</event>
<event>
 8    1  0.6689467E-009  0.1257547E+03  0.7561462E-02  0.1233894E+00
         -2   -1    0    0    0  501 -0.00000000000E+00  0.00000000000E+00  0.12504562134E+03  0.12504562134E+03  0.00000000000E+00 0. -1.
          2   -1    0    0  501    0  0.00000000000E+00 -0.00000000000E+00 -0.15163022746E+03  0.15163022746E+03  0.00000000000E+00 0.  1.
         25    2    1    2    0    0  0.45278629576E+02 -0.68392002720E+02 -0.17903230661E+02  0.15065740911E+03  0.12509799726E+03 0.  0.
         23    2    1    2    0    0 -0.45278629576E+02  0.68392002720E+02 -0.86813754566E+01  0.12601843969E+03  0.95276757555E+02 0.  0.
          5    1    3    3  502    0 -0.42815027446E+02 -0.12337500172E+02 -0.74511329028E+00  0.44758999983E+02  0.41800000000E+01 0.  1.
         -5    1    3    3    0  502  0.88093657022E+02 -0.56054502548E+02 -0.17158117370E+02  0.10589840912E+03  0.41800000000E+01 0.  1.
        -11    1    4    4    0    0  0.47210538903E+01  0.48044885222E+02  0.32436189413E+02  0.58161032741E+02  0.00000000000E+00 0. -1.
         11    1    4    4    0    0 -0.49999683466E+02  0.20347117498E+02 -0.41117564870E+02  0.67857406950E+02  0.00000000000E+00 0.  1.
</event>
<event>
 8    1  0.6689467E-009  0.1073082E+03  0.7561462E-02  0.1265637E+00
          2   -1    0    0  501    0  0.00000000000E+00  0.00000000000E+00  0.25556808532E+03  0.25556808532E+03  0.00000000000E+00 0. -1.
         -2   -1    0    0    0  501 -0.00000000000E+00 -0.00000000000E+00 -0.88608569392E+02  0.88608569392E+02  0.00000000000E+00 0.  1.
         25    2    1    2    0    0 -0.73576682716E+01 -0.93601902314E+02  0.10199942641E+03  0.18672742397E+03  0.12509115267E+03 0.  0.
         23    2    1    2    0    0  0.73576682716E+01  0.93601902314E+02  0.64960089518E+02  0.15744923074E+03  0.10842045762E+03 0.  0.
          5    1    3    3  502    0  0.22628604247E+02 -0.73548184201E+02 -0.14617918281E+01  0.77077872083E+02  0.41800000000E+01 0. -1.
         -5    1    3    3    0  502 -0.29986272519E+02 -0.20053718112E+02  0.10346121824E+03  0.10964955189E+03  0.41800000000E+01 0. -1.
        -11    1    4    4    0    0  0.22855313891E+02  0.50413281398E+02 -0.21649739864E+02  0.59435473839E+02  0.00000000000E+00 0.  1.
         11    1    4    4    0    0 -0.15497645619E+02  0.43188620916E+02  0.86609829382E+02  0.98013756902E+02  0.00000000000E+00 0. -1.
</event>
<event>
 8    1  0.6689467E-009  0.7036645E+02  0.7561462E-02  0.1358851E+00
          2   -1    0    0  501    0  0.00000000000E+00  0.00000000000E+00  0.17755834373E+02  0.17755834373E+02  0.00000000000E+00 0.  1.
         -2   -1    0    0    0  501 -0.00000000000E+00 -0.00000000000E+00 -0.67408438231E+03  0.67408438231E+03  0.00000000000E+00 0. -1.
         25    2    1    2    0    0  0.13837417563E+02  0.14394822488E+01 -0.38558689205E+03  0.40560970009E+03  0.12509368989E+03 0.  0.
         23    2    1    2    0    0 -0.13837417563E+02 -0.14394822488E+01 -0.27074165589E+03  0.28623051660E+03  0.91833099502E+02 0.  0.
          5    1    3    3  502    0  0.69983208012E+01  0.26327724213E+02 -0.37712021974E+03  0.37812598177E+03  0.41800000000E+01 0.  1.
         -5    1    3    3    0  502  0.68390967613E+01 -0.24888241964E+02 -0.84666723174E+01  0.27483718320E+02  0.41800000000E+01 0.  1.
        -11    1    4    4    0    0 -0.18793353460E+02 -0.42078663436E+02 -0.92460199117E+02  0.10330872408E+03  0.00000000000E+00 0.  1.
         11    1    4    4    0    0  0.49559358972E+01  0.40639181187E+02 -0.17828145677E+03  0.18292179251E+03  0.00000000000E+00 0. -1.
</event>
<event>
 8    1  0.6689467E-009  0.1055419E+03  0.7561462E-02  0.1269056E+00
         -2   -1    0    0    0  501 -0.00000000000E+00  0.00000000000E+00  0.15140791585E+02  0.15140791585E+02  0.00000000000E+00 0.  1.
          2   -1    0    0  501    0  0.00000000000E+00 -0.00000000000E+00 -0.83849555700E+03  0.83849555700E+03  0.00000000000E+00 0. -1.
         25    2    1    2    0    0 -0.45997347348E+01  0.48002668823E+01 -0.58575993420E+03  0.59900600806E+03  0.12509715046E+03 0.  0.
         23    2    1    2    0    0  0.45997347348E+01 -0.48002668823E+01 -0.23759483121E+03  0.25463034052E+03  0.91329657695E+02 0.  0.
          5    1    3    3  502    0 -0.47539205889E+02 -0.37617957510E+02 -0.36859829628E+03  0.37357363831E+03  0.41800000000E+01 0.  1.
         -5    1    3    3    0  502  0.42939471154E+02  0.42418224392E+02 -0.21716163792E+03  0.22543236974E+03  0.41800000000E+01 0.  1.
        -11    1    4    4    0    0  0.29679690671E+01  0.42441261470E+02 -0.88000192861E+02  0.97745094296E+02  0.00000000000E+00 0. -1.
         11    1    4    4    0    0  0.16317656677E+01 -0.47241528352E+02 -0.14959463835E+03  0.15688524623E+03  0.00000000000E+00 0.  1.
</event>
<event>
 8    1  0.6689467E-009  0.9191636E+02  0.7561462E-02  0.1298276E+00
         -1   -1    0    0    0  501 -0.00000000000E+00  0.00000000000E+00  0.63057476613E+03  0.63057476613E+03  0.00000000000E+00 0.  1.
          1   -1    0    0  501    0  0.00000000000E+00 -0.00000000000E+00 -0.25434237874E+02  0.25434237874E+02  0.00000000000E+00 0. -1.
         25    2    1    2    0    0 -0.40018715385E+01 -0.53364428758E+02  0.30315486117E+03  0.33228660818E+03  0.12509093850E+03 0.  0.
         23    2    1    2    0    0  0.40018715385E+01  0.53364428758E+02  0.30198566709E+03  0.32372239583E+03  0.10361983015E+03 0.  0.
          5    1    3    3  502    0 -0.10808820827E+02 -0.68515493950E+02  0.70455790771E+02  0.98958043493E+02  0.41800000000E+01 0. -1.
         -5    1    3    3    0  502  0.68069492884E+01  0.15151065192E+02  0.23269907040E+03  0.23332856469E+03  0.41800000000E+01 0. -1.
        -11    1    4    4    0    0  0.42401377524E+02  0.22833712989E+02  0.23942790731E+03  0.24422321360E+03  0.00000000000E+00 0.  1.
         11    1    4    4    0    0 -0.38399505985E+02  0.30530715769E+02  0.62557759782E+02  0.79499182223E+02  0.00000000000E+00 0. -1.
</event>
<event>
 8    1  0.6689467E-009  0.9068391E+02  0.7561462E-02  0.1301204E+00
          2   -1    0    0  501    0  0.00000000000E+00  0.00000000000E+00  0.57164513802E+03  0.57164513802E+03  0.00000000000E+00 0. -1.
         -2   -1    0    0    0  501 -0.00000000000E+00 -0.00000000000E+00 -0.30513518257E+02  0.30513518257E+02  0.00000000000E+00 0.  1.
         25    2    1    2    0    0  0.64709891219E+02 -0.24436146537E+02  0.36620312720E+03  0.39310495650E+03  0.12506910559E+03 0.  0.
         23    2    1    2    0    0 -0.64709891219E+02  0.24436146537E+02  0.17492849256E+03  0.20905369978E+03  0.91208423960E+02 0.  0.
          5    1    3    3  502    0  0.39471454100E+02 -0.39435917456E+02  0.35798591093E+03  0.36233212954E+03  0.41800000000E+01 0. -1.
         -5    1    3    3    0  502  0.25238437119E+02  0.14999770919E+02  0.82172162757E+01  0.30772826961E+02  0.41800000000E+01 0. -1.
        -11    1    4    4    0    0 -0.56576995888E+02  0.45869752976E+02  0.67827476692E+02  0.99526666257E+02  0.00000000000E+00 0.  1.
         11    1    4    4    0    0 -0.81328953316E+01 -0.21433606439E+02  0.10710101587E+03  0.10952703352E+03  0.00000000000E+00 0. -1.
</event>
<event>
 8    1  0.6689467E-009  0.2067641E+03  0.7561462E-02  0.1144154E+00
         -2   -1    0    0    0  501 -0.00000000000E+00  0.00000000000E+00  0.47610796067E+02  0.47610796067E+02  0.00000000000E+00 0.  1.
          2   -1    0    0  501    0  0.00000000000E+00 -0.00000000000E+00 -0.98291964178E+03  0.98291964178E+03  0.00000000000E+00 0. -1.
         25    2    1    2    0    0  0.15125645565E+03 -0.10774720536E+03 -0.53577078292E+03  0.58067749811E+03  0.12509216338E+03 0.  0.
         23    2    1    2    0    0 -0.15125645565E+03  0.10774720536E+03 -0.39953806280E+03  0.44985293974E+03  0.90824160497E+02 0.  0.
          5    1    3    3  502    0  0.29203847818E+01 -0.48014298109E+02 -0.23607261887E+03  0.24095986232E+03  0.41800000000E+01 0. -1.
         -5    1    3    3    0  502  0.14833607087E+03 -0.59732907253E+02 -0.29969816405E+03  0.33971763579E+03  0.41800000000E+01 0. -1.
        -11    1    4    4    0    0 -0.22028042741E+02  0.65835740846E+02 -0.11083110846E+03  0.13077887460E+03  0.00000000000E+00 0.  1.
         11    1    4    4    0    0 -0.12922841291E+03  0.41911464516E+02 -0.28870695434E+03  0.31907406514E+03  0.00000000000E+00 0. -1.
</event>
<event>
 8    1  0.6689467E-009  0.1326080E+03  0.7561462E-02  0.1223636E+00
          1   -1    0    0  501    0  0.00000000000E+00  0.00000000000E+00  0.35796916024E+03  0.35796916024E+03  0.00000000000E+00 0. -1.
         -1   -1    0    0    0  501 -0.00000000000E+00 -0.00000000000E+00 -0.71905328023E+02  0.71905328023E+02  0.00000000000E+00 0.  1.
         25    2    1    2    0    0 -0.10398256562E+03 -0.10828548664E+02  0.79747109986E+02  0.18150390777E+03  0.12511768686E+03 0.  0.
         23    2    1    2    0    0  0.10398256562E+03  0.10828548664E+02  0.20631672223E+03  0.24837058049E+03  0.90508143085E+02 0.  0.
          5    1    3    3  502    0 -0.23785650716E+02  0.45861989411E+02 -0.45203026725E+01  0.52028691978E+02  0.41800000000E+01 0.  1.
         -5    1    3    3    0  502 -0.80196914904E+02 -0.56690538074E+02  0.84267412659E+02  0.12947521579E+03  0.41800000000E+01 0.  1.
        -11    1    4    4    0    0  0.86378891397E+02 -0.10961822315E+02  0.20207854716E+03  0.22003911845E+03  0.00000000000E+00 0. -1.
         11    1    4    4    0    0  0.17603674222E+02  0.21790370979E+02  0.42381750708E+01  0.28331462042E+02  0.00000000000E+00 0.  1.
</event>
<event>
 8    1  0.6689467E-009  0.1386943E+03  0.7561462E-02  0.1215097E+00
         -1   -1    0    0    0  501 -0.00000000000E+00  0.00000000000E+00  0.45874244781E+02  0.45874244781E+02  0.00000000000E+00 0.  1.
          1   -1    0    0  501    0  0.00000000000E+00 -0.00000000000E+00 -0.54925185873E+03  0.54925185873E+03  0.00000000000E+00 0. -1.
         25    2    1    2    0    0  0.99133604569E+02 -0.58786909836E+02 -0.27971818688E+03  0.32737302767E+03  0.12508981914E+03 0.  0.
         23    2    1    2    0    0 -0.99133604569E+02  0.58786909836E+02 -0.22365942706E+03  0.26775307583E+03  0.91568542532E+02 0.  0.
          5    1    3    3  502    0  0.82574541445E+02  0.14630771688E+02 -0.89282956427E+02  0.12256236406E+03  0.41800000000E+01 0.  1.
         -5    1    3    3    0  502  0.16559063125E+02 -0.73417681524E+02 -0.19043523046E+03  0.20481066362E+03  0.41800000000E+01 0.  1.
        -11    1    4    4    0    0 -0.10265955280E+02 -0.18913863055E+01  0.74469136321E+01  0.12822780611E+02  0.00000000000E+00 0.  1.
         11    1    4    4    0    0 -0.88867649289E+02  0.60678296142E+02 -0.23110634069E+03  0.25493029522E+03  0.00000000000E+00 0. -1.
</event>
<event>
 8    1  0.6689467E-009  0.9509344E+02  0.7561462E-02  0.1290966E+00
         -1   -1    0    0    0  501 -0.00000000000E+00  0.00000000000E+00  0.91734975410E+02  0.91734975410E+02  0.00000000000E+00 0.  1.
          1   -1    0    0  501    0  0.00000000000E+00 -0.00000000000E+00 -0.13068284599E+03  0.13068284599E+03  0.00000000000E+00 0. -1.
         25    2    1    2    0    0  0.36278913813E+01 -0.79997306370E+01 -0.53410211463E+01  0.12550992112E+03  0.12508819491E+03 0.  0.
         23    2    1    2    0    0 -0.36278913813E+01  0.79997306370E+01 -0.33606849434E+02  0.96907900280E+02  0.90468577538E+02 0.  0.
          5    1    3    3  502    0  0.30758026918E+02  0.44651685719E+02  0.23806983212E+02  0.59363912498E+02  0.41800000000E+01 0.  1.
         -5    1    3    3    0  502 -0.27130135537E+02 -0.52651416356E+02 -0.29148004358E+02  0.66146008622E+02  0.41800000000E+01 0.  1.
        -11    1    4    4    0    0  0.13906409816E+02  0.38672818421E+02 -0.43873436347E+02  0.60115335277E+02  0.00000000000E+00 0. -1.
         11    1    4    4    0    0 -0.17534301197E+02 -0.30673087784E+02  0.10266586913E+02  0.36792565003E+02  0.00000000000E+00 0.  1.
</event>
<event>
 7    1  0.6689467E-009  0.1352936E+03  0.7561462E-02  0.1219806E+00
         -2   -1    0    0    0  501 -0.00000000000E+00  0.00000000000E+00  0.84169792461E+02  0.84169792461E+02  0.00000000000E+00 0.  1.
          2   -1    0    0  501    0  0.00000000000E+00 -0.00000000000E+00 -0.34304686704E+03  0.34304686704E+03  0.00000000000E+00 0. -1.
         25    2    1    2    0    0  0.67905361192E+02  0.88021062708E+02 -0.26114387494E+03  0.31016498969E+03  0.12508937546E+03 0.  0.
          5    1    3    3  502    0  0.19810029755E+01  0.89830511411E+02 -0.92441140183E+02  0.12898171169E+03  0.41800000000E+01 0.  1.
         -5    1    3    3    0  502  0.65924358217E+02 -0.18094487036E+01 -0.16870273476E+03  0.18118327799E+03  0.41800000000E+01 0.  1.
        -11    1    1    2    0    0 -0.57360807584E+02 -0.53417627794E+02  0.12697267124E+02  0.79403562881E+02  0.00000000000E+00 0.  1.
         11    1    1    2    0    0 -0.10544553609E+02 -0.34603434913E+02 -0.10430466766E+02  0.37648106932E+02  0.00000000000E+00 0. -1.
</event>
<event>
 8    1  0.6689467E-009  0.8629120E+02  0.7561462E-02  0.1312090E+00
         -2   -1    0    0    0  501 -0.00000000000E+00  0.00000000000E+00  0.12876229005E+02  0.12876229005E+02  0.00000000000E+00 0.  1.
          2   -1    0    0  501    0  0.00000000000E+00 -0.00000000000E+00 -0.12808978208E+04  0.12808978208E+04  0.00000000000E+00 0. -1.
         25    2    1    2    0    0 -0.34844883181E+02 -0.52279387141E+02 -0.84744783795E+03  0.85893134623E+03  0.12509164350E+03 0.  0.
         23    2    1    2    0    0  0.34844883181E+02  0.52279387141E+02 -0.42057375386E+03  0.43484270360E+03  0.90876808000E+02 0.  0.
          5    1    3    3  502    0 -0.56576492653E+01 -0.14456100756E+02 -0.77183163982E+01  0.17833470001E+02  0.41800000000E+01 0. -1.
         -5    1    3    3    0  502 -0.29187233916E+02 -0.37823286385E+02 -0.83972952156E+03  0.84109787622E+03  0.41800000000E+01 0. -1.
        -11    1    4    4    0    0  0.59253530670E+02  0.58597565543E+02 -0.35341254525E+03  0.36310478202E+03  0.00000000000E+00 0.  1.
         11    1    4    4    0    0 -0.24408647489E+02 -0.63181784022E+01 -0.67161208613E+02  0.71737921582E+02  0.00000000000E+00 0. -1.
</event>
<event>
 8    1  0.6689467E-009  0.6973515E+02  0.7561462E-02  0.1360996E+00
         -2   -1    0    0    0  501 -0.00000000000E+00  0.00000000000E+00  0.57576810310E+02  0.57576810310E+02  0.00000000000E+00 0.  1.
          2   -1    0    0  501    0  0.00000000000E+00 -0.00000000000E+00 -0.26266912601E+03  0.26266912601E+03  0.00000000000E+00 0. -1.
         25    2    1    2    0    0  0.18914035704E+01 -0.61032589402E+02 -0.10748675914E+03  0.17585569840E+03  0.12507305422E+03 0.  0.
         23    2    1    2    0    0 -0.18914035704E+01  0.61032589402E+02 -0.97605556555E+02  0.14439023792E+03  0.87138635281E+02 0.  0.
          5    1    3    3  502    0 -0.13166996482E+02 -0.47903297689E+02  0.14698738991E+02  0.51977120483E+02  0.41800000000E+01 0.  1.
         -5    1    3    3    0  502  0.15058400052E+02 -0.13129291714E+02 -0.12218549813E+03  0.12387857792E+03  0.41800000000E+01 0.  1.
        -11    1    4    4    0    0  0.15135189411E+02  0.34554590183E+02  0.40794682716E+01  0.37943849602E+02  0.00000000000E+00 0.  1.
         11    1    4    4    0    0 -0.17026592982E+02  0.26477999219E+02 -0.10168502483E+03  0.10644638831E+03  0.00000000000E+00 0. -1.
</event>
<event>
 8    1  0.6689467E-009  0.8752675E+02  0.7561462E-02  0.1308954E+00
          1   -1    0    0  501    0  0.00000000000E+00  0.00000000000E+00  0.39165452069E+03  0.39165452069E+03  0.00000000000E+00 0. -1.
         -1   -1    0    0    0  501 -0.00000000000E+00 -0.00000000000E+00 -0.43451977718E+02  0.43451977718E+02  0.00000000000E+00 0.  1.
         25    2    1    2    0    0 -0.39848125326E+01 -0.41058782445E+02  0.29145484248E+03  0.31983526449E+03  0.12508784458E+03 0.  0.
         23    2    1    2    0    0  0.39848125326E+01  0.41058782445E+02  0.56747700500E+02  0.11527123392E+03  0.91462853174E+02 0.  0.
          5    1    3    3  502    0  0.48758584996E+02 -0.56794081658E+02  0.14319395347E+03  0.16163213799E+03  0.41800000000E+01 0. -1.
         -5    1    3    3    0  502 -0.52743397529E+02  0.15735299213E+02  0.14826088901E+03  0.15820312650E+03  0.41800000000E+01 0. -1.
        -11    1    4    4    0    0  0.10743056138E+02  0.30614196310E+02  0.81416584620E+02  0.87643040352E+02  0.00000000000E+00 0. -1.
         11    1    4    4    0    0 -0.67582436052E+01  0.10444586135E+02 -0.24668884120E+02  0.27628193569E+02  0.00000000000E+00 0.  1.
</event>
<event>
 8    1  0.6689467E-009  0.1011312E+03  0.7561462E-02  0.1277935E+00
         -2   -1    0    0    0  501 -0.00000000000E+00  0.00000000000E+00  0.32727465562E+02  0.32727465562E+02  0.00000000000E+00 0.  1.
          2   -1    0    0  501    0  0.00000000000E+00 -0.00000000000E+00 -0.42944500501E+03  0.42944500501E+03  0.00000000000E+00 0. -1.
         25    2    1    2    0    0 -0.26062699707E+02 -0.13314595263E+02 -0.31084966238E+03  0.33635046571E+03  0.12509028907E+03 0.  0.
         23    2    1    2    0    0  0.26062699707E+02  0.13314595263E+02 -0.85867877067E+02  0.12582200486E+03  0.87185674467E+02 0.  0.
          5    1    3    3  502    0  0.37885967306E+02 -0.26552466574E+02 -0.53693376916E+02  0.70998810726E+02  0.41800000000E+01 0.  1.
         -5    1    3    3    0  502 -0.63948667013E+02  0.13237871311E+02 -0.25715628547E+03  0.26535165499E+03  0.41800000000E+01 0.  1.
        -11    1    4    4    0    0  0.93534791572E+01  0.49573366836E+02 -0.59351393271E+02  0.77894763335E+02  0.00000000000E+00 0. -1.
         11    1    4    4    0    0  0.16709220550E+02 -0.36258771573E+02 -0.26516483796E+02  0.47927241526E+02  0.00000000000E+00 0.  1.
</event>
<event>
 8    1  0.6689467E-009  0.1889533E+03  0.7561462E-02  0.1159409E+00
         -2   -1    0    0    0  501 -0.00000000000E+00  0.00000000000E+00  0.38057594404E+02  0.38057594404E+02  0.00000000000E+00 0.  1.
          2   -1    0    0  501    0  0.00000000000E+00 -0.00000000000E+00 -0.10911652109E+04  0.10911652109E+04  0.00000000000E+00 0. -1.
         25    2    1    2    0    0  0.76600617953E+02 -0.15418076394E+03 -0.57615175326E+03  0.61419641835E+03  0.12508810851E+03 0.  0.
         23    2    1    2    0    0 -0.76600617953E+02  0.15418076394E+03 -0.47695586319E+03  0.51502638691E+03  0.90143891313E+02 0.  0.
          5    1    3    3  502    0  0.92829891533E+02 -0.12318090928E+03 -0.54735240931E+03  0.56868537660E+03  0.41800000000E+01 0. -1.
         -5    1    3    3    0  502 -0.16229273581E+02 -0.30999854658E+02 -0.28799343949E+02  0.45511041756E+02  0.41800000000E+01 0. -1.
        -11    1    4    4    0    0 -0.17332217950E+01  0.89245483173E+02 -0.16353426719E+03  0.18630946532E+03  0.00000000000E+00 0.  1.
         11    1    4    4    0    0 -0.74867396158E+02  0.64935280768E+02 -0.31342159600E+03  0.32871692158E+03  0.00000000000E+00 0. -1.
</event>
<event>
 8    1  0.6689467E-009  0.1464908E+03  0.7561462E-02  0.1204853E+00
         -1   -1    0    0    0  501 -0.00000000000E+00  0.00000000000E+00  0.27698583696E+03  0.27698583696E+03  0.00000000000E+00 0.  1.
          1   -1    0    0  501    0  0.00000000000E+00 -0.00000000000E+00 -0.11143062502E+03  0.11143062502E+03  0.00000000000E+00 0. -1.
         25    2    1    2    0    0  0.10245246389E+03  0.80292567643E+02  0.13712940962E+03  0.22670630784E+03  0.12509145157E+03 0.  0.
         23    2    1    2    0    0 -0.10245246389E+03 -0.80292567643E+02  0.28425802317E+02  0.16171015414E+03  0.91644661268E+02 0.  0.
          5    1    3    3  502    0  0.11944356526E+03  0.56358641521E+02  0.14485312982E+03  0.19606877205E+03  0.41800000000E+01 0.  1.
         -5    1    3    3    0  502 -0.16991101365E+02  0.23933926123E+02 -0.77237202053E+01  0.30637535786E+02  0.41800000000E+01 0.  1.
        -11    1    4    4    0    0 -0.44243256396E+02 -0.24539279691E+02 -0.32970314394E+02  0.60387777037E+02  0.00000000000E+00 0. -1.
         11    1    4    4    0    0 -0.58209207495E+02 -0.55753287952E+02  0.61396116711E+02  0.10132237710E+03  0.00000000000E+00 0.  1.
</event>
<event>
 8    1  0.6689467E-009  0.1055866E+03  0.7561462E-02  0.1268968E+00
          4   -1    0    0  501    0  0.00000000000E+00  0.00000000000E+00  0.17790869747E+03  0.17790869747E+03  0.00000000000E+00 0. -1.
         -4   -1    0    0    0  501 -0.00000000000E+00 -0.00000000000E+00 -0.79840139230E+02  0.79840139230E+02  0.00000000000E+00 0.  1.
         25    2    1    2    0    0 -0.39657565578E+02  0.12979439274E+02  0.82738053625E+02  0.15567562882E+03  0.12509247595E+03 0.  0.
         23    2    1    2    0    0  0.39657565578E+02 -0.12979439274E+02  0.15330504611E+02  0.10207320788E+03  0.91884313368E+02 0.  0.
          5    1    3    3  502    0 -0.83667127729E+02 -0.69847086540E+00  0.40619047392E+02  0.93102392746E+02  0.41800000000E+01 0.  1.
         -5    1    3    3    0  502  0.44009562151E+02  0.13677910140E+02  0.42119006233E+02  0.62573236073E+02  0.41800000000E+01 0.  1.
        -11    1    4    4    0    0 -0.14074532925E+02  0.14978071846E+02  0.33089467358E+02  0.38953150878E+02  0.00000000000E+00 0. -1.
         11    1    4    4    0    0  0.53732098503E+02 -0.27957511121E+02 -0.17758962748E+02  0.63120056998E+02  0.00000000000E+00 0.  1.
</event>
<event>
 7    1  0.6689467E-009  0.1090273E+03  0.7561462E-02  0.1262382E+00
         -2   -1    0    0    0  501 -0.00000000000E+00  0.00000000000E+00  0.47446804735E+02  0.47446804735E+02  0.00000000000E+00 0.  1.
          2   -1    0    0  501    0  0.00000000000E+00 -0.00000000000E+00 -0.54180665020E+03  0.54180665020E+03  0.00000000000E+00 0. -1.
         23    2    1    2    0    0  0.43457243816E+02 -0.57249224658E+02 -0.61624817314E+02  0.13316514641E+03  0.93644713388E+02 0.  0.
          5    1    1    2  502    0  0.19550866071E+02  0.66843789179E+02 -0.13946064917E+03  0.15593932661E+03  0.41800000000E+01 0. -1.
         -5    1    1    2    0  502 -0.63008109886E+02 -0.95945645212E+01 -0.29327437898E+03  0.30014898192E+03  0.41800000000E+01 0. -1.
        -11    1    3    3    0    0  0.13630122496E+02  0.56856582301E+01 -0.61779061344E+02  0.63519755740E+02  0.00000000000E+00 0.  1.
         11    1    3    3    0    0  0.29827121320E+02 -0.62934882888E+02  0.15424402968E+00  0.69645390670E+02  0.00000000000E+00 0. -1.
</event>
<event>
 8    1  0.6689467E-009  0.2090534E+03  0.7561462E-02  0.1142318E+00
         -2   -1    0    0    0  501 -0.00000000000E+00  0.00000000000E+00  0.96823839101E+02  0.96823839101E+02  0.00000000000E+00 0.  1.
          2   -1    0    0  501    0  0.00000000000E+00 -0.00000000000E+00 -0.60997652534E+03  0.60997652534E+03  0.00000000000E+00 0. -1.
         25    2    1    2    0    0 -0.17303325364E+03 -0.81367679565E+02 -0.11436876221E+03  0.25551660580E+03  0.12508923185E+03 0.  0.
         23    2    1    2    0    0  0.17303325364E+03  0.81367679565E+02 -0.39878392402E+03  0.45128375864E+03  0.89817629749E+02 0.  0.
          5    1    3    3  502    0 -0.10903979456E+03 -0.80002322995E+01 -0.11408562069E+03  0.15807176143E+03  0.41800000000E+01 0. -1.
         -5    1    3    3    0  502 -0.63993459081E+02 -0.73367447265E+02 -0.28314152037E+00  0.97444844361E+02  0.41800000000E+01 0. -1.
        -11    1    4    4    0    0  0.48419806135E+02  0.71358054886E+02 -0.16427201778E+03  0.18553098245E+03  0.00000000000E+00 0.  1.
         11    1    4    4    0    0  0.12461344750E+03  0.10009624678E+02 -0.23451190624E+03  0.26575277619E+03  0.00000000000E+00 0. -1.
</event>
<event>
 8    1  0.6689467E-009  0.1962856E+03  0.7561462E-02  0.1152911E+00
         -2   -1    0    0    0  501 -0.00000000000E+00  0.00000000000E+00  0.21853639070E+03  0.21853639070E+03  0.00000000000E+00 0.  1.
          2   -1    0    0  501    0  0.00000000000E+00 -0.00000000000E+00 -0.21518702529E+03  0.21518702529E+03  0.00000000000E+00 0. -1.
         25    2    1    2    0    0 -0.83373249972E+02  0.14964433320E+03 -0.74099782199E+02  0.22468189523E+03  0.12508657422E+03 0.  0.
         23    2    1    2    0    0  0.83373249972E+02 -0.14964433320E+03  0.77449147609E+02  0.20904152077E+03  0.91408214447E+02 0.  0.
          5    1    3    3  502    0 -0.23291523122E+02 -0.20577842958E+02 -0.76403568557E+01  0.32276773739E+02  0.41800000000E+01 0.  1.
         -5    1    3    3    0  502 -0.60081726849E+02  0.17022217616E+03 -0.66459425343E+02  0.19240512149E+03  0.41800000000E+01 0.  1.
        -11    1    4    4    0    0  0.84797046772E+02 -0.10054369636E+03  0.88708072713E+02  0.15864645027E+03  0.00000000000E+00 0.  1.
         11    1    4    4    0    0 -0.14237968006E+01 -0.49100636845E+02 -0.11258925104E+02  0.50395070497E+02  0.00000000000E+00 0. -1.
</event>
<event>
 8    1  0.6689467E-009  0.6492549E+02  0.7561462E-02  0.1378252E+00
          2   -1    0    0  501    0  0.00000000000E+00  0.00000000000E+00  0.36862613801E+03  0.36862613801E+03  0.00000000000E+00 0.  1.
         -2   -1    0    0    0  501 -0.00000000000E+00 -0.00000000000E+00 -0.36344531240E+02  0.36344531240E+02  0.00000000000E+00 0. -1.
         25    2    1    2    0    0  0.28951278160E+02 -0.22004876996E+02  0.15949176415E+03  0.20592714073E+03  0.12508386523E+03 0.  0.
         23    2    1    2    0    0 -0.28951278160E+02  0.22004876996E+02  0.17278984262E+03  0.19904352852E+03  0.91867325050E+02 0.  0.
          5    1    3    3  502    0  0.13786451326E+01 -0.29543429095E+02 -0.11874241989E+02  0.32143193492E+02  0.41800000000E+01 0.  1.
         -5    1    3    3    0  502  0.27572633028E+02  0.75385520989E+01  0.17136600614E+03  0.17378394724E+03  0.41800000000E+01 0.  1.
        -11    1    4    4    0    0 -0.14636285962E+02  0.43146149200E+02  0.16667465417E+03  0.17278961601E+03  0.00000000000E+00 0.  1.
         11    1    4    4    0    0 -0.14314992198E+02 -0.21141272204E+02  0.61151884501E+01  0.26253912505E+02  0.00000000000E+00 0. -1.
</event>
<event>
 8    1  0.6689467E-009  0.1141137E+03  0.7561462E-02  0.1253136E+00
          1   -1    0    0  501    0  0.00000000000E+00  0.00000000000E+00  0.23668280294E+03  0.23668280294E+03  0.00000000000E+00 0. -1.
         -1   -1    0    0    0  501 -0.00000000000E+00 -0.00000000000E+00 -0.11099881476E+03  0.11099881476E+03  0.00000000000E+00 0.  1.
         25    2    1    2    0    0 -0.56140819815E+02  0.95171591262E+01  0.18055584724E+03  0.22691523510E+03  0.12509093484E+03 0.  0.
         23    2    1    2    0    0  0.56140819815E+02 -0.95171591262E+01 -0.54871859059E+02  0.12076638260E+03  0.91275573302E+02 0.  0.
          5    1    3    3  502    0 -0.88055076202E+02  0.28054345831E+02  0.90126792542E+02  0.12915515436E+03  0.41800000000E+01 0. -1.
         -5    1    3    3    0  502  0.31914256387E+02 -0.18537186705E+02  0.90429054696E+02  0.97760080733E+02  0.41800000000E+01 0. -1.
        -11    1    4    4    0    0  0.26820146650E+02 -0.45096587565E+02 -0.53067398395E+02  0.74626880203E+02  0.00000000000E+00 0.  1.
         11    1    4    4    0    0  0.29320673165E+02  0.35579428439E+02 -0.18044606641E+01  0.46139502394E+02  0.00000000000E+00 0. -1.
</event>
<event>
 8    1  0.6689467E-009  0.9593101E+02  0.7561462E-02  0.1289093E+00
          2   -1    0    0  501    0  0.00000000000E+00  0.00000000000E+00  0.60678600582E+02  0.60678600582E+02  0.00000000000E+00 0. -1.
         -2   -1    0    0    0  501 -0.00000000000E+00 -0.00000000000E+00 -0.24428077451E+03  0.24428077451E+03  0.00000000000E+00 0.  1.
         25    2    1    2    0    0 -0.13060785687E+02  0.49930880221E+02 -0.10195855568E+03  0.16943730902E+03  0.12509907150E+03 0.  0.
         23    2    1    2    0    0  0.13060785687E+02 -0.49930880221E+02 -0.81643618248E+02  0.13552206607E+03  0.95062469293E+02 0.  0.
          5    1    3    3  502    0  0.44591752683E+02  0.57943888373E+02 -0.36781770741E+02  0.81952972282E+02  0.41800000000E+01 0.  1.
         -5    1    3    3    0  502 -0.57652538370E+02 -0.80130081514E+01 -0.65176784937E+02  0.87484336741E+02  0.41800000000E+01 0.  1.
        -11    1    4    4    0    0 -0.88290915084E+01 -0.27692220633E+02 -0.96629012305E+02  0.10090578754E+03  0.00000000000E+00 0.  1.
         11    1    4    4    0    0  0.21889877196E+02 -0.22238659588E+02  0.14985394057E+02  0.34616278525E+02  0.00000000000E+00 0. -1.
</event>
<event>
 8    1  0.6689467E-009  0.2113113E+03  0.7561462E-02  0.1140532E+00
         -1   -1    0    0    0  501 -0.00000000000E+00  0.00000000000E+00  0.15687647024E+03  0.15687647024E+03  0.00000000000E+00 0.  1.
          1   -1    0    0  501    0  0.00000000000E+00 -0.00000000000E+00 -0.10192125644E+04  0.10192125644E+04  0.00000000000E+00 0. -1.
         25    2    1    2    0    0  0.28768394949E+02 -0.18295074486E+03 -0.93368368660E+03  0.96005803226E+03  0.12509037967E+03 0.  0.
         23    2    1    2    0    0 -0.28768394949E+02  0.18295074486E+03  0.71347592487E+02  0.21603100234E+03  0.85324787864E+02 0.  0.
          5    1    3    3  502    0 -0.15065722323E+02 -0.17470859352E+03 -0.66915508855E+03  0.69176301836E+03  0.41800000000E+01 0. -1.
         -5    1    3    3    0  502  0.43834117273E+02 -0.82421513446E+01 -0.26452859805E+03  0.26829501390E+03  0.41800000000E+01 0. -1.
        -11    1    4    4    0    0 -0.48850909317E+02  0.57855038043E+02  0.14196250726E+02  0.77039926679E+02  0.00000000000E+00 0.  1.
         11    1    4    4    0    0  0.20082514367E+02  0.12509570682E+03  0.57151341761E+02  0.13899107566E+03  0.00000000000E+00 0. -1.
</event>
<event>
 8    1  0.6689467E-009  0.2259327E+03  0.7561462E-02  0.1129536E+00
         -1   -1    0    0    0  501 -0.00000000000E+00  0.00000000000E+00  0.45998059226E+03  0.45998059226E+03  0.00000000000E+00 0.  1.
          1   -1    0    0  501    0  0.00000000000E+00 -0.00000000000E+00 -0.12084370578E+03  0.12084370578E+03  0.00000000000E+00 0. -1.
         25    2    1    2    0    0  0.19368876144E+03  0.57207735574E+02  0.24059096745E+03  0.33810867982E+03  0.12508159111E+03 0.  0.
         23    2    1    2    0    0 -0.19368876144E+03 -0.57207735574E+02  0.98545919027E+02  0.24271561822E+03  0.91714294723E+02 0.  0.
          5    1    3    3  502    0  0.22068091583E+02 -0.31987962028E+02  0.70023436438E+02  0.80193418878E+02  0.41800000000E+01 0. -1.
         -5    1    3    3    0  502  0.17162066985E+03  0.89195697602E+02  0.17056753102E+03  0.25791526094E+03  0.41800000000E+01 0. -1.
        -11    1    4    4    0    0 -0.17126184804E+03 -0.15497325343E+02  0.61638071068E+02  0.18267468213E+03  0.00000000000E+00 0. -1.
         11    1    4    4    0    0 -0.22426913400E+02 -0.41710410231E+02  0.36907847959E+02  0.60040936096E+02  0.00000000000E+00 0.  1.
</event>
<event>
 8    1  0.6689467E-009  0.9714918E+02  0.7561462E-02  0.1286408E+00
         -2   -1    0    0    0  501 -0.00000000000E+00  0.00000000000E+00  0.10253107842E+03  0.10253107842E+03  0.00000000000E+00 0.  1.
          2   -1    0    0  501    0  0.00000000000E+00 -0.00000000000E+00 -0.13262705226E+03  0.13262705226E+03  0.00000000000E+00 0. -1.
         25    2    1    2    0    0 -0.14154643062E+02 -0.49940672973E+01  0.24590889179E+02  0.12836840767E+03  0.12509373138E+03 0.  0.
         23    2    1    2    0    0  0.14154643062E+02  0.49940672973E+01 -0.54686863013E+02  0.10678972301E+03  0.90488105988E+02 0.  0.
          5    1    3    3  502    0  0.45494692432E+02 -0.28104519463E+02  0.34100646535E+02  0.63560660379E+02  0.41800000000E+01 0.  1.
         -5    1    3    3    0  502 -0.59649335494E+02  0.23110452166E+02 -0.95097573556E+01  0.64807747293E+02  0.41800000000E+01 0.  1.
        -11    1    4    4    0    0  0.44625790058E+02  0.98444210810E+01 -0.20115533865E+01  0.45742978824E+02  0.00000000000E+00 0.  1.
         11    1    4    4    0    0 -0.30471146996E+02 -0.48503537838E+01 -0.52675309627E+02  0.61046744183E+02  0.00000000000E+00 0. -1.
</event>
<event>
 8    1  0.6689467E-009  0.1097689E+03  0.7561462E-02  0.1260998E+00
         -1   -1    0    0    0  501 -0.00000000000E+00  0.00000000000E+00  0.18888228775E+02  0.18888228775E+02  0.00000000000E+00 0.  1.
          1   -1    0    0  501    0  0.00000000000E+00 -0.00000000000E+00 -0.10166243161E+04  0.10166243161E+04  0.00000000000E+00 0. -1.
         25    2    1    2    0    0  0.36912466689E+01 -0.83805254531E+02 -0.47640732670E+03  0.49964790408E+03  0.12508853317E+03 0.  0.
         23    2    1    2    0    0 -0.36912466689E+01  0.83805254531E+02 -0.52132876066E+03  0.53586464083E+03  0.91270425711E+02 0.  0.
          5    1    3    3  502    0 -0.28057764701E+02 -0.37300456335E+02 -0.40917905127E+03  0.41185377333E+03  0.41800000000E+01 0. -1.
         -5    1    3    3    0  502  0.31749011370E+02 -0.46504798196E+02 -0.67228275430E+02  0.87794130758E+02  0.41800000000E+01 0. -1.
        -11    1    4    4    0    0 -0.14710679126E+02  0.97517495283E+02 -0.49097427185E+03  0.50078119132E+03  0.00000000000E+00 0. -1.
         11    1    4    4    0    0  0.11019432457E+02 -0.13712240752E+02 -0.30354488812E+02  0.35083449505E+02  0.00000000000E+00 0.  1.
</event>
<event>
 8    1  0.6689467E-009  0.1205075E+03  0.7561462E-02  0.1242262E+00
          1   -1    0    0  501    0  0.00000000000E+00  0.00000000000E+00  0.76359999860E+03  0.76359999860E+03  0.00000000000E+00 0. -1.
         -1   -1    0    0    0  501 -0.00000000000E+00 -0.00000000000E+00 -0.21115763078E+02  0.21115763078E+02  0.00000000000E+00 0.  1.
         25    2    1    2    0    0 -0.42356001480E+02  0.33226885231E+02  0.31981178771E+03  0.34759818800E+03  0.12508742535E+03 0.  0.
         23    2    1    2    0    0  0.42356001480E+02 -0.33226885231E+02  0.42267244782E+03  0.43711757368E+03  0.97579292441E+02 0.  0.
          5    1    3    3  502    0 -0.85195042172E+02  0.13914848155E+02  0.23735139333E+03  0.25259646578E+03  0.41800000000E+01 0. -1.
         -5    1    3    3    0  502  0.42839040692E+02  0.19312037077E+02  0.82460394378E+02  0.95001722219E+02  0.41800000000E+01 0. -1.
        -11    1    4    4    0    0  0.50770695117E+02 -0.60436934478E+02  0.25161215249E+03  0.26370241146E+03  0.00000000000E+00 0.  1.
         11    1    4    4    0    0 -0.84146936366E+01  0.27210049246E+02  0.17106029533E+03  0.17341516222E+03  0.00000000000E+00 0. -1.
</event>
<event>
 8    1  0.6689467E-009  0.7943261E+02  0.7561462E-02  0.1330669E+00
         -2   -1    0    0    0  501 -0.00000000000E+00  0.00000000000E+00  0.17752755090E+03  0.17752755090E+03  0.00000000000E+00 0.  1.
          2   -1    0    0  501    0  0.00000000000E+00 -0.00000000000E+00 -0.64767418517E+02  0.64767418517E+02  0.00000000000E+00 0. -1.
         25    2    1    2    0    0  0.82994273166E+01 -0.41128191122E+02  0.89236542127E+02  0.15928339223E+03  0.12509048721E+03 0.  0.
         23    2    1    2    0    0 -0.82994273166E+01  0.41128191122E+02  0.23523590260E+02  0.83011577190E+02  0.67654667615E+02 0.  0.
          5    1    3    3  502    0  0.63020235869E+01  0.21419481984E+02  0.93692040440E+02  0.96406330453E+02  0.41800000000E+01 0.  1.
         -5    1    3    3    0  502  0.19974037297E+01 -0.62547673106E+02 -0.44554983125E+01  0.62877061778E+02  0.41800000000E+01 0.  1.
        -11    1    4    4    0    0 -0.23810275152E+02 -0.53748256034E+01 -0.68382143024E+01  0.25349144520E+02  0.00000000000E+00 0.  1.
         11    1    4    4    0    0  0.15510847835E+02  0.46503016725E+02  0.30361804563E+02  0.57662432670E+02  0.00000000000E+00 0. -1.
</event>
<event>
 8    1  0.6689467E-009  0.7007593E+02  0.7561462E-02  0.1359835E+00
          1   -1    0    0  501    0  0.00000000000E+00  0.00000000000E+00  0.74810161477E+02  0.74810161477E+02  0.00000000000E+00 0. -1.
         -1   -1    0    0    0  501 -0.00000000000E+00 -0.00000000000E+00 -0.20749053674E+03  0.20749053674E+03  0.00000000000E+00 0.  1.
         25    2    1    2    0    0  0.28537892726E+02 -0.54135298308E+02 -0.83871411467E+02  0.16256747173E+03  0.12509487343E+03 0.  0.
         23    2    1    2    0    0 -0.28537892726E+02  0.54135298308E+02 -0.48808963792E+02  0.11973322648E+03  0.90601814186E+02 0.  0.
          5    1    3    3  502    0  0.22323606051E+01 -0.34091493679E+02  0.28918199691E+02  0.44954955772E+02  0.41800000000E+01 0. -1.
         -5    1    3    3    0  502  0.26305532121E+02 -0.20043804629E+02 -0.11278961116E+03  0.11761251596E+03  0.41800000000E+01 0. -1.
        -11    1    4    4    0    0 -0.76159914721E+01  0.50611414476E+02 -0.71976648913E+02  0.88318495176E+02  0.00000000000E+00 0.  1.
         11    1    4    4    0    0 -0.20921901254E+02  0.35238838322E+01  0.23167685121E+02  0.31414731309E+02  0.00000000000E+00 0. -1.
</event>
<event>
 8    1  0.6689467E-009  0.1336320E+03  0.7561462E-02  0.1222164E+00
          2   -1    0    0  501    0  0.00000000000E+00  0.00000000000E+00  0.19576005876E+03  0.19576005876E+03  0.00000000000E+00 0. -1.
         -2   -1    0    0    0  501 -0.00000000000E+00 -0.00000000000E+00 -0.19764171913E+03  0.19764171913E+03  0.00000000000E+00 0.  1.
         25    2    1    2    0    0  0.51271501795E+02  0.90012190120E+02  0.12891781018E+03  0.20736126652E+03  0.12509169358E+03 0.  0.
         23    2    1    2    0    0 -0.51271501795E+02 -0.90012190120E+02 -0.13079947055E+03  0.18604051137E+03  0.82289787390E+02 0.  0.
          5    1    3    3  502    0  0.19867213294E+02 -0.24342838729E+02  0.65613269844E+02  0.72868741865E+02  0.41800000000E+01 0. -1.
         -5    1    3    3    0  502  0.31404288502E+02  0.11435502885E+03  0.63304540340E+02  0.13449252465E+03  0.41800000000E+01 0. -1.
        -11    1    4    4    0    0  0.73269560372E+01 -0.37531086121E+02 -0.89206996112E+02  0.97057482275E+02  0.00000000000E+00 0.  1.
         11    1    4    4    0    0 -0.58598457833E+02 -0.52481103999E+02 -0.41592474436E+02  0.88983029096E+02  0.00000000000E+00 0. -1.
</event>
<event>
 8    1  0.6689467E-009  0.2175448E+03  0.7561462E-02  0.1135727E+00
         -2   -1    0    0    0  501 -0.00000000000E+00  0.00000000000E+00  0.39686199363E+03  0.39686199363E+03  0.00000000000E+00 0.  1.
          2   -1    0    0  501    0  0.00000000000E+00 -0.00000000000E+00 -0.14683948110E+03  0.14683948110E+03  0.00000000000E+00 0. -1.
         25    2    1    2    0    0  0.18054615776E+03  0.10164030239E+03  0.19692300089E+03  0.31201761378E+03  0.12509459172E+03 0.  0.
         23    2    1    2    0    0 -0.18054615776E+03 -0.10164030239E+03  0.53099511639E+02  0.23168386094E+03  0.89051598136E+02 0.  0.
          5    1    3    3  502    0  0.58785989913E+02 -0.10457195038E+02  0.10951335198E+03  0.12480301359E+03  0.41800000000E+01 0. -1.
         -5    1    3    3    0  502  0.12176016785E+03  0.11209749743E+03  0.87409648911E+02  0.18721460020E+03  0.41800000000E+01 0. -1.
        -11    1    4    4    0    0 -0.14716389293E+03 -0.67419702574E+02  0.22461997497E+01  0.16188784109E+03  0.00000000000E+00 0. -1.
         11    1    4    4    0    0 -0.33382264826E+02 -0.34220599819E+02  0.50853311890E+02  0.69796019851E+02  0.00000000000E+00 0.  1.
</event>
<event>
 8    1  0.6689467E-009  0.1191697E+03  0.7561462E-02  0.1244473E+00
         -2   -1    0    0    0  501 -0.00000000000E+00  0.00000000000E+00  0.42737125006E+03  0.42737125006E+03  0.00000000000E+00 0.  1.
          2   -1    0    0  501    0  0.00000000000E+00 -0.00000000000E+00 -0.34163610108E+02  0.34163610108E+02  0.00000000000E+00 0. -1.
         25    2    1    2    0    0  0.40605865061E+02  0.33781028397E+02  0.21545042333E+03  0.25466969360E+03  0.12509106190E+03 0.  0.
         23    2    1    2    0    0 -0.40605865061E+02 -0.33781028397E+02  0.17775721662E+03  0.20686516657E+03  0.91681922547E+02 0.  0.
          5    1    3    3  502    0 -0.37739134264E+02 -0.15194884395E+02  0.89567835105E+02  0.98463172060E+02  0.41800000000E+01 0.  1.
         -5    1    3    3    0  502  0.78344999325E+02  0.48975912792E+02  0.12588258822E+03  0.15620652154E+03  0.41800000000E+01 0.  1.
        -11    1    4    4    0    0 -0.39726556056E+02  0.24494966769E+02  0.66158743683E+02  0.80964078571E+02  0.00000000000E+00 0. -1.
         11    1    4    4    0    0 -0.87930900434E+00 -0.58275995166E+02  0.11159847294E+03  0.12590108800E+03  0.00000000000E+00 0.  1.
</event>
<event>
 8    1  0.6689467E-009  0.1069112E+03  0.7561462E-02  0.1266399E+00
          1   -1    0    0  501    0  0.00000000000E+00  0.00000000000E+00  0.16095583019E+03  0.16095583019E+03  0.00000000000E+00 0. -1.
         -1   -1    0    0    0  501 -0.00000000000E+00 -0.00000000000E+00 -0.93594307785E+02  0.93594307785E+02  0.00000000000E+00 0.  1.
         25    2    1    2    0    0  0.36830313884E+02  0.53125364005E+01  0.79875266451E+02  0.15300878271E+03  0.12508770656E+03 0.  0.
         23    2    1    2    0    0 -0.36830313884E+02 -0.53125364005E+01 -0.12513744048E+02  0.10154135526E+03  0.93644850226E+02 0.  0.
          5    1    3    3  502    0 -0.31671366328E+02 -0.30663668709E+02  0.57072411648E+02  0.72236200032E+02  0.41800000000E+01 0.  1.
         -5    1    3    3    0  502  0.68501680212E+02  0.35976205110E+02  0.22802854803E+02  0.80772582682E+02  0.41800000000E+01 0.  1.
        -11    1    4    4    0    0 -0.30171615397E+01  0.37431637870E+02 -0.25652929467E+02  0.45478605603E+02  0.00000000000E+00 0.  1.
         11    1    4    4    0    0 -0.33813152344E+02 -0.42744174270E+02  0.13139185419E+02  0.56062749656E+02  0.00000000000E+00 0. -1.
</event>
<event>
 8    1  0.6689467E-009  0.1356634E+03  0.7561462E-02  0.1219286E+00
          2   -1    0    0  501    0  0.00000000000E+00  0.00000000000E+00  0.48969531435E+03  0.48969531435E+03  0.00000000000E+00 0. -1.
         -2   -1    0    0    0  501 -0.00000000000E+00 -0.00000000000E+00 -0.50967636648E+02  0.50967636648E+02  0.00000000000E+00 0.  1.
         25    2    1    2    0    0 -0.97292161313E+02 -0.24335007279E+02  0.29604536599E+03  0.33667061762E+03  0.12508512625E+03 0.  0.
         23    2    1    2    0    0  0.97292161313E+02  0.24335007279E+02  0.14268231172E+03  0.20399233339E+03  0.10581433160E+03 0.  0.
          5    1    3    3  502    0 -0.71006700265E+02 -0.51261596169E+02  0.84513695417E+02  0.12177741924E+03  0.41800000000E+01 0. -1.
         -5    1    3    3    0  502 -0.26285461047E+02  0.26926588890E+02  0.21153167057E+03  0.21489319837E+03  0.41800000000E+01 0. -1.
        -11    1    4    4    0    0  0.18647791346E+02 -0.40032158003E+02  0.43381449962E+02  0.61905282467E+02  0.00000000000E+00 0. -1.
         11    1    4    4    0    0  0.78644369967E+02  0.64367165282E+02  0.99300861753E+02  0.14208705092E+03  0.00000000000E+00 0.  1.
</event>
<event>
 8    1  0.6689467E-009  0.7830596E+02  0.7561462E-02  0.1333929E+00
         -1   -1    0    0    0  501 -0.00000000000E+00  0.00000000000E+00  0.35939340857E+02  0.35939340857E+02  0.00000000000E+00 0.  1.
          1   -1    0    0  501    0  0.00000000000E+00 -0.00000000000E+00 -0.34014845108E+03  0.34014845108E+03  0.00000000000E+00 0. -1.
         25    2    1    2    0    0 -0.29795799043E+02 -0.14860799839E+02 -0.20008313973E+03  0.23830555416E+03  0.12509053252E+03 0.  0.
         23    2    1    2    0    0  0.29795799043E+02  0.14860799839E+02 -0.10412597049E+03  0.13778223778E+03  0.83863545736E+02 0.  0.
          5    1    3    3  502    0 -0.11903557943E+02 -0.38413372044E+02 -0.20418835707E+03  0.20815292313E+03  0.41800000000E+01 0. -1.
         -5    1    3    3    0  502 -0.17892241100E+02  0.23552572204E+02  0.41052173367E+01  0.30152631036E+02  0.41800000000E+01 0. -1.
        -11    1    4    4    0    0  0.57112014838E+02  0.14772477743E+02 -0.50729470465E+02  0.77804161272E+02  0.00000000000E+00 0.  1.
         11    1    4    4    0    0 -0.27316215795E+02  0.88322096052E-01 -0.53396500027E+02  0.59978076506E+02  0.00000000000E+00 0. -1.
</event>
<event>
 8    1  0.6689467E-009  0.1210242E+03  0.7561462E-02  0.1241417E+00
          2   -1    0    0  501    0  0.00000000000E+00  0.00000000000E+00  0.11747322158E+03  0.11747322158E+03  0.00000000000E+00 0. -1.
         -2   -1    0    0    0  501 -0.00000000000E+00 -0.00000000000E+00 -0.15573285068E+03  0.15573285068E+03  0.00000000000E+00 0.  1.
         25    2    1    2    0    0 -0.40853324970E+02 -0.66776803256E+02 -0.48794838588E+01  0.14765027499E+03  0.12509459912E+03 0.  0.
         23    2    1    2    0    0  0.40853324970E+02  0.66776803256E+02 -0.33380145244E+02  0.12555579726E+03  0.92314075396E+02 0.  0.
          5    1    3    3  502    0 -0.15741926252E+02 -0.10163764347E+03 -0.12918053596E+02  0.10374183014E+03  0.41800000000E+01 0. -1.
         -5    1    3    3    0  502 -0.25111398718E+02  0.34860840213E+02  0.80385697371E+01  0.43908444852E+02  0.41800000000E+01 0. -1.
        -11    1    4    4    0    0  0.36214890159E+01  0.57451917247E+02 -0.56572465072E+02  0.80711100738E+02  0.00000000000E+00 0.  1.
         11    1    4    4    0    0  0.37231835954E+02  0.93248860090E+01  0.23192319828E+02  0.44844696527E+02  0.00000000000E+00 0. -1.
</event>
<event>
 8    1  0.6689467E-009  0.1102705E+03  0.7561462E-02  0.1260070E+00
          2   -1    0    0  501    0  0.00000000000E+00  0.00000000000E+00  0.39543345937E+03  0.39543345937E+03  0.00000000000E+00 0. -1.
         -2   -1    0    0    0  501 -0.00000000000E+00 -0.00000000000E+00 -0.47412498541E+02  0.47412498541E+02  0.00000000000E+00 0.  1.
         25    2    1    2    0    0  0.99758370335E+00 -0.74012100468E+02  0.25602552691E+03  0.29440795963E+03  0.12509272590E+03 0.  0.
         23    2    1    2    0    0 -0.99758370335E+00  0.74012100468E+02  0.91995433917E+02  0.14843799828E+03  0.89954951415E+02 0.  0.
          5    1    3    3  502    0  0.33085680960E+02 -0.78162963242E+02  0.84620801577E+02  0.11992607543E+03  0.41800000000E+01 0.  1.
         -5    1    3    3    0  502 -0.32088097257E+02  0.41508627742E+01  0.17140472534E+03  0.17448188420E+03  0.41800000000E+01 0.  1.
        -11    1    4    4    0    0 -0.35329591528E+02  0.25788055468E+02  0.61637207320E+01  0.44172336316E+02  0.00000000000E+00 0.  1.
         11    1    4    4    0    0  0.34332007825E+02  0.48224045000E+02  0.85831713185E+02  0.10426566197E+03  0.00000000000E+00 0. -1.
</event>
<event>
 8    1  0.6689467E-009  0.7314725E+02  0.7561462E-02  0.1349706E+00
         -1   -1    0    0    0  501 -0.00000000000E+00  0.00000000000E+00  0.14907744066E+03  0.14907744066E+03  0.00000000000E+00 0. -1.
          1   -1    0    0  501    0  0.00000000000E+00 -0.00000000000E+00 -0.81722476027E+02  0.81722476027E+02  0.00000000000E+00 0.  1.
         25    2    1    2    0    0  0.16802667671E+02 -0.62102208722E+01  0.43190504653E+02  0.13354250051E+03  0.12508910131E+03 0.  0.
         23    2    1    2    0    0 -0.16802667671E+02  0.62102208722E+01  0.24164459982E+02  0.97257416182E+02  0.92488850095E+02 0.  0.
          5    1    3    3  502    0  0.45978706212E+02  0.21225962183E+02  0.69016458997E+02  0.85704882638E+02  0.41800000000E+01 0.  1.
         -5    1    3    3    0  502 -0.29176038541E+02 -0.27436183055E+02 -0.25825954344E+02  0.47837617869E+02  0.41800000000E+01 0.  1.
        -11    1    4    4    0    0 -0.28825712174E+02 -0.13730155990E+02  0.51967311142E+02  0.60992133043E+02  0.00000000000E+00 0. -1.
         11    1    4    4    0    0  0.12023044503E+02  0.19940376862E+02 -0.27802851160E+02  0.36265283139E+02  0.00000000000E+00 0.  1.
</event>
<event>
 8    1  0.6689467E-009  0.1775267E+03  0.7561462E-02  0.1170218E+00
          2   -1    0    0  501    0  0.00000000000E+00  0.00000000000E+00  0.13326502437E+04  0.13326502437E+04  0.00000000000E+00 0. -1.
         -2   -1    0    0    0  501 -0.00000000000E+00 -0.00000000000E+00 -0.25514149093E+02  0.25514149093E+02  0.00000000000E+00 0.  1.
         25    2    1    2    0    0  0.13548076426E+03  0.53820524487E+02  0.79375091041E+03  0.81666423651E+03  0.12509308965E+03 0.  0.
         23    2    1    2    0    0 -0.13548076426E+03 -0.53820524487E+02  0.51338518417E+03  0.54150015626E+03  0.91686343363E+02 0.  0.
          5    1    3    3  502    0  0.15370223460E+03  0.31737490715E+02  0.57653107460E+03  0.59752589702E+03  0.41800000000E+01 0. -1.
         -5    1    3    3    0  502 -0.18221470344E+02  0.22083033772E+02  0.21721983581E+03  0.21913833948E+03  0.41800000000E+01 0. -1.
        -11    1    4    4    0    0 -0.83743650354E+02 -0.75755590752E+02  0.38798386917E+03  0.40408339640E+03  0.00000000000E+00 0. -1.
         11    1    4    4    0    0 -0.51737113904E+02  0.21935066265E+02  0.12540131500E+03  0.13741675986E+03  0.00000000000E+00 0.  1.
</event>
<event>
 8    1  0.6689467E-009  0.1351656E+03  0.7561462E-02  0.1219986E+00
          1   -1    0    0  501    0  0.00000000000E+00  0.00000000000E+00  0.40078613375E+03  0.40078613375E+03  0.00000000000E+00 0. -1.
         -1   -1    0    0    0  501 -0.00000000000E+00 -0.00000000000E+00 -0.54063729859E+02  0.54063729859E+02  0.00000000000E+00 0.  1.
         25    2    1    2    0    0  0.56958371186E+02  0.72311893138E+02  0.13091542971E+03  0.20312643646E+03  0.12509289954E+03 0.  0.
         23    2    1    2    0    0 -0.56958371186E+02 -0.72311893138E+02  0.21580697418E+03  0.25172342715E+03  0.91207278955E+02 0.  0.
          5    1    3    3  502    0  0.57561060307E+02 -0.13693183500E+02  0.90008240184E+02  0.10779487297E+03  0.41800000000E+01 0. -1.
         -5    1    3    3    0  502 -0.60268912110E+00  0.86005076638E+02  0.40907189529E+02  0.95331563487E+02  0.41800000000E+01 0. -1.
        -11    1    4    4    0    0  0.18734754301E+02  0.19904477621E+01  0.13112017004E+02  0.22953820835E+02  0.00000000000E+00 0. -1.
         11    1    4    4    0    0 -0.75693125487E+02 -0.74302340901E+02  0.20269495717E+03  0.22876960631E+03  0.00000000000E+00 0.  1.
</event>
<event>
 8    1  0.6689467E-009  0.1195401E+03  0.7561462E-02  0.1243858E+00
          3   -1    0    0  501    0  0.00000000000E+00  0.00000000000E+00  0.33678258460E+03  0.33678258460E+03  0.00000000000E+00 0. -1.
         -3   -1    0    0    0  501 -0.00000000000E+00 -0.00000000000E+00 -0.93539965886E+02  0.93539965886E+02  0.00000000000E+00 0.  1.
         25    2    1    2    0    0 -0.87064196900E+02 -0.29365221741E+02  0.25418656629E+03  0.29782886179E+03  0.12509488322E+03 0.  0.
         23    2    1    2    0    0  0.87064196900E+02  0.29365221741E+02 -0.10943947571E+02  0.13249368869E+03  0.94827827800E+02 0.  0.
          5    1    3    3  502    0 -0.31281989617E+02  0.26348852026E+02  0.11600153159E+02  0.42718389843E+02  0.41800000000E+01 0. -1.
         -5    1    3    3    0  502 -0.55782207284E+02 -0.55714073767E+02  0.24258641313E+03  0.25511047195E+03  0.41800000000E+01 0. -1.
        -11    1    4    4    0    0  0.32245507071E+02 -0.25761782421E+02 -0.31683105568E+02  0.52031349571E+02  0.00000000000E+00 0.  1.
         11    1    4    4    0    0  0.54818689829E+02  0.55127004163E+02  0.20739157996E+02  0.80462339122E+02  0.00000000000E+00 0. -1.
</event>
<event>
 8    1  0.6689467E-009  0.1994172E+03  0.7561462E-02  0.1150232E+00
          2   -1    0    0  501    0  0.00000000000E+00  0.00000000000E+00  0.49539274211E+03  0.49539274211E+03  0.00000000000E+00 0. -1.
         -2   -1    0    0    0  501 -0.00000000000E+00 -0.00000000000E+00 -0.91698719733E+02  0.91698719733E+02  0.00000000000E+00 0.  1.
         25    2    1    2    0    0  0.27556465731E+02 -0.17817666571E+03  0.16551070295E+03  0.27485962986E+03  0.12509092824E+03 0.  0.
         23    2    1    2    0    0 -0.27556465731E+02  0.17817666571E+03  0.23818331943E+03  0.31223183198E+03  0.90835787228E+02 0.  0.
          5    1    3    3  502    0  0.28314657009E+02 -0.19136998655E+03  0.12094219352E+03  0.22818562208E+03  0.41800000000E+01 0.  1.
         -5    1    3    3    0  502 -0.75819127775E+00  0.13193320838E+02  0.44568509431E+02  0.46674007773E+02  0.41800000000E+01 0.  1.
        -11    1    4    4    0    0 -0.47763768301E+02  0.10143463009E+03  0.88594065497E+02  0.14289601179E+03  0.00000000000E+00 0.  1.
         11    1    4    4    0    0  0.20207302570E+02  0.76742035618E+02  0.14958925393E+03  0.16933582019E+03  0.00000000000E+00 0. -1.
</event>
<event>
 8    1  0.6689467E-009  0.6303992E+02  0.7561462E-02  0.1385500E+00
          1   -1    0    0  501    0  0.00000000000E+00  0.00000000000E+00  0.32967592465E+03  0.32967592465E+03  0.00000000000E+00 0. -1.
         -1   -1    0    0    0  501 -0.00000000000E+00 -0.00000000000E+00 -0.57385448843E+02  0.57385448843E+02  0.00000000000E+00 0.  1.
         25    2    1    2    0    0  0.71683193817E+01  0.54639045955E+01  0.26966203198E+03  0.29740200380E+03  0.12509636812E+03 0.  0.
         23    2    1    2    0    0 -0.71683193817E+01 -0.54639045955E+01  0.26284438278E+01  0.89659369694E+02  0.89166444365E+02 0.  0.
          5    1    3    3  502    0 -0.16097107096E+02 -0.21411862348E+01 -0.80371304572E+01  0.18594875674E+02  0.41800000000E+01 0.  1.
         -5    1    3    3    0  502  0.23265426478E+02  0.76050908303E+01  0.27769916244E+03  0.27880712813E+03  0.41800000000E+01 0.  1.
        -11    1    4    4    0    0  0.37755952081E+02 -0.10723457191E+02  0.16162547124E+02  0.42446818269E+02  0.00000000000E+00 0. -1.
         11    1    4    4    0    0 -0.44924271463E+02  0.52595525958E+01 -0.13534103296E+02  0.47212551424E+02  0.00000000000E+00 0.  1.
</event>
<event>
 8    1  0.6689467E-009  0.1723973E+03  0.7561462E-02  0.1175371E+00
          1   -1    0    0  501    0  0.00000000000E+00  0.00000000000E+00  0.11914394387E+04  0.11914394387E+04  0.00000000000E+00 0. -1.
         -1   -1    0    0    0  501 -0.00000000000E+00 -0.00000000000E+00 -0.31435266164E+02  0.31435266164E+02  0.00000000000E+00 0.  1.
         25    2    1    2    0    0 -0.85051286437E+01 -0.15846586460E+03  0.56346931543E+03  0.59860554078E+03  0.12508859485E+03 0.  0.
         23    2    1    2    0    0  0.85051286437E+01  0.15846586460E+03  0.59653485710E+03  0.62426916408E+03  0.93136384029E+02 0.  0.
          5    1    3    3  502    0 -0.17065969845E+02 -0.11275900370E+03  0.52740310873E+03  0.53960851711E+03  0.41800000000E+01 0. -1.
         -5    1    3    3    0  502  0.85608412010E+01 -0.45706860906E+02  0.36066206706E+02  0.58997023671E+02  0.41800000000E+01 0. -1.
        -11    1    4    4    0    0  0.43737912057E+02  0.36295495962E+02  0.18002972033E+03  0.18878842173E+03  0.00000000000E+00 0.  1.
         11    1    4    4    0    0 -0.35232783413E+02  0.12217036864E+03  0.41650513677E+03  0.43548074235E+03  0.00000000000E+00 0. -1.
</event>
<event>
 8    1  0.6689467E-009  0.9874650E+02  0.7561462E-02  0.1282954E+00
         -1   -1    0    0    0  501 -0.00000000000E+00  0.00000000000E+00  0.11871465892E+03  0.11871465892E+03  0.00000000000E+00 0.  1.
          1   -1    0    0  501    0  0.00000000000E+00 -0.00000000000E+00 -0.16865961702E+03  0.16865961702E+03  0.00000000000E+00 0. -1.
         25    2    1    2    0    0 -0.62912899141E+01  0.61019767454E+02  0.39867051593E+02  0.14491302267E+03  0.12508960783E+03 0.  0.
         23    2    1    2    0    0  0.62912899141E+01 -0.61019767454E+02 -0.89812009692E+02  0.14246125327E+03  0.92010973529E+02 0.  0.
          5    1    3    3  502    0 -0.15923921883E+02  0.82970472750E+02 -0.14061615862E+02  0.85748889656E+02  0.41800000000E+01 0. -1.
         -5    1    3    3    0  502  0.96326319686E+01 -0.21950705296E+02  0.53928667455E+02  0.59164133012E+02  0.41800000000E+01 0. -1.
        -11    1    4    4    0    0 -0.39871662964E+01  0.13125456640E+02 -0.60560239301E+02  0.62094425605E+02  0.00000000000E+00 0. -1.
         11    1    4    4    0    0  0.10278456210E+02 -0.74145224094E+02 -0.29251770391E+02  0.80366827666E+02  0.00000000000E+00 0.  1.
</event>
<event>
 8    1  0.6689467E-009  0.1250226E+03  0.7561462E-02  0.1235034E+00
         -3   -1    0    0    0  501 -0.00000000000E+00  0.00000000000E+00  0.19790673822E+03  0.19790673822E+03  0.00000000000E+00 0.  1.
          3   -1    0    0  501    0  0.00000000000E+00 -0.00000000000E+00 -0.86175939664E+02  0.86175939664E+02  0.00000000000E+00 0. -1.
         25    2    1    2    0    0 -0.69166474125E+02  0.58115248625E+01  0.85744962186E+02  0.16678697996E+03  0.12509165911E+03 0.  0.
         23    2    1    2    0    0  0.69166474125E+02 -0.58115248625E+01  0.25985836368E+02  0.11729569792E+03  0.90913376877E+02 0.  0.
          5    1    3    3  502    0  0.31002431169E+02 -0.13693968139E+02  0.11520628728E+01  0.34168335498E+02  0.41800000000E+01 0. -1.
         -5    1    3    3    0  502 -0.10016890529E+03  0.19505493002E+02  0.84592899313E+02  0.13261864446E+03  0.41800000000E+01 0. -1.
        -11    1    4    4    0    0 -0.13532062914E+02 -0.25394369285E+02  0.11956290551E+02  0.31159967937E+02  0.00000000000E+00 0. -1.
         11    1    4    4    0    0  0.82698537039E+02  0.19582844423E+02  0.14029545816E+02  0.86135729984E+02  0.00000000000E+00 0.  1.
</event>
<event>
 8    1  0.6689467E-009  0.1620584E+03  0.7561462E-02  0.1186392E+00
         -2   -1    0    0    0  501 -0.00000000000E+00  0.00000000000E+00  0.43865869712E+02  0.43865869712E+02  0.00000000000E+00 0. -1.
          2   -1    0    0  501    0  0.00000000000E+00 -0.00000000000E+00 -0.73133911948E+03  0.73133911948E+03  0.00000000000E+00 0.  1.
         25    2    1    2    0    0  0.11326276433E+03  0.74306532879E+02 -0.26853675196E+03  0.32574669063E+03  0.12509598193E+03 0.  0.
         23    2    1    2    0    0 -0.11326276433E+03 -0.74306532879E+02 -0.41893649781E+03  0.44945829856E+03  0.90305361603E+02 0.  0.
          5    1    3    3  502    0  0.35209846549E+02  0.96368670467E+02 -0.16158024810E+03  0.19144791176E+03  0.41800000000E+01 0.  1.
         -5    1    3    3    0  502  0.78052917779E+02 -0.22062137588E+02 -0.10695650386E+03  0.13429877887E+03  0.41800000000E+01 0.  1.
        -11    1    4    4    0    0 -0.69864665029E+02 -0.65834616591E+02 -0.37512018329E+03  0.38720849690E+03  0.00000000000E+00 0.  1.
         11    1    4    4    0    0 -0.43398099299E+02 -0.84719162883E+01 -0.43816314524E+02  0.62249801661E+02  0.00000000000E+00 0. -1.
</event>
<event>
 8    1  0.6689467E-009  0.1142204E+03  0.7561462E-02  0.1252948E+00
          1   -1    0    0  501    0  0.00000000000E+00  0.00000000000E+00  0.41598879483E+03  0.41598879483E+03  0.00000000000E+00 0. -1.
         -1   -1    0    0    0  501 -0.00000000000E+00 -0.00000000000E+00 -0.41965677375E+02  0.41965677375E+02  0.00000000000E+00 0.  1.
         25    2    1    2    0    0  0.37410681936E+02  0.51987467833E+02  0.25220541117E+03  0.28871721739E+03  0.12509119179E+03 0.  0.
         23    2    1    2    0    0 -0.37410681936E+02 -0.51987467833E+02  0.12181770629E+03  0.16923725481E+03  0.98485729504E+02 0.  0.
          5    1    3    3  502    0  0.65385264736E+02  0.52743679462E+02  0.24568015652E+03  0.25967930275E+03  0.41800000000E+01 0.  1.
         -5    1    3    3    0  502 -0.27974582800E+02 -0.75621162910E+00  0.65252546459E+01  0.29037914647E+02  0.41800000000E+01 0.  1.
        -11    1    4    4    0    0  0.96670087584E+01  0.24433873642E+02  0.17265524810E+02  0.31441431050E+02  0.00000000000E+00 0.  1.
         11    1    4    4    0    0 -0.47077690694E+02 -0.76421341475E+02  0.10455218148E+03  0.13779582376E+03  0.00000000000E+00 0. -1.
</event>
<event>
 8    1  0.6689467E-009  0.1655846E+03  0.7561462E-02  0.1182532E+00
          1   -1    0    0  501    0  0.00000000000E+00  0.00000000000E+00  0.12358084645E+04  0.12358084645E+04  0.00000000000E+00 0. -1.
         -1   -1    0    0    0  501 -0.00000000000E+00 -0.00000000000E+00 -0.37108847747E+02  0.37108847747E+02  0.00000000000E+00 0.  1.
         25    2    1    2    0    0  0.88175877700E+02 -0.11419244300E+03  0.96460566913E+03  0.98332414273E+03  0.12508946119E+03 0.  0.
         23    2    1    2    0    0 -0.88175877700E+02  0.11419244300E+03  0.23409394762E+03  0.28959316952E+03  0.90825811713E+02 0.  0.
          5    1    3    3  502    0  0.15296890511E+02 -0.77384526553E+02  0.74178411198E+03  0.74597821750E+03  0.41800000000E+01 0.  1.
         -5    1    3    3    0  502  0.72878987189E+02 -0.36807916449E+02  0.22282155716E+03  0.23734592523E+03  0.41800000000E+01 0.  1.
        -11    1    4    4    0    0 -0.77715901836E+02  0.13000549719E+03  0.20558466158E+03  0.25535513266E+03  0.00000000000E+00 0.  1.
         11    1    4    4    0    0 -0.10459975864E+02 -0.15813054185E+02  0.28509286038E+02  0.34238036862E+02  0.00000000000E+00 0. -1.
</event>
<event>
 8    1  0.6689467E-009  0.1499402E+03  0.7561462E-02  0.1200546E+00
         -1   -1    0    0    0  501 -0.00000000000E+00  0.00000000000E+00  0.33516850712E+02  0.33516850712E+02  0.00000000000E+00 0.  1.
          1   -1    0    0  501    0  0.00000000000E+00 -0.00000000000E+00 -0.11120806350E+04  0.11120806350E+04  0.00000000000E+00 0. -1.
         25    2    1    2    0    0 -0.62047883599E+02 -0.91337811178E+02 -0.91344241970E+03  0.92855661196E+03  0.12509113437E+03 0.  0.
         23    2    1    2    0    0  0.62047883599E+02  0.91337811178E+02 -0.16512136455E+03  0.21704087371E+03  0.87459363254E+02 0.  0.
          5    1    3    3  502    0  0.36401537916E+02 -0.37739745827E+02 -0.22740310132E+03  0.23340737620E+03  0.41800000000E+01 0.  1.
         -5    1    3    3    0  502 -0.98449421516E+02 -0.53598065351E+02 -0.68603931838E+03  0.69514923576E+03  0.41800000000E+01 0.  1.
        -11    1    4    4    0    0  0.48286082787E+02  0.59881913798E+01 -0.31742179654E+02  0.58094493681E+02  0.00000000000E+00 0.  1.
         11    1    4    4    0    0  0.13761800812E+02  0.85349619798E+02 -0.13337918489E+03  0.15894638003E+03  0.00000000000E+00 0. -1.
</event>
<event>
 8    1  0.6689467E-009  0.8535214E+02  0.7561462E-02  0.1314514E+00
          1   -1    0    0  501    0  0.00000000000E+00  0.00000000000E+00  0.10029004945E+04  0.10029004945E+04  0.00000000000E+00 0. -1.
         -1   -1    0    0    0  501 -0.00000000000E+00 -0.00000000000E+00 -0.23272459995E+02  0.23272459995E+02  0.00000000000E+00 0.  1.
         25    2    1    2    0    0  0.64154176485E+02  0.23964576204E+02  0.80420125175E+03  0.81674683082E+03  0.12508266493E+03 0.  0.
         23    2    1    2    0    0 -0.64154176485E+02 -0.23964576204E+02  0.17542678273E+03  0.20942612365E+03  0.91622518493E+02 0.  0.
          5    1    3    3  502    0  0.34901520086E+02 -0.23607297080E+02  0.81173068884E+02  0.91553045235E+02  0.41800000000E+01 0. -1.
         -5    1    3    3    0  502  0.29252656400E+02  0.47571873284E+02  0.72302818287E+03  0.72519378559E+03  0.41800000000E+01 0. -1.
        -11    1    4    4    0    0 -0.10970635426E+02 -0.14751329031E+02 -0.66253443073E+01  0.19541027021E+02  0.00000000000E+00 0.  1.
         11    1    4    4    0    0 -0.53183541059E+02 -0.92132471729E+01  0.18205212704E+03  0.18988509663E+03  0.00000000000E+00 0. -1.
</event>
<event>
 8    1  0.6689467E-009  0.8989291E+02  0.7561462E-02  0.1303111E+00
         -2   -1    0    0    0  501 -0.00000000000E+00  0.00000000000E+00  0.63533746966E+03  0.63533746966E+03  0.00000000000E+00 0.  1.
          2   -1    0    0  501    0  0.00000000000E+00 -0.00000000000E+00 -0.46416975701E+02  0.46416975701E+02  0.00000000000E+00 0. -1.
         25    2    1    2    0    0 -0.34271773558E+02  0.73560790508E+02  0.95416745025E+02  0.17702224371E+03  0.12508707037E+03 0.  0.
         23    2    1    2    0    0  0.34271773558E+02 -0.73560790508E+02  0.49350374893E+03  0.50473220165E+03  0.67991917244E+02 0.  0.
          5    1    3    3  502    0 -0.36363539340E+02  0.62682569272E+02 -0.79123302029E+01  0.73017044949E+02  0.41800000000E+01 0.  1.
         -5    1    3    3    0  502  0.20917657823E+01  0.10878221236E+02  0.10332907523E+03  0.10400519876E+03  0.41800000000E+01 0.  1.
        -11    1    4    4    0    0  0.47025172812E+02 -0.64003427233E+02  0.46775958748E+03  0.47445425202E+03  0.00000000000E+00 0.  1.
         11    1    4    4    0    0 -0.12753399254E+02 -0.95573632745E+01  0.25744161451E+02  0.30277949635E+02  0.00000000000E+00 0. -1.
</event>
<event>
 8    1  0.6689467E-009  0.1046434E+03  0.7561462E-02  0.1270824E+00
          2   -1    0    0  501    0  0.00000000000E+00  0.00000000000E+00  0.20096682050E+03  0.20096682050E+03  0.00000000000E+00 0. -1.
         -2   -1    0    0    0  501 -0.00000000000E+00 -0.00000000000E+00 -0.69426375086E+02  0.69426375086E+02  0.00000000000E+00 0.  1.
         25    2    1    2    0    0  0.12312372023E+02 -0.42248647105E+02  0.59875002362E+02  0.14549669943E+03  0.12509089075E+03 0.  0.
         23    2    1    2    0    0 -0.12312372023E+02  0.42248647105E+02  0.71665443047E+02  0.12489649616E+03  0.92339895699E+02 0.  0.
          5    1    3    3  502    0 -0.51795852657E+02 -0.33885959927E+02  0.80994276708E+01  0.62563102235E+02  0.41800000000E+01 0. -1.
         -5    1    3    3    0  502  0.64108224680E+02 -0.83626871787E+01  0.51775574691E+02  0.82933597191E+02  0.41800000000E+01 0. -1.
        -11    1    4    4    0    0 -0.36500800214E+02  0.33452153822E+01 -0.35536963773E+01  0.36825638353E+02  0.00000000000E+00 0.  1.
         11    1    4    4    0    0  0.24188428191E+02  0.38903431723E+02  0.75219139425E+02  0.88070857802E+02  0.00000000000E+00 0. -1.
</event>
<event>
 8    1  0.6689467E-009  0.1463018E+03  0.7561462E-02  0.1205092E+00
          2   -1    0    0  501    0  0.00000000000E+00  0.00000000000E+00  0.16382830841E+03  0.16382830841E+03  0.00000000000E+00 0. -1.
         -2   -1    0    0    0  501 -0.00000000000E+00 -0.00000000000E+00 -0.15487776394E+03  0.15487776394E+03  0.00000000000E+00 0.  1.
         25    2    1    2    0    0  0.83009274501E+02 -0.79134243678E+02 -0.10369057343E+02  0.17002290330E+03  0.12508997609E+03 0.  0.
         23    2    1    2    0    0 -0.83009274501E+02  0.79134243678E+02  0.19319601814E+02  0.14868316905E+03  0.92631903622E+02 0.  0.
          5    1    3    3  502    0  0.94161620083E+02 -0.15499960147E+02 -0.33576402835E+02  0.10124972439E+03  0.41800000000E+01 0. -1.
         -5    1    3    3    0  502 -0.11152345581E+02 -0.63634283531E+02  0.23207345492E+02  0.68773178909E+02  0.41800000000E+01 0. -1.
        -11    1    4    4    0    0 -0.84609397936E+02  0.40722968086E+02  0.43268858264E+02  0.10338909248E+03  0.00000000000E+00 0. -1.
         11    1    4    4    0    0  0.16001234342E+01  0.38411275592E+02 -0.23949256450E+02  0.45294076568E+02  0.00000000000E+00 0.  1.
</event>
<event>
 8    1  0.6689467E-009  0.9931899E+02  0.7561462E-02  0.1281735E+00
          2   -1    0    0  501    0  0.00000000000E+00  0.00000000000E+00  0.59872614522E+03  0.59872614522E+03  0.00000000000E+00 0. -1.
         -2   -1    0    0    0  501 -0.00000000000E+00 -0.00000000000E+00 -0.24599478042E+02  0.24599478042E+02  0.00000000000E+00 0.  1.
         25    2    1    2    0    0 -0.54289803333E+02 -0.49367686875E+00  0.40244071247E+03  0.42491619503E+03  0.12509044443E+03 0.  0.
         23    2    1    2    0    0  0.54289803333E+02  0.49367686875E+00  0.17168595471E+03  0.19840942823E+03  0.83322312151E+02 0.  0.
          5    1    3    3  502    0  0.28484995518E+02  0.23739355761E+02  0.21914286130E+03  0.22229713908E+03  0.41800000000E+01 0.  1.
         -5    1    3    3    0  502 -0.82774798851E+02 -0.24233032630E+02  0.18329785116E+03  0.20261905596E+03  0.41800000000E+01 0.  1.
        -11    1    4    4    0    0  0.37158877094E+02 -0.24618112051E+02  0.15958123817E+03  0.16568948417E+03  0.00000000000E+00 0. -1.
         11    1    4    4    0    0  0.17130926239E+02  0.25111788920E+02  0.12104716534E+02  0.32719944055E+02  0.00000000000E+00 0.  1.
</event>
<event>
 8    1  0.6689467E-009  0.9597561E+02  0.7561462E-02  0.1288994E+00
          2   -1    0    0  501    0  0.00000000000E+00  0.00000000000E+00  0.80157563120E+02  0.80157563120E+02  0.00000000000E+00 0. -1.
         -2   -1    0    0    0  501 -0.00000000000E+00 -0.00000000000E+00 -0.16868356008E+03  0.16868356008E+03  0.00000000000E+00 0.  1.
         25    2    1    2    0    0 -0.10391699962E+02 -0.26895344606E+02 -0.87117340394E+02  0.15513989457E+03  0.12509040290E+03 0.  0.
         23    2    1    2    0    0  0.10391699962E+02  0.26895344606E+02 -0.14086565659E+01  0.93701228635E+02  0.89143642201E+02 0.  0.
          5    1    3    3  502    0 -0.40782680485E+02 -0.47232574844E+02 -0.98443308117E+02  0.11663061548E+03  0.41800000000E+01 0. -1.
         -5    1    3    3    0  502  0.30390980523E+02  0.20337230238E+02  0.11325967723E+02  0.38509279086E+02  0.41800000000E+01 0. -1.
        -11    1    4    4    0    0 -0.37153459084E+02 -0.15711978735E+01 -0.75533093594E+01  0.37946023072E+02  0.00000000000E+00 0. -1.
         11    1    4    4    0    0  0.47545159046E+02  0.28466542480E+02  0.61446527934E+01  0.55755205564E+02  0.00000000000E+00 0.  1.
</event>
<event>
 8    1  0.6689467E-009  0.1080445E+03  0.7561462E-02  0.1264235E+00
          1   -1    0    0  501    0  0.00000000000E+00  0.00000000000E+00  0.18376800612E+04  0.18376800612E+04  0.00000000000E+00 0. -1.
         -1   -1    0    0    0  501 -0.00000000000E+00 -0.00000000000E+00 -0.90706810640E+01  0.90706810640E+01  0.00000000000E+00 0.  1.
         25    2    1    2    0    0 -0.87594227358E+01 -0.27829909886E+02  0.14672657535E+04  0.14728752833E+04  0.12506629218E+03 0.  0.
         23    2    1    2    0    0  0.87594227358E+01  0.27829909886E+02  0.36134362659E+03  0.37387545890E+03  0.91446218735E+02 0.  0.
          5    1    3    3  502    0  0.54436212633E+02 -0.31870104723E+02  0.61129364293E+03  0.61455381791E+03  0.41800000000E+01 0. -1.
         -5    1    3    3    0  502 -0.63195635368E+02  0.40401948371E+01  0.85597211057E+03  0.85832146540E+03  0.41800000000E+01 0. -1.
        -11    1    4    4    0    0 -0.36485540488E+02  0.24691463131E+02  0.24640427614E+03  0.25031166636E+03  0.00000000000E+00 0. -1.
         11    1    4    4    0    0  0.45244963224E+02  0.31384467549E+01  0.11493935045E+03  0.12356379254E+03  0.00000000000E+00 0.  1.
</event>
<event>
 8    1  0.6689467E-009  0.1149330E+03  0.7561462E-02  0.1251698E+00
          1   -1    0    0  501    0  0.00000000000E+00  0.00000000000E+00  0.22834116264E+03  0.22834116264E+03  0.00000000000E+00 0. -1.
         -1   -1    0    0    0  501 -0.00000000000E+00 -0.00000000000E+00 -0.61355096739E+02  0.61355096739E+02  0.00000000000E+00 0.  1.
         25    2    1    2    0    0  0.17515629581E+02 -0.40743469058E+02  0.79774100633E+02  0.15485250925E+03  0.12509422424E+03 0.  0.
         23    2    1    2    0    0 -0.17515629581E+02  0.40743469058E+02  0.87211965267E+02  0.13484375013E+03  0.92790530295E+02 0.  0.
          5    1    3    3  502    0 -0.30711870003E+02 -0.68884013768E+02  0.35459917567E+02  0.83445218352E+02  0.41800000000E+01 0.  1.
         -5    1    3    3    0  502  0.48227499584E+02  0.28140544710E+02  0.44314183066E+02  0.71407290899E+02  0.41800000000E+01 0.  1.
        -11    1    4    4    0    0  0.93995414647E+01  0.62823955362E+02  0.36288762450E+02  0.73157877410E+02  0.00000000000E+00 0.  1.
         11    1    4    4    0    0 -0.26915171046E+02 -0.22080486304E+02  0.50923202817E+02  0.61685872718E+02  0.00000000000E+00 0. -1.
</event>
<event>
 8    1  0.6689467E-009  0.1851698E+03  0.7561462E-02  0.1162891E+00
         -1   -1    0    0    0  501 -0.00000000000E+00  0.00000000000E+00  0.15998345626E+03  0.15998345626E+03  0.00000000000E+00 0.  1.
          1   -1    0    0  501    0  0.00000000000E+00 -0.00000000000E+00 -0.25294386296E+03  0.25294386296E+03  0.00000000000E+00 0. -1.
         25    2    1    2    0    0 -0.11509127740E+03  0.11564662373E+03 -0.10125445990E+03  0.22917140461E+03  0.12508766256E+03 0.  0.
         23    2    1    2    0    0  0.11509127740E+03 -0.11564662373E+03  0.82940531935E+01  0.18375591461E+03  0.84126696844E+02 0.  0.
          5    1    3    3  502    0 -0.11568631197E+03  0.30755561039E+02 -0.49107251604E+02  0.12945355102E+03  0.41800000000E+01 0. -1.
         -5    1    3    3    0  502  0.59503456532E+00  0.84891062692E+02 -0.52147208298E+02  0.99717853589E+02  0.41800000000E+01 0. -1.
        -11    1    4    4    0    0  0.16161487620E+02 -0.32654389392E+02 -0.31991591246E+02  0.48486748078E+02  0.00000000000E+00 0. -1.
         11    1    4    4    0    0  0.98929789783E+02 -0.82992234338E+02  0.40285644440E+02  0.13526916653E+03  0.00000000000E+00 0.  1.
</event>
<event>
 8    1  0.6689467E-009  0.1228439E+03  0.7561462E-02  0.1238478E+00
          1   -1    0    0  501    0  0.00000000000E+00  0.00000000000E+00  0.48432817095E+02  0.48432817095E+02  0.00000000000E+00 0. -1.
         -1   -1    0    0    0  501 -0.00000000000E+00 -0.00000000000E+00 -0.35992355552E+03  0.35992355552E+03  0.00000000000E+00 0.  1.
         25    2    1    2    0    0 -0.30825811527E+02  0.65998343037E+02 -0.20605528964E+03  0.25181924922E+03  0.12509252555E+03 0.  0.
         23    2    1    2    0    0  0.30825811527E+02 -0.65998343037E+02 -0.10543544878E+03  0.15653712339E+03  0.89895635045E+02 0.  0.
          5    1    3    3  502    0 -0.10857701007E+02 -0.33225833839E+02 -0.95947045969E+02  0.10220153490E+03  0.41800000000E+01 0. -1.
         -5    1    3    3    0  502 -0.19968110520E+02  0.99224176876E+02 -0.11010824367E+03  0.14961771432E+03  0.41800000000E+01 0. -1.
        -11    1    4    4    0    0 -0.12561527359E+02 -0.64562423333E+02 -0.87745085778E+02  0.10965992228E+03  0.00000000000E+00 0.  1.
         11    1    4    4    0    0  0.43387338886E+02 -0.14359197041E+01 -0.17690363005E+02  0.46877201113E+02  0.00000000000E+00 0. -1.
</event>
<event>
 8    1  0.6689467E-009  0.9610221E+02  0.7561462E-02  0.1288713E+00
         -1   -1    0    0    0  501 -0.00000000000E+00  0.00000000000E+00  0.56982137347E+02  0.56982137347E+02  0.00000000000E+00 0.  1.
          1   -1    0    0  501    0  0.00000000000E+00 -0.00000000000E+00 -0.29696639107E+03  0.29696639107E+03  0.00000000000E+00 0. -1.
         25    2    1    2    0    0 -0.81913011156E+02 -0.43776825304E+01 -0.15534043170E+03  0.21565383974E+03  0.12508806246E+03 0.  0.
         23    2    1    2    0    0  0.81913011156E+02  0.43776825304E+01 -0.84643822021E+02  0.13829468868E+03  0.72332142304E+02 0.  0.
          5    1    3    3  502    0 -0.47270321970E+02 -0.11513322099E+02 -0.17019681280E+03  0.17706345589E+03  0.41800000000E+01 0.  1.
         -5    1    3    3    0  502 -0.34642689186E+02  0.71356395684E+01  0.14856381095E+02  0.38590383845E+02  0.41800000000E+01 0.  1.
        -11    1    4    4    0    0  0.23115640433E+02 -0.31353802578E+02 -0.19572778488E+02  0.43594580242E+02  0.00000000000E+00 0. -1.
         11    1    4    4    0    0  0.58797370724E+02  0.35731485109E+02 -0.65071043533E+02  0.94700108440E+02  0.00000000000E+00 0.  1.
</event>
<event>
 8    1  0.6689467E-009  0.1242797E+03  0.7561462E-02  0.1236199E+00
         -1   -1    0    0    0  501 -0.00000000000E+00  0.00000000000E+00  0.11152402789E+03  0.11152402789E+03  0.00000000000E+00 0.  1.
          1   -1    0    0  501    0  0.00000000000E+00 -0.00000000000E+00 -0.20241493949E+03  0.20241493949E+03  0.00000000000E+00 0. -1.
         25    2    1    2    0    0 -0.80886352078E+02  0.27441484091E+02 -0.11042474923E+03  0.18744723019E+03  0.12508877593E+03 0.  0.
         23    2    1    2    0    0  0.80886352078E+02 -0.27441484091E+02  0.19533837626E+02  0.12649173719E+03  0.91230212990E+02 0.  0.
          5    1    3    3  502    0 -0.90292488934E+02  0.60893183325E+02 -0.10623572662E+03  0.15219794789E+03  0.41800000000E+01 0.  1.
         -5    1    3    3    0  502  0.94061368562E+01 -0.33451699234E+02 -0.41890226138E+01  0.35249282300E+02  0.41800000000E+01 0.  1.
        -11    1    4    4    0    0  0.85279374273E+02 -0.37830064934E+02  0.41261583212E+02  0.10201080207E+03  0.00000000000E+00 0.  1.
         11    1    4    4    0    0 -0.43930221955E+01  0.10388580843E+02 -0.21727745587E+02  0.24480935117E+02  0.00000000000E+00 0. -1.
</event>
<event>
 8    1  0.6689467E-009  0.7039350E+02  0.7561462E-02  0.1358760E+00
          2   -1    0    0  501    0  0.00000000000E+00  0.00000000000E+00  0.83042716597E+03  0.83042716597E+03  0.00000000000E+00 0. -1.
         -2   -1    0    0    0  501 -0.00000000000E+00 -0.00000000000E+00 -0.16691855429E+02  0.16691855429E+02  0.00000000000E+00 0.  1.
         25    2    1    2    0    0 -0.10645046247E+02 -0.37180068867E+02  0.37343734214E+03  0.39572233970E+03  0.12508016270E+03 0.  0.
         23    2    1    2    0    0  0.10645046247E+02  0.37180068867E+02  0.44029796840E+03  0.45139668170E+03  0.91656907770E+02 0.  0.
          5    1    3    3  502    0  0.24696935390E+01 -0.50110199955E+01 -0.91676189272E+01  0.11520735409E+02  0.41800000000E+01 0. -1.
         -5    1    3    3    0  502 -0.13114739786E+02 -0.32169048872E+02  0.38260496107E+03  0.38420160429E+03  0.41800000000E+01 0. -1.
        -11    1    4    4    0    0  0.16716661179E+02  0.66658319305E+02  0.28109284610E+03  0.28937167522E+03  0.00000000000E+00 0.  1.
         11    1    4    4    0    0 -0.60716149326E+01 -0.29478250438E+02  0.15920512231E+03  0.16202500648E+03  0.00000000000E+00 0. -1.
</event>
<event>
 8    1  0.6689467E-009  0.1694695E+03  0.7561462E-02  0.1178402E+00
          1   -1    0    0  501    0  0.00000000000E+00  0.00000000000E+00  0.58226862330E+02  0.58226862330E+02  0.00000000000E+00 0. -1.
         -1   -1    0    0    0  501 -0.00000000000E+00 -0.00000000000E+00 -0.66067208229E+03  0.66067208229E+03  0.00000000000E+00 0.  1.
         25    2    1    2    0    0 -0.80796925567E+02  0.12899002900E+03 -0.42275255202E+03  0.46640559731E+03  0.12509152727E+03 0.  0.
         23    2    1    2    0    0  0.80796925567E+02 -0.12899002900E+03 -0.17969266794E+03  0.25249334732E+03  0.91087127324E+02 0.  0.
          5    1    3    3  502    0 -0.94335772824E+02  0.96447613177E+02 -0.20282633019E+03  0.24363368556E+03  0.41800000000E+01 0. -1.
         -5    1    3    3    0  502  0.13538847257E+02  0.32542415825E+02 -0.21992622184E+03  0.22277191175E+03  0.41800000000E+01 0. -1.
        -11    1    4    4    0    0 -0.12035753379E+02 -0.38137316899E+01 -0.44259452946E+02  0.46025026712E+02  0.00000000000E+00 0.  1.
         11    1    4    4    0    0  0.92832678946E+02 -0.12517629731E+03 -0.13543321500E+03  0.20646832060E+03  0.00000000000E+00 0. -1.
</event>
<event>
 8    1  0.6689467E-009  0.1096524E+03  0.7561462E-02  0.1261215E+00
         -4   -1    0    0    0  501 -0.00000000000E+00  0.00000000000E+00  0.92672183664E+02  0.92672183664E+02  0.00000000000E+00 0.  1.
          4   -1    0    0  501    0  0.00000000000E+00 -0.00000000000E+00 -0.20543221254E+03  0.20543221254E+03  0.00000000000E+00 0. -1.
         25    2    1    2    0    0  0.48145444061E+02 -0.19914861828E+02  0.10238330001E+02  0.13588767429E+03  0.12508417613E+03 0.  0.
         23    2    1    2    0    0 -0.48145444061E+02  0.19914861828E+02 -0.12299835888E+03  0.16221672192E+03  0.92038486936E+02 0.  0.
          5    1    3    3  502    0  0.33987219419E+02  0.48838558044E+02  0.23891179856E+02  0.64254157146E+02  0.41800000000E+01 0. -1.
         -5    1    3    3    0  502  0.14158224643E+02 -0.68753419872E+02 -0.13652849855E+02  0.71633517143E+02  0.41800000000E+01 0. -1.
        -11    1    4    4    0    0  0.13071882341E+02 -0.14163295976E+02 -0.74631767984E+02  0.77080307818E+02  0.00000000000E+00 0. -1.
         11    1    4    4    0    0 -0.61217326402E+02  0.34078157804E+02 -0.48366590897E+02  0.85136414102E+02  0.00000000000E+00 0.  1.
</event>
<event>
 8    1  0.6689467E-009  0.1037121E+03  0.7561462E-02  0.1272678E+00
         -1   -1    0    0    0  501 -0.00000000000E+00  0.00000000000E+00  0.46214682294E+02  0.46214682294E+02  0.00000000000E+00 0.  1.
          1   -1    0    0  501    0  0.00000000000E+00 -0.00000000000E+00 -0.38951878154E+03  0.38951878154E+03  0.00000000000E+00 0. -1.
         25    2    1    2    0    0  0.48074931553E+02 -0.30043184285E+02 -0.28701011180E+03  0.31817671664E+03  0.12509127377E+03 0.  0.
         23    2    1    2    0    0 -0.48074931553E+02  0.30043184285E+02 -0.56293987441E+02  0.11755674719E+03  0.86236789255E+02 0.  0.
          5    1    3    3  502    0  0.90625660066E+02 -0.20408990403E+02 -0.18175601305E+03  0.20416233205E+03  0.41800000000E+01 0. -1.
         -5    1    3    3    0  502 -0.42550728513E+02 -0.96341938829E+01 -0.10525409875E+03  0.11401438459E+03  0.41800000000E+01 0. -1.
        -11    1    4    4    0    0 -0.28198201869E+02 -0.65638690794E+01  0.16765863130E+02  0.33456197220E+02  0.00000000000E+00 0.  1.
         11    1    4    4    0    0 -0.19876729684E+02  0.36607053365E+02 -0.73059850571E+02  0.84100549965E+02  0.00000000000E+00 0. -1.
</event>
<event>
 8    1  0.6689467E-009  0.6395536E+02  0.7561462E-02  0.1381945E+00
          2   -1    0    0  501    0  0.00000000000E+00  0.00000000000E+00  0.14120643514E+03  0.14120643514E+03  0.00000000000E+00 0. -1.
         -2   -1    0    0    0  501 -0.00000000000E+00 -0.00000000000E+00 -0.93485486242E+02  0.93485486242E+02  0.00000000000E+00 0.  1.
         25    2    1    2    0    0 -0.27368160334E+02 -0.25975684534E+02  0.24454530068E+02  0.13292532559E+03  0.12508943103E+03 0.  0.
         23    2    1    2    0    0  0.27368160334E+02  0.25975684534E+02  0.23266418831E+02  0.10176659579E+03  0.91604374277E+02 0.  0.
          5    1    3    3  502    0 -0.35045421894E+02 -0.20226096561E+02 -0.46167762864E+02  0.61532197309E+02  0.41800000000E+01 0.  1.
         -5    1    3    3    0  502  0.76772615604E+01 -0.57495879725E+01  0.70622292932E+02  0.71393128282E+02  0.41800000000E+01 0.  1.
        -11    1    4    4    0    0 -0.94247599226E+01  0.37142113309E+02  0.43784429703E+02  0.58184525134E+02  0.00000000000E+00 0. -1.
         11    1    4    4    0    0  0.36792920256E+02 -0.11166428776E+02 -0.20518010873E+02  0.43582070657E+02  0.00000000000E+00 0.  1.
</event>
<event>
 8    1  0.6689467E-009  0.1860969E+03  0.7561462E-02  0.1162030E+00
         -2   -1    0    0    0  501 -0.00000000000E+00  0.00000000000E+00  0.22358921334E+02  0.22358921334E+02  0.00000000000E+00 0. -1.
          2   -1    0    0  501    0  0.00000000000E+00 -0.00000000000E+00 -0.19088716567E+04  0.19088716567E+04  0.00000000000E+00 0.  1.
         25    2    1    2    0    0  0.10849041840E+03  0.13567737438E+03 -0.11016457174E+04  0.11222512335E+04  0.12508406653E+03 0.  0.
         23    2    1    2    0    0 -0.10849041840E+03 -0.13567737438E+03 -0.78486701805E+03  0.80897934458E+03  0.90845050132E+02 0.  0.
          5    1    3    3  502    0  0.29571484401E+02  0.67012152838E+02 -0.17565275070E+03  0.19035877323E+03  0.41800000000E+01 0. -1.
         -5    1    3    3    0  502  0.78918934002E+02  0.68665221545E+02 -0.92599296665E+03  0.93189246026E+03  0.41800000000E+01 0. -1.
        -11    1    4    4    0    0  0.13693807446E+02 -0.28441710150E+02 -0.17457921233E+03  0.17741012546E+03  0.00000000000E+00 0.  1.
         11    1    4    4    0    0 -0.12218422585E+03 -0.10723566423E+03 -0.61028780571E+03  0.63156921911E+03  0.00000000000E+00 0. -1.
</event>
<event>
 8    1  0.6689467E-009  0.7643382E+02  0.7561462E-02  0.1339488E+00
         -1   -1    0    0    0  501 -0.00000000000E+00  0.00000000000E+00  0.14880502485E+03  0.14880502485E+03  0.00000000000E+00 0.  1.
          1   -1    0    0  501    0  0.00000000000E+00 -0.00000000000E+00 -0.10787369013E+03  0.10787369013E+03  0.00000000000E+00 0. -1.
         25    2    1    2    0    0 -0.63759384514E+02 -0.23117471224E+01 -0.31027075376E+02  0.14380870154E+03  0.12509060694E+03 0.  0.
         23    2    1    2    0    0  0.63759384514E+02  0.23117471224E+01  0.71958410101E+02  0.11287001344E+03  0.59084886918E+02 0.  0.
          5    1    3    3  502    0 -0.17174122028E+01 -0.22197314512E+01 -0.70157844460E+02  0.70338270179E+02  0.41800000000E+01 0. -1.
         -5    1    3    3    0  502 -0.62041972312E+02 -0.92015671169E-01  0.39130769084E+02  0.73470431361E+02  0.41800000000E+01 0. -1.
        -11    1    4    4    0    0  0.61201062714E+02  0.22570620585E+02  0.62596476170E+02  0.90406425767E+02  0.00000000000E+00 0. -1.
         11    1    4    4    0    0  0.25583218000E+01 -0.20258873463E+02  0.93619339309E+01  0.22463587677E+02  0.00000000000E+00 0.  1.
</event>
<event>
 8    1  0.6689467E-009  0.1227504E+03  0.7561462E-02  0.1238627E+00
          1   -1    0    0  501    0  0.00000000000E+00  0.00000000000E+00  0.11458515779E+03  0.11458515779E+03  0.00000000000E+00 0. -1.
         -1   -1    0    0    0  501 -0.00000000000E+00 -0.00000000000E+00 -0.20628584289E+03  0.20628584289E+03  0.00000000000E+00 0.  1.
         25    2    1    2    0    0 -0.55139750375E+02 -0.93300289512E+02 -0.42590297073E+02  0.17090043241E+03  0.12509072028E+03 0.  0.
         23    2    1    2    0    0  0.55139750375E+02  0.93300289512E+02 -0.49110388023E+02  0.14997056826E+03  0.91290771928E+02 0.  0.
          5    1    3    3  502    0 -0.11521532572E+02 -0.32579458613E+02 -0.79963867292E+02  0.87211577836E+02  0.41800000000E+01 0.  1.
         -5    1    3    3    0  502 -0.43618217803E+02 -0.60720830899E+02  0.37373570219E+02  0.83688854577E+02  0.41800000000E+01 0.  1.
        -11    1    4    4    0    0  0.62424645903E+02  0.25193555993E+02 -0.45752381462E+02  0.81393071506E+02  0.00000000000E+00 0.  1.
         11    1    4    4    0    0 -0.72848955284E+01  0.68106733519E+02 -0.33580065611E+01  0.68577496758E+02  0.00000000000E+00 0. -1.
</event>
<event>
 8    1  0.6689467E-009  0.1132174E+03  0.7561462E-02  0.1254725E+00
          2   -1    0    0  501    0  0.00000000000E+00  0.00000000000E+00  0.35211222285E+03  0.35211222285E+03  0.00000000000E+00 0. -1.
         -2   -1    0    0    0  501 -0.00000000000E+00 -0.00000000000E+00 -0.63128471759E+02  0.63128471759E+02  0.00000000000E+00 0.  1.
         25    2    1    2    0    0 -0.67860136801E+02 -0.76832804193E+02  0.15945367808E+03  0.22711507218E+03  0.12508997798E+03 0.  0.
         23    2    1    2    0    0  0.67860136801E+02  0.76832804193E+02  0.12953007301E+03  0.18812562243E+03  0.90027396016E+02 0.  0.
          5    1    3    3  502    0 -0.64549211135E+02 -0.62115057640E+02  0.26880817503E+02  0.93621214441E+02  0.41800000000E+01 0. -1.
         -5    1    3    3    0  502 -0.33109256665E+01 -0.14717746553E+02  0.13257286058E+03  0.13349385774E+03  0.41800000000E+01 0. -1.
        -11    1    4    4    0    0  0.79649065685E+02  0.74547845314E+02  0.75239744496E+02  0.13252310763E+03  0.00000000000E+00 0.  1.
         11    1    4    4    0    0 -0.11788928883E+02  0.22849588784E+01  0.54290328512E+02  0.55602514792E+02  0.00000000000E+00 0. -1.
</event>
<event>
 8    1  0.6689467E-009  0.1091695E+03  0.7561462E-02  0.1262116E+00
          1   -1    0    0  501    0  0.00000000000E+00  0.00000000000E+00  0.24613683582E+03  0.24613683582E+03  0.00000000000E+00 0. -1.
         -1   -1    0    0    0  501 -0.00000000000E+00 -0.00000000000E+00 -0.72595874862E+02  0.72595874862E+02  0.00000000000E+00 0.  1.
         25    2    1    2    0    0 -0.70462738188E+02 -0.40901015389E+02  0.12646401776E+03  0.19564800663E+03  0.12508838546E+03 0.  0.
         23    2    1    2    0    0  0.70462738188E+02  0.40901015389E+02  0.47076943206E+02  0.12308470406E+03  0.79345543405E+02 0.  0.
          5    1    3    3  502    0 -0.40190993514E+02 -0.75081326780E+02  0.32783759408E+02  0.91349706467E+02  0.41800000000E+01 0. -1.
         -5    1    3    3    0  502 -0.30271744674E+02  0.34180311391E+02  0.93680258347E+02  0.10429830016E+03  0.41800000000E+01 0. -1.
        -11    1    4    4    0    0  0.93704161568E+01  0.20963252090E+02 -0.19811680654E+02  0.30327633067E+02  0.00000000000E+00 0.  1.
         11    1    4    4    0    0  0.61092322031E+02  0.19937763300E+02  0.66888623860E+02  0.92757070989E+02  0.00000000000E+00 0. -1.
</event>
<event>
 8    1  0.6689467E-009  0.1442312E+03  0.7561462E-02  0.1207746E+00
         -1   -1    0    0    0  501 -0.00000000000E+00  0.00000000000E+00  0.95056553977E+02  0.95056553977E+02  0.00000000000E+00 0.  1.
          1   -1    0    0  501    0  0.00000000000E+00 -0.00000000000E+00 -0.25757017419E+03  0.25757017419E+03  0.00000000000E+00 0. -1.
         25    2    1    2    0    0  0.78201918366E+02 -0.69442199426E+02 -0.40841739072E+02  0.16808204019E+03  0.12508303437E+03 0.  0.
         23    2    1    2    0    0 -0.78201918366E+02  0.69442199426E+02 -0.12167188114E+03  0.18454468798E+03  0.91186271455E+02 0.  0.
          5    1    3    3  502    0  0.91305800001E+02 -0.95598471321E+01 -0.52064955789E+02  0.10562372751E+03  0.41800000000E+01 0. -1.
         -5    1    3    3    0  502 -0.13103881635E+02 -0.59882352294E+02  0.11223216717E+02  0.62458312686E+02  0.41800000000E+01 0. -1.
        -11    1    4    4    0    0 -0.60916934300E+02  0.89738628876E+02 -0.78818237108E+02  0.13407538513E+03  0.00000000000E+00 0.  1.
         11    1    4    4    0    0 -0.17284984067E+02 -0.20296429450E+02 -0.42853644035E+02  0.50469302846E+02  0.00000000000E+00 0. -1.
</event>
<event>
 8    1  0.6689467E-009  0.1348833E+03  0.7561462E-02  0.1220384E+00
          2   -1    0    0  501    0  0.00000000000E+00  0.00000000000E+00  0.48681260121E+03  0.48681260121E+03  0.00000000000E+00 0. -1.
         -2   -1    0    0    0  501 -0.00000000000E+00 -0.00000000000E+00 -0.50144587421E+02  0.50144587421E+02  0.00000000000E+00 0.  1.
         25    2    1    2    0    0 -0.75006290579E+02  0.23792011018E+02  0.11088873913E+03  0.18475748951E+03  0.12508802520E+03 0.  0.
         23    2    1    2    0    0  0.75006290579E+02 -0.23792011018E+02  0.32577927466E+03  0.35219969912E+03  0.10826120658E+03 0.  0.
          5    1    3    3  502    0 -0.10257340666E+03 -0.39896191969E+01  0.55385117903E+02  0.11671420008E+03  0.41800000000E+01 0. -1.
         -5    1    3    3    0  502  0.27567116084E+02  0.27781630215E+02  0.55503621225E+02  0.68043289424E+02  0.41800000000E+01 0. -1.
        -11    1    4    4    0    0 -0.23633162230E+02 -0.16376115317E+02  0.36431402309E+02  0.46410673170E+02  0.00000000000E+00 0.  1.
         11    1    4    4    0    0  0.98639452810E+02 -0.74158957012E+01  0.28934787235E+03  0.30578902595E+03  0.00000000000E+00 0. -1.
</event>
<event>
 8    1  0.6689467E-009  0.2217524E+03  0.7561462E-02  0.1132583E+00
          1   -1    0    0  501    0  0.00000000000E+00  0.00000000000E+00  0.91363174091E+02  0.91363174091E+02  0.00000000000E+00 0. -1.
         -1   -1    0    0    0  501 -0.00000000000E+00 -0.00000000000E+00 -0.61713528376E+03  0.61713528376E+03  0.00000000000E+00 0.  1.
         25    2    1    2    0    0  0.20532796872E+03  0.18234071699E+02 -0.20557641827E+03  0.31686128961E+03  0.12508939603E+03 0.  0.
         23    2    1    2    0    0 -0.20532796872E+03 -0.18234071699E+02 -0.32019569140E+03  0.39163716824E+03  0.91445801682E+02 0.  0.
          5    1    3    3  502    0  0.72864859154E+02  0.41449868354E+02 -0.14876978859E+03  0.17081364607E+03  0.41800000000E+01 0.  1.
         -5    1    3    3    0  502  0.13246310956E+03 -0.23215796655E+02 -0.56806629672E+02  0.14604764354E+03  0.41800000000E+01 0.  1.
        -11    1    4    4    0    0 -0.11100838670E+03  0.35406687049E+02 -0.15294441527E+03  0.19227191570E+03  0.00000000000E+00 0.  1.
         11    1    4    4    0    0 -0.94319582013E+02 -0.53640758748E+02 -0.16725127613E+03  0.19936525253E+03  0.00000000000E+00 0. -1.
</event>
<event>
 8    1  0.6689467E-009  0.1760205E+03  0.7561462E-02  0.1171711E+00
         -1   -1    0    0    0  501 -0.00000000000E+00  0.00000000000E+00  0.18682596956E+02  0.18682596956E+02  0.00000000000E+00 0.  1.
          1   -1    0    0  501    0  0.00000000000E+00 -0.00000000000E+00 -0.27569437852E+04  0.27569437852E+04  0.00000000000E+00 0. -1.
         25    2    1    2    0    0 -0.50163622994E+02  0.15816529516E+03 -0.20831654178E+04  0.20935037272E+04  0.12508816170E+03 0.  0.
         23    2    1    2    0    0  0.50163622994E+02 -0.15816529516E+03 -0.65509577044E+03  0.68212265496E+03  0.92780376663E+02 0.  0.
          5    1    3    3  502    0 -0.39602703699E+02  0.70010115413E+02 -0.16130448108E+04  0.16150544339E+04  0.41800000000E+01 0. -1.
         -5    1    3    3    0  502 -0.10560919295E+02  0.88155179745E+02 -0.47012060701E+03  0.47844929331E+03  0.41800000000E+01 0. -1.
        -11    1    4    4    0    0  0.66524094383E+02 -0.86597889096E+02 -0.29365618799E+03  0.31330273902E+03  0.00000000000E+00 0.  1.
         11    1    4    4    0    0 -0.16360471389E+02 -0.71567406062E+02 -0.36143958245E+03  0.36881991594E+03  0.00000000000E+00 0. -1.
</event>
<event>
 8    1  0.6689467E-009  0.1179416E+03  0.7561462E-02  0.1246532E+00
          1   -1    0    0  501    0  0.00000000000E+00  0.00000000000E+00  0.48783044935E+03  0.48783044935E+03  0.00000000000E+00 0. -1.
         -1   -1    0    0    0  501 -0.00000000000E+00 -0.00000000000E+00 -0.30235090976E+02  0.30235090976E+02  0.00000000000E+00 0.  1.
         25    2    1    2    0    0 -0.24149501670E+02 -0.33530046163E+02  0.19410259763E+03  0.23458013948E+03  0.12507821955E+03 0.  0.
         23    2    1    2    0    0  0.24149501670E+02  0.33530046163E+02  0.26349276074E+03  0.28348540084E+03  0.96062870569E+02 0.  0.
          5    1    3    3  502    0  0.42452986207E+02 -0.46744865338E+02  0.10285299098E+03  0.12076236428E+03  0.41800000000E+01 0.  1.
         -5    1    3    3    0  502 -0.66602487877E+02  0.13214819175E+02  0.91249606652E+02  0.11381777520E+03  0.41800000000E+01 0.  1.
        -11    1    4    4    0    0 -0.16416395431E+02  0.55889251346E+02  0.14572442261E+03  0.15693538097E+03  0.00000000000E+00 0.  1.
         11    1    4    4    0    0  0.40565897101E+02 -0.22359205183E+02  0.11776833813E+03  0.12655001987E+03  0.00000000000E+00 0. -1.
</event>
<event>
 8    1  0.6689467E-009  0.8781650E+02  0.7561462E-02  0.1308227E+00
         -1   -1    0    0    0  501 -0.00000000000E+00  0.00000000000E+00  0.32726995012E+03  0.32726995012E+03  0.00000000000E+00 0.  1.
          1   -1    0    0  501    0  0.00000000000E+00 -0.00000000000E+00 -0.52748696062E+02  0.52748696062E+02  0.00000000000E+00 0. -1.
         25    2    1    2    0    0  0.68515570335E+02 -0.19528078270E+02  0.17881552059E+03  0.22956496544E+03  0.12509737701E+03 0.  0.
         23    2    1    2    0    0 -0.68515570335E+02  0.19528078270E+02  0.95705733467E+02  0.15045368074E+03  0.91656933233E+02 0.  0.
          5    1    3    3  502    0  0.39098917905E+02 -0.99775533634E+01  0.19159332337E+03  0.19584113692E+03  0.41800000000E+01 0. -1.
         -5    1    3    3    0  502  0.29416652429E+02 -0.95505249066E+01 -0.12777802779E+02  0.33723828519E+02  0.41800000000E+01 0. -1.
        -11    1    4    4    0    0 -0.57410929796E+02  0.47018333937E+02  0.95323575012E+02  0.12080282505E+03  0.00000000000E+00 0.  1.
         11    1    4    4    0    0 -0.11104640539E+02 -0.27490255667E+02  0.38215845569E+00  0.29650855691E+02  0.00000000000E+00 0. -1.
</event>
<event>
 8    1  0.6689467E-009  0.1395161E+03  0.7561462E-02  0.1213982E+00
         -2   -1    0    0    0  501 -0.00000000000E+00  0.00000000000E+00  0.80905662785E+02  0.80905662785E+02  0.00000000000E+00 0. -1.
          2   -1    0    0  501    0  0.00000000000E+00 -0.00000000000E+00 -0.32974730229E+03  0.32974730229E+03  0.00000000000E+00 0.  1.
         25    2    1    2    0    0  0.36289812843E+02  0.10752756925E+03 -0.18833224217E+03  0.25297335468E+03  0.12508939233E+03 0.  0.
         23    2    1    2    0    0 -0.36289812843E+02 -0.10752756925E+03 -0.60509397337E+02  0.15767961039E+03  0.91226880373E+02 0.  0.
          5    1    3    3  502    0  0.70018097276E+02  0.11102419227E+03 -0.16791852631E+03  0.21317365948E+03  0.41800000000E+01 0. -1.
         -5    1    3    3    0  502 -0.33728284433E+02 -0.34966230200E+01 -0.20413715855E+02  0.39799695204E+02  0.41800000000E+01 0. -1.
        -11    1    4    4    0    0 -0.54899200357E+01 -0.20573076742E+02 -0.61859481540E+02  0.65421603198E+02  0.00000000000E+00 0.  1.
         11    1    4    4    0    0 -0.30799892808E+02 -0.86954492509E+02  0.13500842023E+01  0.92258007196E+02  0.00000000000E+00 0. -1.
</event>
<event>
 8    1  0.6689467E-009  0.1921121E+03  0.7561462E-02  0.1156570E+00
         -2   -1    0    0    0  501 -0.00000000000E+00  0.00000000000E+00  0.16052424199E+03  0.16052424199E+03  0.00000000000E+00 0.  1.
          2   -1    0    0  501    0  0.00000000000E+00 -0.00000000000E+00 -0.25332133184E+03  0.25332133184E+03  0.00000000000E+00 0. -1.
         25    2    1    2    0    0 -0.15496590437E+03  0.42541439171E+02 -0.10025216032E+03  0.22698595293E+03  0.12509165286E+03 0.  0.
         23    2    1    2    0    0  0.15496590437E+03 -0.42541439171E+02  0.74550704682E+01  0.18685962090E+03  0.95061739324E+02 0.  0.
          5    1    3    3  502    0 -0.16651209210E+03  0.13806792594E+02 -0.63616082476E+02  0.17883339365E+03  0.41800000000E+01 0.  1.
         -5    1    3    3    0  502  0.11546187728E+02  0.28734646577E+02 -0.36636077844E+02  0.48152559275E+02  0.41800000000E+01 0.  1.
        -11    1    4    4    0    0  0.11409712921E+03  0.15193185939E+02  0.13364315155E+02  0.11587749010E+03  0.00000000000E+00 0.  1.
         11    1    4    4    0    0  0.40868775158E+02 -0.57734625110E+02 -0.59092446870E+01  0.70982130796E+02  0.00000000000E+00 0. -1.
</event>
<event>
 8    1  0.6689467E-009  0.1067441E+03  0.7561462E-02  0.1266721E+00
          1   -1    0    0  501    0  0.00000000000E+00  0.00000000000E+00  0.11420309743E+03  0.11420309743E+03  0.00000000000E+00 0. -1.
         -1   -1    0    0    0  501 -0.00000000000E+00 -0.00000000000E+00 -0.14615778005E+03  0.14615778005E+03  0.00000000000E+00 0.  1.
         25    2    1    2    0    0  0.39176509643E+02  0.47629556634E+02 -0.43068767909E+02  0.14596605364E+03  0.12509115266E+03 0.  0.
         23    2    1    2    0    0 -0.39176509643E+02 -0.47629556634E+02  0.11114085282E+02  0.11439482384E+03  0.95704123505E+02 0.  0.
          5    1    3    3  502    0 -0.14708802481E+01  0.78751242053E+02 -0.51094571219E+02  0.93978982873E+02  0.41800000000E+01 0. -1.
         -5    1    3    3    0  502  0.40647389891E+02 -0.31121685419E+02  0.80258033103E+01  0.51987070768E+02  0.41800000000E+01 0. -1.
        -11    1    4    4    0    0 -0.48935172513E+02 -0.18144901059E+02  0.44651839103E+02  0.68685335251E+02  0.00000000000E+00 0.  1.
         11    1    4    4    0    0  0.97586628696E+01 -0.29484655575E+02 -0.33537753821E+02  0.45709488585E+02  0.00000000000E+00 0. -1.
</event>
<event>
 8    1  0.6689467E-009  0.1045434E+03  0.7561462E-02  0.1271022E+00
         -1   -1    0    0    0  501 -0.00000000000E+00  0.00000000000E+00  0.21071180011E+02  0.21071180011E+02  0.00000000000E+00 0.  1.
          1   -1    0    0  501    0  0.00000000000E+00 -0.00000000000E+00 -0.92636383652E+03  0.92636383652E+03  0.00000000000E+00 0. -1.
         25    2    1    2    0    0 -0.60172021686E+02  0.21945232459E+02 -0.41506234265E+03  0.43820778012E+03  0.12508814832E+03 0.  0.
         23    2    1    2    0    0  0.60172021686E+02 -0.21945232459E+02 -0.49023031385E+03  0.50922723640E+03  0.12200144365E+03 0.  0.
          5    1    3    3  502    0 -0.12064710887E+02  0.26320151232E+02 -0.37262899516E+03  0.37377553163E+03  0.41800000000E+01 0.  1.
         -5    1    3    3    0  502 -0.48107310800E+02 -0.43749187723E+01 -0.42433347492E+02  0.64432248494E+02  0.41800000000E+01 0.  1.
        -11    1    4    4    0    0  0.88296490444E+02  0.99121857819E+01 -0.25124497487E+03  0.26649307505E+03  0.00000000000E+00 0.  1.
         11    1    4    4    0    0 -0.28124468757E+02 -0.31857418241E+02 -0.23898533898E+03  0.24273416136E+03  0.00000000000E+00 0. -1.
</event>
<event>
 8    1  0.6689467E-009  0.9537099E+02  0.7561462E-02  0.1290343E+00
          4   -1    0    0  501    0  0.00000000000E+00  0.00000000000E+00  0.28241976808E+03  0.28241976808E+03  0.00000000000E+00 0. -1.
         -4   -1    0    0    0  501 -0.00000000000E+00 -0.00000000000E+00 -0.52224860469E+02  0.52224860469E+02  0.00000000000E+00 0.  1.
         25    2    1    2    0    0  0.28437720436E+02  0.59944401862E+01  0.64875447953E+02  0.14387665109E+03  0.12508808786E+03 0.  0.
         23    2    1    2    0    0 -0.28437720436E+02 -0.59944401862E+01  0.16531945965E+03  0.19076797746E+03  0.90649104937E+02 0.  0.
          5    1    3    3  502    0  0.31198495231E+02  0.45765124294E+02 -0.12319265543E+02  0.56894897924E+02  0.41800000000E+01 0.  1.
         -5    1    3    3    0  502 -0.27607747948E+01 -0.39770684107E+02  0.77194713496E+02  0.86981753165E+02  0.41800000000E+01 0.  1.
        -11    1    4    4    0    0 -0.51389802184E+02  0.24511240403E+02  0.95052260563E+02  0.11080002217E+03  0.00000000000E+00 0.  1.
         11    1    4    4    0    0  0.22952081748E+02 -0.30505680589E+02  0.70267199089E+02  0.79967955286E+02  0.00000000000E+00 0. -1.
</event>
<event>
 8    1  0.6689467E-009  0.1616635E+03  0.7561462E-02  0.1186831E+00
         -2   -1    0    0    0  501 -0.00000000000E+00  0.00000000000E+00  0.83241630975E+02  0.83241630975E+02  0.00000000000E+00 0.  1.
          2   -1    0    0  501    0  0.00000000000E+00 -0.00000000000E+00 -0.38920532994E+03  0.38920532994E+03  0.00000000000E+00 0. -1.
         25    2    1    2    0    0 -0.29243893246E+01 -0.13923022673E+03 -0.20811878363E+03  0.27991855922E+03  0.12508942243E+03 0.  0.
         23    2    1    2    0    0  0.29243893246E+01  0.13923022673E+03 -0.97844915329E+02  0.19252840169E+03  0.89999721743E+02 0.  0.
          5    1    3    3  502    0  0.32248686883E+02 -0.12420872234E+03 -0.92992331979E+02  0.15853337415E+03  0.41800000000E+01 0. -1.
         -5    1    3    3    0  502 -0.35173076207E+02 -0.15021504393E+02 -0.11512645165E+03  0.12138518507E+03  0.41800000000E+01 0. -1.
        -11    1    4    4    0    0 -0.33974864413E+02  0.76002029040E+02 -0.19901408354E+02  0.85595945491E+02  0.00000000000E+00 0.  1.
         11    1    4    4    0    0  0.36899253738E+02  0.63228197695E+02 -0.77943506975E+02  0.10693245620E+03  0.00000000000E+00 0. -1.
</event>
<event>
 8    1  0.6689467E-009  0.8995918E+02  0.7561462E-02  0.1302951E+00
          2   -1    0    0  501    0  0.00000000000E+00  0.00000000000E+00  0.12241846902E+04  0.12241846902E+04  0.00000000000E+00 0. -1.
         -2   -1    0    0    0  501 -0.00000000000E+00 -0.00000000000E+00 -0.12928889246E+02  0.12928889246E+02  0.00000000000E+00 0.  1.
         25    2    1    2    0    0  0.25258248036E+02 -0.52307738299E+02  0.82018427803E+03  0.83170633045E+03  0.12513629207E+03 0.  0.
         23    2    1    2    0    0 -0.25258248036E+02  0.52307738299E+02  0.39107152297E+03  0.40540724905E+03  0.89688477087E+02 0.  0.
          5    1    3    3  502    0  0.43439108447E+02 -0.31754429011E+02  0.12732270254E+03  0.13828898325E+03  0.41800000000E+01 0. -1.
         -5    1    3    3    0  502 -0.18180860411E+02 -0.20553309288E+02  0.69286157549E+03  0.69341734720E+03  0.41800000000E+01 0. -1.
        -11    1    4    4    0    0  0.12106655866E+02 -0.16159645091E+02  0.31083775259E+02  0.37066242460E+02  0.00000000000E+00 0.  1.
         11    1    4    4    0    0 -0.37364903902E+02  0.68467383390E+02  0.35998774771E+03  0.36834100659E+03  0.00000000000E+00 0. -1.
</event>
<event>
 7    1  0.6689467E-009  0.9243182E+02  0.7561462E-02  0.1297067E+00
         -2   -1    0    0    0  501 -0.00000000000E+00  0.00000000000E+00  0.19885301026E+03  0.19885301026E+03  0.00000000000E+00 0.  1.
          2   -1    0    0  501    0  0.00000000000E+00 -0.00000000000E+00 -0.88786483353E+02  0.88786483353E+02  0.00000000000E+00 0. -1.
         23    2    1    2    0    0  0.33594670075E+02 -0.69069575732E+00  0.12457884612E+03  0.15746385921E+03  0.90254634994E+02 0.  0.
          5    1    1    2  502    0 -0.42295572424E+02 -0.56749837026E+02 -0.11718049321E+02  0.71862678277E+02  0.41800000000E+01 0.  1.
         -5    1    1    2    0  502  0.87009023494E+01  0.57440532784E+02 -0.27942698936E+01  0.58312956128E+02  0.41800000000E+01 0.  1.
        -11    1    3    3    0    0  0.18361830560E+02 -0.22545752983E+02 -0.99638606193E+00  0.29093995674E+02  0.00000000000E+00 0. -1.
         11    1    3    3    0    0  0.15232839515E+02  0.21855057226E+02  0.12557523218E+03  0.12836986354E+03  0.00000000000E+00 0.  1.
</event>
<event>
 8    1  0.6689467E-009  0.1192143E+03  0.7561462E-02  0.1244399E+00
         -2   -1    0    0    0  501 -0.00000000000E+00  0.00000000000E+00  0.30062744200E+03  0.30062744200E+03  0.00000000000E+00 0.  1.
          2   -1    0    0  501    0  0.00000000000E+00 -0.00000000000E+00 -0.70082946618E+02  0.70082946618E+02  0.00000000000E+00 0. -1.
         25    2    1    2    0    0 -0.76870167280E+02 -0.84793049933E+00  0.20078760097E+03  0.24874239134E+03  0.12508946776E+03 0.  0.
         23    2    1    2    0    0  0.76870167280E+02  0.84793049933E+00  0.29756894411E+02  0.12196799727E+03  0.89894260047E+02 0.  0.
          5    1    3    3  502    0 -0.38551878415E+01 -0.51314156130E+02  0.11100441013E+03  0.12242326806E+03  0.41800000000E+01 0. -1.
         -5    1    3    3    0  502 -0.73014979439E+02  0.50466225631E+02  0.89783190835E+02  0.12631912329E+03  0.41800000000E+01 0. -1.
        -11    1    4    4    0    0 -0.10030863240E+02 -0.42482748233E+01  0.33107112608E+02  0.34853220246E+02  0.00000000000E+00 0.  1.
         11    1    4    4    0    0  0.86901030520E+02  0.50962053226E+01 -0.33502181971E+01  0.87114777025E+02  0.00000000000E+00 0. -1.
</event>
<event>
 8    1  0.6689467E-009  0.1162504E+03  0.7561462E-02  0.1249414E+00
          2   -1    0    0  501    0  0.00000000000E+00  0.00000000000E+00  0.26585408023E+03  0.26585408023E+03  0.00000000000E+00 0. -1.
         -2   -1    0    0    0  501 -0.00000000000E+00 -0.00000000000E+00 -0.60705760928E+02  0.60705760928E+02  0.00000000000E+00 0.  1.
         25    2    1    2    0    0  0.29373403678E+02  0.57474042306E+02  0.98352627992E+02  0.17171873348E+03  0.12509205255E+03 0.  0.
         23    2    1    2    0    0 -0.29373403678E+02 -0.57474042306E+02  0.10679569131E+03  0.15484110769E+03  0.91675441442E+02 0.  0.
          5    1    3    3  502    0 -0.24517734641E+02  0.68414000229E+02  0.90295589542E+02  0.11598431200E+03  0.41800000000E+01 0.  1.
         -5    1    3    3    0  502  0.53891138319E+02 -0.10939957923E+02  0.80570384503E+01  0.55734421476E+02  0.41800000000E+01 0.  1.
        -11    1    4    4    0    0 -0.49137248753E+02 -0.61022159840E+01  0.23027439116E+02  0.54607409819E+02  0.00000000000E+00 0.  1.
         11    1    4    4    0    0  0.19763845074E+02 -0.51371826322E+02  0.83768252197E+02  0.10023369787E+03  0.00000000000E+00 0. -1.
</event>
<event>
 8    1  0.6689467E-009  0.8882530E+02  0.7561462E-02  0.1305722E+00
         -2   -1    0    0    0  501 -0.00000000000E+00  0.00000000000E+00  0.35439277687E+03  0.35439277687E+03  0.00000000000E+00 0.  1.
          2   -1    0    0  501    0  0.00000000000E+00 -0.00000000000E+00 -0.39169868682E+02  0.39169868682E+02  0.00000000000E+00 0. -1.
         25    2    1    2    0    0  0.27005787640E+02  0.36330539331E+01  0.11859587613E+03  0.17451472216E+03  0.12509154555E+03 0.  0.
         23    2    1    2    0    0 -0.27005787640E+02 -0.36330539331E+01  0.19662703206E+03  0.21904792340E+03  0.92613667252E+02 0.  0.
          5    1    3    3  502    0 -0.47966428056E+02  0.11273701483E+02  0.28853447545E+02  0.57252671561E+02  0.41800000000E+01 0.  1.
         -5    1    3    3    0  502  0.74972215696E+02 -0.76406475503E+01  0.89742428585E+02  0.11726205059E+03  0.41800000000E+01 0.  1.
        -11    1    4    4    0    0 -0.35002315097E+02 -0.15607821053E+02  0.20050561480E+03  0.20413541512E+03  0.00000000000E+00 0.  1.
         11    1    4    4    0    0  0.79965274571E+01  0.11974767120E+02 -0.38785827438E+01  0.14912508275E+02  0.00000000000E+00 0. -1.
</event>
<event>
 8    1  0.6689467E-009  0.1077594E+03  0.7561462E-02  0.1264776E+00
         -1   -1    0    0    0  501 -0.00000000000E+00  0.00000000000E+00  0.81066464088E+02  0.81066464088E+02  0.00000000000E+00 0.  1.
          1   -1    0    0  501    0  0.00000000000E+00 -0.00000000000E+00 -0.25289114995E+03  0.25289114995E+03  0.00000000000E+00 0. -1.
         25    2    1    2    0    0 -0.29188501959E+02 -0.87992289544E+02 -0.86381636719E+02  0.17805696342E+03  0.12509150008E+03 0.  0.
         23    2    1    2    0    0  0.29188501959E+02  0.87992289544E+02 -0.85443049142E+02  0.15590065062E+03  0.91705433600E+02 0.  0.
          5    1    3    3  502    0  0.16062909128E+02 -0.46190403300E+02 -0.10301474530E+03  0.11410994941E+03  0.41800000000E+01 0.  1.
         -5    1    3    3    0  502 -0.45251411087E+02 -0.41801886244E+02  0.16633108577E+02  0.63947014003E+02  0.41800000000E+01 0.  1.
        -11    1    4    4    0    0  0.25978552332E+02  0.11974771729E+02 -0.73517259145E+02  0.78886422985E+02  0.00000000000E+00 0.  1.
         11    1    4    4    0    0  0.32099496269E+01  0.76017517814E+02 -0.11925789997E+02  0.77014227636E+02  0.00000000000E+00 0. -1.
</event>
<event>
 8    1  0.6689467E-009  0.1200228E+03  0.7561462E-02  0.1243059E+00
         -1   -1    0    0    0  501 -0.00000000000E+00  0.00000000000E+00  0.43828906610E+03  0.43828906610E+03  0.00000000000E+00 0.  1.
          1   -1    0    0  501    0  0.00000000000E+00 -0.00000000000E+00 -0.51818396281E+02  0.51818396281E+02  0.00000000000E+00 0. -1.
         25    2    1    2    0    0 -0.43313241491E+02 -0.83925411192E+02  0.27949369865E+03  0.32044289378E+03  0.12508960411E+03 0.  0.
         23    2    1    2    0    0  0.43313241491E+02  0.83925411192E+02  0.10697697117E+03  0.16966456861E+03  0.91774081015E+02 0.  0.
          5    1    3    3  502    0  0.16276082683E+02 -0.22701027812E+02  0.20523189395E+03  0.20716623814E+03  0.41800000000E+01 0.  1.
         -5    1    3    3    0  502 -0.59589324173E+02 -0.61224383380E+02  0.74261804699E+02  0.11327665564E+03  0.41800000000E+01 0.  1.
        -11    1    4    4    0    0 -0.10966530691E+01  0.81795241907E+02  0.44920884577E+02  0.93324970494E+02  0.00000000000E+00 0.  1.
         11    1    4    4    0    0  0.44409894560E+02  0.21301692853E+01  0.62056086597E+02  0.76339598111E+02  0.00000000000E+00 0. -1.
</event>
<event>
 8    1  0.6689467E-009  0.3221749E+03  0.7561462E-02  0.1074653E+00
          1   -1    0    0  501    0  0.00000000000E+00  0.00000000000E+00  0.86175910732E+03  0.86175910732E+03  0.00000000000E+00 0. -1.
         -1   -1    0    0    0  501 -0.00000000000E+00 -0.00000000000E+00 -0.23583156053E+03  0.23583156053E+03  0.00000000000E+00 0.  1.
         25    2    1    2    0    0 -0.99899897661E+02 -0.28974034306E+03 -0.64210514894E+02  0.33719395125E+03  0.12508922650E+03 0.  0.
         23    2    1    2    0    0  0.99899897661E+02  0.28974034306E+03  0.69013806169E+03  0.76039671660E+03  0.89348567281E+02 0.  0.
          5    1    3    3  502    0 -0.11579197467E+03 -0.17934429077E+03 -0.11676880649E+02  0.21383633454E+03  0.41800000000E+01 0. -1.
         -5    1    3    3    0  502  0.15892077005E+02 -0.11039605229E+03 -0.52533634246E+02  0.12335761671E+03  0.41800000000E+01 0. -1.
        -11    1    4    4    0    0  0.18106730927E+01  0.14122179578E+03  0.30929738941E+03  0.34001727785E+03  0.00000000000E+00 0.  1.
         11    1    4    4    0    0  0.98089224568E+02  0.14851854729E+03  0.38084067228E+03  0.42037943875E+03  0.00000000000E+00 0. -1.
</event>
<event>
 8    1  0.6689467E-009  0.1642773E+03  0.7561462E-02  0.1183951E+00
         -1   -1    0    0    0  501 -0.00000000000E+00  0.00000000000E+00  0.94754148470E+03  0.94754148470E+03  0.00000000000E+00 0.  1.
          1   -1    0    0  501    0  0.00000000000E+00 -0.00000000000E+00 -0.34474143489E+02  0.34474143489E+02  0.00000000000E+00 0. -1.
         25    2    1    2    0    0  0.44818241169E+02 -0.13824960662E+03  0.47662005676E+03  0.51374662024E+03  0.12508909957E+03 0.  0.
         23    2    1    2    0    0 -0.44818241169E+02  0.13824960662E+03  0.43644728445E+03  0.46826900795E+03  0.87567135546E+02 0.  0.
          5    1    3    3  502    0  0.30358348541E+02 -0.15199388531E+03  0.31762095547E+03  0.35344633857E+03  0.41800000000E+01 0.  1.
         -5    1    3    3    0  502  0.14459892628E+02  0.13744278686E+02  0.15899910130E+03  0.16030028167E+03  0.41800000000E+01 0.  1.
        -11    1    4    4    0    0 -0.54959889597E+02  0.10740166163E+03  0.40674702239E+03  0.42426270943E+03  0.00000000000E+00 0.  1.
         11    1    4    4    0    0  0.10141648428E+02  0.30847944994E+02  0.29700262056E+02  0.44006298519E+02  0.00000000000E+00 0. -1.
</event>
<event>
 8    1  0.6689467E-009  0.2378692E+03  0.7561462E-02  0.1121220E+00
          1   -1    0    0  501    0  0.00000000000E+00  0.00000000000E+00  0.53619839292E+02  0.53619839292E+02  0.00000000000E+00 0. -1.
         -1   -1    0    0    0  501 -0.00000000000E+00 -0.00000000000E+00 -0.11411748128E+04  0.11411748128E+04  0.00000000000E+00 0.  1.
         25    2    1    2    0    0  0.19194323278E+03 -0.10010271692E+03 -0.44359304458E+03  0.50920046480E+03  0.12509022987E+03 0.  0.
         23    2    1    2    0    0 -0.19194323278E+03  0.10010271692E+03 -0.64396192890E+03  0.68559418726E+03  0.92139379144E+02 0.  0.
          5    1    3    3  502    0  0.50895549922E+02  0.20870245038E+02 -0.16768803910E+03  0.17652953007E+03  0.41800000000E+01 0. -1.
         -5    1    3    3    0  502  0.14104768286E+03 -0.12097296196E+03 -0.27590500548E+03  0.33267093473E+03  0.41800000000E+01 0. -1.
        -11    1    4    4    0    0 -0.17961628348E+03  0.54851787851E+02 -0.49532220766E+03  0.52973089142E+03  0.00000000000E+00 0. -1.
         11    1    4    4    0    0 -0.12326949299E+02  0.45250929069E+02 -0.14863972124E+03  0.15586329584E+03  0.00000000000E+00 0.  1.
</event>
<event>
 8    1  0.6689467E-009  0.1057432E+03  0.7561462E-02  0.1268662E+00
         -2   -1    0    0    0  501 -0.00000000000E+00  0.00000000000E+00  0.12256703182E+02  0.12256703182E+02  0.00000000000E+00 0.  1.
          2   -1    0    0  501    0  0.00000000000E+00 -0.00000000000E+00 -0.15150688264E+04  0.15150688264E+04  0.00000000000E+00 0. -1.
         25    2    1    2    0    0 -0.25532435285E+02  0.29648289587E+02 -0.12804896055E+04  0.12871797505E+04  0.12508858383E+03 0.  0.
         23    2    1    2    0    0  0.25532435285E+02 -0.29648289587E+02 -0.22232251773E+03  0.24014577916E+03  0.81925374775E+02 0.  0.
          5    1    3    3  502    0 -0.62540832291E+02  0.56226902065E+02 -0.74670508609E+03  0.75143780728E+03  0.41800000000E+01 0.  1.
         -5    1    3    3    0  502  0.37008397006E+02 -0.26578612478E+02 -0.53378451944E+03  0.53574194318E+03  0.41800000000E+01 0.  1.
        -11    1    4    4    0    0 -0.19055119717E+02  0.10300916223E+02 -0.11708405485E+03  0.11907091317E+03  0.00000000000E+00 0. -1.
         11    1    4    4    0    0  0.44587555002E+02 -0.39949205810E+02 -0.10523846288E+03  0.12107486599E+03  0.00000000000E+00 0.  1.
</event>
<event>
 8    1  0.6689467E-009  0.1581366E+03  0.7561462E-02  0.1190817E+00
         -2   -1    0    0    0  501 -0.00000000000E+00  0.00000000000E+00  0.17824048382E+03  0.17824048382E+03  0.00000000000E+00 0.  1.
          2   -1    0    0  501    0  0.00000000000E+00 -0.00000000000E+00 -0.31195864674E+03  0.31195864674E+03  0.00000000000E+00 0. -1.
         25    2    1    2    0    0 -0.55279548038E+02  0.11300469687E+03  0.10449962395E+03  0.20589852816E+03  0.12509253593E+03 0.  0.
         23    2    1    2    0    0  0.55279548038E+02 -0.11300469687E+03 -0.23821778687E+03  0.28430060240E+03  0.90847281720E+02 0.  0.
          5    1    3    3  502    0  0.36183321786E+02  0.79423611597E+01  0.30152894969E+02  0.47947714766E+02  0.41800000000E+01 0.  1.
         -5    1    3    3    0  502 -0.91462869824E+02  0.10506233571E+03  0.74346728981E+02  0.15795081339E+03  0.41800000000E+01 0.  1.
        -11    1    4    4    0    0  0.68431883245E+02 -0.99701792583E+02 -0.14306254348E+03  0.18732394785E+03  0.00000000000E+00 0.  1.
         11    1    4    4    0    0 -0.13152335206E+02 -0.13302904288E+02 -0.95155243389E+02  0.96976654553E+02  0.00000000000E+00 0. -1.
</event>
<event>
 8    1  0.6689467E-009  0.9446404E+02  0.7561462E-02  0.1292388E+00
         -2   -1    0    0    0  501 -0.00000000000E+00  0.00000000000E+00  0.24436891936E+02  0.24436891936E+02  0.00000000000E+00 0.  1.
          2   -1    0    0  501    0  0.00000000000E+00 -0.00000000000E+00 -0.81210963498E+03  0.81210963498E+03  0.00000000000E+00 0. -1.
         25    2    1    2    0    0 -0.39257319654E+01 -0.81280213305E+02 -0.33381988342E+03  0.36565790842E+03  0.12509239375E+03 0.  0.
         23    2    1    2    0    0  0.39257319654E+01  0.81280213305E+02 -0.45385285962E+03  0.47088861850E+03  0.95560391361E+02 0.  0.
          5    1    3    3  502    0 -0.94943036562E+01 -0.69035370743E+02 -0.61684845563E+02  0.93158557243E+02  0.41800000000E+01 0. -1.
         -5    1    3    3    0  502  0.55685716908E+01 -0.12244842562E+02 -0.27213503786E+03  0.27249935118E+03  0.41800000000E+01 0. -1.
        -11    1    4    4    0    0  0.34418689720E+02  0.54445124037E+02 -0.38948891239E+03  0.39477909089E+03  0.00000000000E+00 0. -1.
         11    1    4    4    0    0 -0.30492957754E+02  0.26835089268E+02 -0.64363947235E+02  0.76109527605E+02  0.00000000000E+00 0.  1.
</event>
<event>
 8    1  0.6689467E-009  0.1069882E+03  0.7561462E-02  0.1266251E+00
         -2   -1    0    0    0  501 -0.00000000000E+00  0.00000000000E+00  0.55154263795E+02  0.55154263795E+02  0.00000000000E+00 0. -1.
          2   -1    0    0  501    0  0.00000000000E+00 -0.00000000000E+00 -0.26138019269E+03  0.26138019269E+03  0.00000000000E+00 0.  1.
         25    2    1    2    0    0  0.32062126384E+02  0.38923789412E+02 -0.13098673303E+03  0.18801223760E+03  0.12509210978E+03 0.  0.
         23    2    1    2    0    0 -0.32062126384E+02 -0.38923789412E+02 -0.75239195862E+02  0.12852221888E+03  0.91181044200E+02 0.  0.
          5    1    3    3  502    0  0.51816172437E+02 -0.21242426136E+02 -0.18984565381E+02  0.59279359957E+02  0.41800000000E+01 0.  1.
         -5    1    3    3    0  502 -0.19754046053E+02  0.60166215548E+02 -0.11200216765E+03  0.12873287765E+03  0.41800000000E+01 0.  1.
        -11    1    4    4    0    0  0.26525378365E+02 -0.61690233707E+01 -0.49764004897E+02  0.56728376763E+02  0.00000000000E+00 0.  1.
         11    1    4    4    0    0 -0.58587504749E+02 -0.32754766042E+02 -0.25475190965E+02  0.71793842117E+02  0.00000000000E+00 0. -1.
</event>
<event>
 8    1  0.6689467E-009  0.1528356E+03  0.7561462E-02  0.1197031E+00
          2   -1    0    0  501    0  0.00000000000E+00  0.00000000000E+00  0.50463742465E+02  0.50463742465E+02  0.00000000000E+00 0. -1.
         -2   -1    0    0    0  501 -0.00000000000E+00 -0.00000000000E+00 -0.47363135149E+03  0.47363135149E+03  0.00000000000E+00 0.  1.
         25    2    1    2    0    0 -0.10633008954E+03 -0.28330037673E+02 -0.24284007961E+03  0.29449507658E+03  0.12508943556E+03 0.  0.
         23    2    1    2    0    0  0.10633008954E+03  0.28330037673E+02 -0.18032752942E+03  0.22960001738E+03  0.89941487304E+02 0.  0.
          5    1    3    3  502    0  0.22547253173E+01 -0.52163998852E+02 -0.10519044518E+03  0.11751029197E+03  0.41800000000E+01 0. -1.
         -5    1    3    3    0  502 -0.10858481486E+03  0.23833961180E+02 -0.13764963443E+03  0.17698478460E+03  0.41800000000E+01 0. -1.
        -11    1    4    4    0    0  0.79776236902E+02 -0.24045099475E+02 -0.10948627006E+03  0.13758509409E+03  0.00000000000E+00 0.  1.
         11    1    4    4    0    0  0.26553852637E+02  0.52375137148E+02 -0.70841259357E+02  0.92014923292E+02  0.00000000000E+00 0. -1.
</event>
<event>
 8    1  0.6689467E-009  0.3349116E+03  0.7561462E-02  0.1068984E+00
         -2   -1    0    0    0  501 -0.00000000000E+00  0.00000000000E+00  0.19262591484E+03  0.19262591484E+03  0.00000000000E+00 0.  1.
          2   -1    0    0  501    0  0.00000000000E+00 -0.00000000000E+00 -0.10449345875E+04  0.10449345875E+04  0.00000000000E+00 0. -1.
         25    2    1    2    0    0  0.21051649494E+03 -0.24386047130E+03 -0.26572039585E+02  0.34661146495E+03  0.12509320623E+03 0.  0.
         23    2    1    2    0    0 -0.21051649494E+03  0.24386047130E+03 -0.82573663310E+03  0.89094903740E+03  0.90355275996E+02 0.  0.
          5    1    3    3  502    0  0.11804799949E+02 -0.80911035241E+02  0.22598545109E+02  0.84935949789E+02  0.41800000000E+01 0.  1.
         -5    1    3    3    0  502  0.19871169499E+03 -0.16294943606E+03 -0.49170584694E+02  0.26167551517E+03  0.41800000000E+01 0.  1.
        -11    1    4    4    0    0 -0.11129440116E+03  0.72203677589E+02 -0.26841878589E+03  0.29941352576E+03  0.00000000000E+00 0.  1.
         11    1    4    4    0    0 -0.99222093783E+02  0.17165679371E+03 -0.55731784720E+03  0.59153551164E+03  0.00000000000E+00 0. -1.
</event>
<event>
 8    1  0.6689467E-009  0.9876438E+02  0.7561462E-02  0.1282916E+00
          4   -1    0    0  501    0  0.00000000000E+00  0.00000000000E+00  0.39715545625E+02  0.39715545625E+02  0.00000000000E+00 0. -1.
         -4   -1    0    0    0  501 -0.00000000000E+00 -0.00000000000E+00 -0.45325476685E+03  0.45325476685E+03  0.00000000000E+00 0.  1.
         25    2    1    2    0    0 -0.55369714488E+02 -0.36232716998E+02 -0.15127644123E+03  0.20715502535E+03  0.12510007111E+03 0.  0.
         23    2    1    2    0    0  0.55369714488E+02  0.36232716998E+02 -0.26226278000E+03  0.28581528713E+03  0.92357985698E+02 0.  0.
          5    1    3    3  502    0 -0.27684691339E+02  0.16503007474E+02  0.10945592312E+02  0.34293873815E+02  0.41800000000E+01 0. -1.
         -5    1    3    3    0  502 -0.27685023149E+02 -0.52735724471E+02 -0.16222203354E+03  0.17286115153E+03  0.41800000000E+01 0. -1.
        -11    1    4    4    0    0 -0.21757297460E+02  0.85317542005E+01 -0.22528130970E+02  0.32460553099E+02  0.00000000000E+00 0. -1.
         11    1    4    4    0    0  0.77127011948E+02  0.27700962797E+02 -0.23973464903E+03  0.25335473403E+03  0.00000000000E+00 0.  1.
</event>
<event>
 8    1  0.6689467E-009  0.1335652E+03  0.7561462E-02  0.1222260E+00
          3   -1    0    0  501    0  0.00000000000E+00  0.00000000000E+00  0.12670014627E+04  0.12670014627E+04  0.00000000000E+00 0. -1.
         -3   -1    0    0    0  501 -0.00000000000E+00 -0.00000000000E+00 -0.21434742588E+02  0.21434742588E+02  0.00000000000E+00 0.  1.
         25    2    1    2    0    0  0.42168214521E+02 -0.81395247531E+02  0.96441224005E+03  0.97680178772E+03  0.12508964427E+03 0.  0.
         23    2    1    2    0    0 -0.42168214521E+02  0.81395247531E+02  0.28115448011E+03  0.31163441761E+03  0.98309836330E+02 0.  0.
          5    1    3    3  502    0  0.62574004280E+02 -0.98035121422E+02  0.58557246315E+03  0.59702510252E+03  0.41800000000E+01 0.  1.
         -5    1    3    3    0  502 -0.20405789759E+02  0.16639873892E+02  0.37883977690E+03  0.37977668520E+03  0.41800000000E+01 0.  1.
        -11    1    4    4    0    0  0.10616786285E+02  0.69078168560E+02  0.96241193620E+02  0.11894064432E+03  0.00000000000E+00 0.  1.
         11    1    4    4    0    0 -0.52785000806E+02  0.12317078971E+02  0.18491328649E+03  0.19269377329E+03  0.00000000000E+00 0. -1.
</event>
<event>
 8    1  0.6689467E-009  0.1440396E+03  0.7561462E-02  0.1207995E+00
          2   -1    0    0  501    0  0.00000000000E+00  0.00000000000E+00  0.13926908850E+04  0.13926908850E+04  0.00000000000E+00 0. -1.
         -2   -1    0    0    0  501 -0.00000000000E+00 -0.00000000000E+00 -0.19553632988E+02  0.19553632988E+02  0.00000000000E+00 0.  1.
         25    2    1    2    0    0  0.81047129219E+02  0.67925644787E+02  0.10065609668E+04  0.10198011978E+04  0.12508785978E+03 0.  0.
         23    2    1    2    0    0 -0.81047129219E+02 -0.67925644787E+02  0.36657628518E+03  0.39244332021E+03  0.91929627143E+02 0.  0.
          5    1    3    3  502    0 -0.26443795333E+02  0.21108277709E+02  0.99367460815E+02  0.10505331203E+03  0.41800000000E+01 0. -1.
         -5    1    3    3    0  502  0.10749092455E+03  0.46817367079E+02  0.90719350600E+03  0.91474788574E+03  0.41800000000E+01 0. -1.
        -11    1    4    4    0    0  0.18616289410E+02 -0.14435989707E+02  0.10232400585E+03  0.10500079144E+03  0.00000000000E+00 0.  1.
         11    1    4    4    0    0 -0.99663418629E+02 -0.53489655080E+02  0.26425227933E+03  0.28744252877E+03  0.00000000000E+00 0. -1.
</event>
<event>
 8    1  0.6689467E-009  0.8463380E+02  0.7561462E-02  0.1316393E+00
         -2   -1    0    0    0  501 -0.00000000000E+00  0.00000000000E+00  0.55807840202E+02  0.55807840202E+02  0.00000000000E+00 0.  1.
          2   -1    0    0  501    0  0.00000000000E+00 -0.00000000000E+00 -0.19559611107E+03  0.19559611107E+03  0.00000000000E+00 0. -1.
         25    2    1    2    0    0 -0.15027679589E+01 -0.12419969266E+02 -0.10629381380E+03  0.16462718326E+03  0.12508885109E+03 0.  0.
         23    2    1    2    0    0  0.15027679589E+01  0.12419969266E+02 -0.33494457071E+02  0.86776768013E+02  0.79068418880E+02 0.  0.
          5    1    3    3  502    0 -0.55204129253E+02  0.33311223930E+01 -0.14984731861E+02  0.57450908191E+02  0.41800000000E+01 0. -1.
         -5    1    3    3    0  502  0.53701361294E+02 -0.15751091659E+02 -0.91309081935E+02  0.10717627507E+03  0.41800000000E+01 0. -1.
        -11    1    4    4    0    0 -0.20669960554E+02  0.24805180259E+02  0.12185469489E+02  0.34511301101E+02  0.00000000000E+00 0.  1.
         11    1    4    4    0    0  0.22172728513E+02 -0.12385210993E+02 -0.45679926560E+02  0.52265466912E+02  0.00000000000E+00 0. -1.
</event>
<event>
 8    1  0.6689467E-009  0.8098683E+02  0.7561462E-02  0.1326274E+00
          2   -1    0    0  501    0  0.00000000000E+00  0.00000000000E+00  0.27261187842E+03  0.27261187842E+03  0.00000000000E+00 0. -1.
         -2   -1    0    0    0  501 -0.00000000000E+00 -0.00000000000E+00 -0.64673161577E+02  0.64673161577E+02  0.00000000000E+00 0.  1.
         25    2    1    2    0    0 -0.59911312320E+02 -0.40277759675E+02  0.82171244241E+02  0.16617132674E+03  0.12509649548E+03 0.  0.
         23    2    1    2    0    0  0.59911312320E+02  0.40277759675E+02  0.12576747260E+03  0.17111371326E+03  0.90833817674E+02 0.  0.
          5    1    3    3  502    0 -0.20370806941E+02  0.25017506627E+01 -0.31816795932E+02  0.38092117756E+02  0.41800000000E+01 0.  1.
         -5    1    3    3    0  502 -0.39540505379E+02 -0.42779510338E+02  0.11398804017E+03  0.12807920898E+03  0.41800000000E+01 0.  1.
        -11    1    4    4    0    0  0.43828575655E+02  0.47815191140E+02  0.13595694850E+03  0.15063707509E+03  0.00000000000E+00 0. -1.
         11    1    4    4    0    0  0.16082736665E+02 -0.75374314642E+01 -0.10189475895E+02  0.20476638170E+02  0.00000000000E+00 0.  1.
</event>
<event>
 8    1  0.6689467E-009  0.1103457E+03  0.7561462E-02  0.1259931E+00
         -2   -1    0    0    0  501 -0.00000000000E+00  0.00000000000E+00  0.36456085226E+02  0.36456085226E+02  0.00000000000E+00 0.  1.
          2   -1    0    0  501    0  0.00000000000E+00 -0.00000000000E+00 -0.44340800186E+03  0.44340800186E+03  0.00000000000E+00 0. -1.
         25    2    1    2    0    0  0.25255036263E+02  0.59642427765E+02 -0.19975580863E+03  0.24442794786E+03  0.12509037761E+03 0.  0.
         23    2    1    2    0    0 -0.25255036263E+02 -0.59642427765E+02 -0.20719610801E+03  0.23543613923E+03  0.91131292281E+02 0.  0.
          5    1    3    3  502    0 -0.41277547638E+02  0.54201069669E+02 -0.13528577130E+03  0.15152987893E+03  0.41800000000E+01 0. -1.
         -5    1    3    3    0  502  0.66532583901E+02  0.54413580963E+01 -0.64470037326E+02  0.92898068932E+02  0.41800000000E+01 0. -1.
        -11    1    4    4    0    0  0.12513119548E+02 -0.42071907246E+02 -0.29409999211E+02  0.52835325245E+02  0.00000000000E+00 0.  1.
         11    1    4    4    0    0 -0.37768155811E+02 -0.17570520520E+02 -0.17778610880E+03  0.18260081398E+03  0.00000000000E+00 0. -1.
</event>
<event>
 8    1  0.6689467E-009  0.1615678E+03  0.7561462E-02  0.1186938E+00
          2   -1    0    0  501    0  0.00000000000E+00  0.00000000000E+00  0.72973172487E+02  0.72973172487E+02  0.00000000000E+00 0. -1.
         -2   -1    0    0    0  501 -0.00000000000E+00 -0.00000000000E+00 -0.47440444585E+03  0.47440444585E+03  0.00000000000E+00 0.  1.
         25    2    1    2    0    0 -0.77698641968E+02 -0.12027417395E+03 -0.27871357270E+03  0.33738852912E+03  0.12508720196E+03 0.  0.
         23    2    1    2    0    0  0.77698641968E+02  0.12027417395E+03 -0.12271770066E+03  0.20998908921E+03  0.92373305937E+02 0.  0.
          5    1    3    3  502    0 -0.35308349425E+02 -0.10322971557E+03 -0.26924828959E+03  0.29054288421E+03  0.41800000000E+01 0.  1.
         -5    1    3    3    0  502 -0.42390292544E+02 -0.17044458373E+02 -0.94652831096E+01  0.46845644915E+02  0.41800000000E+01 0.  1.
        -11    1    4    4    0    0  0.17313121925E+02 -0.13071635348E+02 -0.28850910158E+02  0.36096909263E+02  0.00000000000E+00 0.  1.
         11    1    4    4    0    0  0.60385520044E+02  0.13334580930E+03 -0.93866790504E+02  0.17389217995E+03  0.00000000000E+00 0. -1.
</event>
<event>
 8    1  0.6689467E-009  0.4421405E+03  0.7561462E-02  0.1030092E+00
          2   -1    0    0  501    0  0.00000000000E+00  0.00000000000E+00  0.23172592844E+04  0.23172592844E+04  0.00000000000E+00 0.  1.
         -2   -1    0    0    0  501 -0.00000000000E+00 -0.00000000000E+00 -0.91089133430E+02  0.91089133430E+02  0.00000000000E+00 0. -1.
         25    2    1    2    0    0  0.40036355478E+03 -0.16047726548E+03  0.14205567006E+04  0.14898552409E+04  0.12507345974E+03 0.  0.
         23    2    1    2    0    0 -0.40036355478E+03  0.16047726548E+03  0.80561345031E+03  0.91849317692E+03  0.92589178652E+02 0.  0.
          5    1    3    3  502    0  0.28460868868E+03 -0.51364547775E+02  0.87509069806E+03  0.92165157444E+03  0.41800000000E+01 0.  1.
         -5    1    3    3    0  502  0.11575486610E+03 -0.10911271770E+03  0.54546600258E+03  0.56820366644E+03  0.41800000000E+01 0.  1.
        -11    1    4    4    0    0 -0.73464804127E+02  0.42093360274E+01  0.88940129106E+02  0.11543458113E+03  0.00000000000E+00 0.  1.
         11    1    4    4    0    0 -0.32689875065E+03  0.15626792945E+03  0.71667332120E+03  0.80305859579E+03  0.00000000000E+00 0. -1.
</event>
<event>
 8    1  0.6689467E-009  0.1722404E+03  0.7561462E-02  0.1175531E+00
          2   -1    0    0  501    0  0.00000000000E+00  0.00000000000E+00  0.28188362045E+04  0.28188362045E+04  0.00000000000E+00 0. -1.
         -2   -1    0    0    0  501 -0.00000000000E+00 -0.00000000000E+00 -0.19425870547E+02  0.19425870547E+02  0.00000000000E+00 0.  1.
         25    2    1    2    0    0 -0.15765673446E+03  0.23967351777E+02  0.22447265056E+04  0.22538576418E+04  0.12508838726E+03 0.  0.
         23    2    1    2    0    0  0.15765673446E+03 -0.23967351777E+02  0.55468382837E+03  0.58440443328E+03  0.91784052577E+02 0.  0.
          5    1    3    3  502    0 -0.23457352191E+02 -0.23883900483E+02  0.12910899158E+03  0.13344396644E+03  0.41800000000E+01 0. -1.
         -5    1    3    3    0  502 -0.13419938227E+03  0.47851252260E+02  0.21156175140E+04  0.21204136754E+04  0.41800000000E+01 0. -1.
        -11    1    4    4    0    0  0.11333283617E+03 -0.41288411301E+02  0.26928335867E+03  0.29506370824E+03  0.00000000000E+00 0.  1.
         11    1    4    4    0    0  0.44323898296E+02  0.17321059524E+02  0.28540046970E+03  0.28934072504E+03  0.00000000000E+00 0. -1.
</event>
<event>
 8    1  0.6689467E-009  0.8065552E+02  0.7561462E-02  0.1327201E+00
         -2   -1    0    0    0  501 -0.00000000000E+00  0.00000000000E+00  0.49411134686E+02  0.49411134686E+02  0.00000000000E+00 0.  1.
          2   -1    0    0  501    0  0.00000000000E+00 -0.00000000000E+00 -0.27998455213E+03  0.27998455213E+03  0.00000000000E+00 0. -1.
         25    2    1    2    0    0  0.69179335914E+01  0.42148898325E+02 -0.16090717892E+03  0.20824514813E+03  0.12510209454E+03 0.  0.
         23    2    1    2    0    0 -0.69179335914E+01 -0.42148898325E+02 -0.69666238522E+02  0.12115053868E+03  0.89440934689E+02 0.  0.
          5    1    3    3  502    0 -0.33472785082E+02  0.58114063703E+02 -0.14832399230E+03  0.16283473472E+03  0.41800000000E+01 0. -1.
         -5    1    3    3    0  502  0.40390718673E+02 -0.15965165378E+02 -0.12583186624E+02  0.45410413410E+02  0.41800000000E+01 0. -1.
        -11    1    4    4    0    0  0.76876315524E+01 -0.31458215629E+02  0.14194869348E+02  0.35358355805E+02  0.00000000000E+00 0.  1.
         11    1    4    4    0    0 -0.14605565144E+02 -0.10690682696E+02 -0.83861107869E+02  0.85792182877E+02  0.00000000000E+00 0. -1.
</event>
<event>
 8    1  0.6689467E-009  0.1034826E+03  0.7561462E-02  0.1273138E+00
          2   -1    0    0  501    0  0.00000000000E+00  0.00000000000E+00  0.24256103939E+03  0.24256103939E+03  0.00000000000E+00 0. -1.
         -2   -1    0    0    0  501 -0.00000000000E+00 -0.00000000000E+00 -0.61743779319E+02  0.61743779319E+02  0.00000000000E+00 0.  1.
         25    2    1    2    0    0 -0.25405710475E+02  0.41898889832E+02  0.14475689556E+03  0.19748713442E+03  0.12508254217E+03 0.  0.
         23    2    1    2    0    0  0.25405710475E+02 -0.41898889832E+02  0.36060364505E+02  0.10681768428E+03  0.87799206679E+02 0.  0.
          5    1    3    3  502    0 -0.91104312902E+01  0.85652391480E+02  0.10611033234E+03  0.13673407459E+03  0.41800000000E+01 0. -1.
         -5    1    3    3    0  502 -0.16295279185E+02 -0.43753501648E+02  0.38646563226E+02  0.60753059835E+02  0.41800000000E+01 0. -1.
        -11    1    4    4    0    0 -0.15325687178E+02  0.12766446196E+00 -0.20387465741E+02  0.25505719849E+02  0.00000000000E+00 0.  1.
         11    1    4    4    0    0  0.40731397654E+02 -0.42026554294E+02  0.56447830245E+02  0.81311964434E+02  0.00000000000E+00 0. -1.
</event>
<event>
 7    1  0.6689467E-009  0.8878242E+02  0.7561462E-02  0.1305827E+00
         -1   -1    0    0    0  501 -0.00000000000E+00  0.00000000000E+00  0.34114529312E+03  0.34114529312E+03  0.00000000000E+00 0.  1.
          1   -1    0    0  501    0  0.00000000000E+00 -0.00000000000E+00 -0.45733614014E+02  0.45733614014E+02  0.00000000000E+00 0. -1.
         23    2    1    2    0    0 -0.31560810482E+02 -0.52734075930E+02  0.12286449001E+03  0.16517074620E+03  0.91699100185E+02 0.  0.
          5    1    1    2  502    0  0.56591122559E+02  0.51298716948E+02  0.17969943804E+03  0.19530354309E+03  0.41800000000E+01 0. -1.
         -5    1    1    2    0  502 -0.25030312077E+02  0.14353589821E+01 -0.71522489420E+01  0.26404617835E+02  0.41800000000E+01 0. -1.
        -11    1    3    3    0    0 -0.42370411438E+02 -0.35347528453E+02  0.17576174593E+02  0.57910460597E+02  0.00000000000E+00 0. -1.
         11    1    3    3    0    0  0.10809600956E+02 -0.17386547477E+02  0.10528831541E+03  0.10726028561E+03  0.00000000000E+00 0.  1.
</event>
<event>
 8    1  0.6689467E-009  0.1065367E+03  0.7561462E-02  0.1267121E+00
          1   -1    0    0  501    0  0.00000000000E+00  0.00000000000E+00  0.33763810694E+03  0.33763810694E+03  0.00000000000E+00 0. -1.
         -1   -1    0    0    0  501 -0.00000000000E+00 -0.00000000000E+00 -0.61398064445E+02  0.61398064445E+02  0.00000000000E+00 0.  1.
         25    2    1    2    0    0  0.39845768201E+02  0.43706883985E+02  0.24160941678E+03  0.27842391688E+03  0.12508713069E+03 0.  0.
         23    2    1    2    0    0 -0.39845768201E+02 -0.43706883985E+02  0.34630625720E+02  0.12061225451E+03  0.99247462177E+02 0.  0.
          5    1    3    3  502    0  0.80390317374E+02  0.39501433673E+02  0.11802739645E+03  0.14822585842E+03  0.41800000000E+01 0.  1.
         -5    1    3    3    0  502 -0.40544549173E+02  0.42054503124E+01  0.12358202032E+03  0.13019805846E+03  0.41800000000E+01 0.  1.
        -11    1    4    4    0    0 -0.54572179856E+02 -0.29821907643E+02 -0.17571448627E+02  0.64623716982E+02  0.00000000000E+00 0.  1.
         11    1    4    4    0    0  0.14726411655E+02 -0.13884976343E+02  0.52202074347E+02  0.55988537527E+02  0.00000000000E+00 0. -1.
</event>
<event>
 8    1  0.6689467E-009  0.1821053E+03  0.7561462E-02  0.1165781E+00
          1   -1    0    0  501    0  0.00000000000E+00  0.00000000000E+00  0.88466203017E+02  0.88466203017E+02  0.00000000000E+00 0. -1.
         -1   -1    0    0    0  501 -0.00000000000E+00 -0.00000000000E+00 -0.38975260111E+03  0.38975260111E+03  0.00000000000E+00 0.  1.
         25    2    1    2    0    0 -0.14613475533E+03 -0.28179816398E+02 -0.13704895280E+03  0.23786503297E+03  0.12509152520E+03 0.  0.
         23    2    1    2    0    0  0.14613475533E+03  0.28179816398E+02 -0.16423744530E+03  0.24035377117E+03  0.92986709304E+02 0.  0.
          5    1    3    3  502    0 -0.10133548675E+03  0.42200574869E+02 -0.89870389191E+02  0.14192930863E+03  0.41800000000E+01 0.  1.
         -5    1    3    3    0  502 -0.44799268583E+02 -0.70380391268E+02 -0.47178563606E+02  0.95935724339E+02  0.41800000000E+01 0.  1.
        -11    1    4    4    0    0  0.88775992251E+02  0.58134187135E+02 -0.12771965082E+03  0.16605140685E+03  0.00000000000E+00 0. -1.
         11    1    4    4    0    0  0.57358763080E+02 -0.29954370736E+02 -0.36517794485E+02  0.74302364311E+02  0.00000000000E+00 0.  1.
</event>
<event>
 8    1  0.6689467E-009  0.1026226E+03  0.7561462E-02  0.1274876E+00
         -2   -1    0    0    0  501 -0.00000000000E+00  0.00000000000E+00  0.27893345468E+03  0.27893345468E+03  0.00000000000E+00 0.  1.
          2   -1    0    0  501    0  0.00000000000E+00 -0.00000000000E+00 -0.51067068037E+02  0.51067068037E+02  0.00000000000E+00 0. -1.
         25    2    1    2    0    0  0.25092999764E+02 -0.45264316801E+02  0.10578109365E+03  0.17180233427E+03  0.12509150761E+03 0.  0.
         23    2    1    2    0    0 -0.25092999764E+02  0.45264316801E+02  0.12208529299E+03  0.15819818844E+03  0.86274741666E+02 0.  0.
          5    1    3    3  502    0  0.54854190848E+02 -0.64890543173E+02  0.34129354184E+02  0.91662697233E+02  0.41800000000E+01 0. -1.
         -5    1    3    3    0  502 -0.29761191084E+02  0.19626226373E+02  0.71651739467E+02  0.80139637041E+02  0.41800000000E+01 0. -1.
        -11    1    4    4    0    0  0.21657328698E+02  0.42129604874E+01  0.80243007008E+02  0.83220965484E+02  0.00000000000E+00 0. -1.
         11    1    4    4    0    0 -0.46750328462E+02  0.41051356313E+02  0.41842285983E+02  0.74977222959E+02  0.00000000000E+00 0.  1.
</event>
<event>
 8    1  0.6689467E-009  0.2437511E+03  0.7561462E-02  0.1117319E+00
          1   -1    0    0  501    0  0.00000000000E+00  0.00000000000E+00  0.64041402985E+03  0.64041402985E+03  0.00000000000E+00 0. -1.
         -1   -1    0    0    0  501 -0.00000000000E+00 -0.00000000000E+00 -0.13084153780E+03  0.13084153780E+03  0.00000000000E+00 0.  1.
         25    2    1    2    0    0 -0.21489331358E+03  0.10348311436E+03  0.97601873441E+02  0.28646279665E+03  0.12508763722E+03 0.  0.
         23    2    1    2    0    0  0.21489331358E+03 -0.10348311436E+03  0.41197061861E+03  0.48479277100E+03  0.91740661859E+02 0.  0.
          5    1    3    3  502    0 -0.52281936675E+01  0.16460313100E+01  0.47520831025E+02  0.48018175823E+02  0.41800000000E+01 0.  1.
         -5    1    3    3    0  502 -0.20966511991E+03  0.10183708305E+03  0.50081042416E+02  0.23844462083E+03  0.41800000000E+01 0.  1.
        -11    1    4    4    0    0  0.12846643632E+03 -0.25286716511E+02  0.27752691666E+03  0.30686191155E+03  0.00000000000E+00 0.  1.
         11    1    4    4    0    0  0.86426877262E+02 -0.78196397847E+02  0.13444370195E+03  0.17793085945E+03  0.00000000000E+00 0. -1.
</event>
<event>
 8    1  0.6689467E-009  0.1180845E+03  0.7561462E-02  0.1246291E+00
          1   -1    0    0  501    0  0.00000000000E+00  0.00000000000E+00  0.68346103498E+03  0.68346103498E+03  0.00000000000E+00 0. -1.
         -1   -1    0    0    0  501 -0.00000000000E+00 -0.00000000000E+00 -0.21185307572E+02  0.21185307572E+02  0.00000000000E+00 0.  1.
         25    2    1    2    0    0  0.47881026283E+02 -0.14336098272E+02  0.38667036893E+03  0.40944860370E+03  0.12504426607E+03 0.  0.
         23    2    1    2    0    0 -0.47881026283E+02  0.14336098272E+02  0.27560535848E+03  0.29519773885E+03  0.93194822850E+02 0.  0.
          5    1    3    3  502    0  0.32078488486E+02 -0.67484266119E+02  0.27041464412E+03  0.28057923614E+03  0.41800000000E+01 0. -1.
         -5    1    3    3    0  502  0.15802537797E+02  0.53148167848E+02  0.11625572480E+03  0.12886936756E+03  0.41800000000E+01 0. -1.
        -11    1    4    4    0    0 -0.19796230714E+02 -0.39961271892E+02  0.11942994703E+03  0.12748453338E+03  0.00000000000E+00 0.  1.
         11    1    4    4    0    0 -0.28084795569E+02  0.54297370164E+02  0.15617541145E+03  0.16771320547E+03  0.00000000000E+00 0. -1.
</event>
<event>
 8    1  0.6689467E-009  0.1958145E+03  0.7561462E-02  0.1153319E+00
          2   -1    0    0  501    0  0.00000000000E+00  0.00000000000E+00  0.20169882801E+03  0.20169882801E+03  0.00000000000E+00 0. -1.
         -2   -1    0    0    0  501 -0.00000000000E+00 -0.00000000000E+00 -0.23521863673E+03  0.23521863673E+03  0.00000000000E+00 0.  1.
         25    2    1    2    0    0  0.16147979596E+03 -0.69511967756E+02 -0.89290058072E+02  0.23351320805E+03  0.12509222876E+03 0.  0.
         23    2    1    2    0    0 -0.16147979596E+03  0.69511967756E+02  0.55770249349E+02  0.20340425669E+03  0.85763236664E+02 0.  0.
          5    1    3    3  502    0  0.40703106528E+02  0.36601965204E+02 -0.24777750872E+02  0.60231686645E+02  0.41800000000E+01 0.  1.
         -5    1    3    3    0  502  0.12077668943E+03 -0.10611393296E+03 -0.64512307200E+02  0.17328152140E+03  0.41800000000E+01 0.  1.
        -11    1    4    4    0    0 -0.82961205957E+02  0.38926353658E+02  0.73283313399E+02  0.11733825772E+03  0.00000000000E+00 0. -1.
         11    1    4    4    0    0 -0.78518590006E+02  0.30585614098E+02 -0.17513064049E+02  0.86065998969E+02  0.00000000000E+00 0.  1.
</event>
<event>
 8    1  0.6689467E-009  0.8316192E+02  0.7561462E-02  0.1320310E+00
          2   -1    0    0  501    0  0.00000000000E+00  0.00000000000E+00  0.18984872291E+03  0.18984872291E+03  0.00000000000E+00 0. -1.
         -2   -1    0    0    0  501 -0.00000000000E+00 -0.00000000000E+00 -0.86112494175E+02  0.86112494175E+02  0.00000000000E+00 0.  1.
         25    2    1    2    0    0 -0.48371437474E+02 -0.42780224572E+02  0.53666255578E+02  0.15066415340E+03  0.12509866727E+03 0.  0.
         23    2    1    2    0    0  0.48371437474E+02  0.42780224572E+02  0.50069973154E+02  0.12529706368E+03  0.94986358906E+02 0.  0.
          5    1    3    3  502    0 -0.33295479852E+02 -0.49705532079E+02  0.91350636138E+02  0.10927781120E+03  0.41800000000E+01 0. -1.
         -5    1    3    3    0  502 -0.15075957622E+02  0.69253075070E+01 -0.37684380561E+02  0.41386342198E+02  0.41800000000E+01 0. -1.
        -11    1    4    4    0    0  0.37065526819E+02 -0.74062057807E+01 -0.16435493426E+02  0.41216872838E+02  0.00000000000E+00 0. -1.
         11    1    4    4    0    0  0.11305910655E+02  0.50186430353E+02  0.66505466581E+02  0.84080190845E+02  0.00000000000E+00 0.  1.
</event>
<event>
 8    1  0.6689467E-009  0.1399281E+03  0.7561462E-02  0.1213426E+00
          1   -1    0    0  501    0  0.00000000000E+00  0.00000000000E+00  0.44264457801E+02  0.44264457801E+02  0.00000000000E+00 0. -1.
         -1   -1    0    0    0  501 -0.00000000000E+00 -0.00000000000E+00 -0.93872462157E+03  0.93872462157E+03  0.00000000000E+00 0.  1.
         25    2    1    2    0    0  0.88000514053E+02 -0.52076905634E+02 -0.80039607775E+03  0.81654015428E+03  0.12509135743E+03 0.  0.
         23    2    1    2    0    0 -0.88000514053E+02  0.52076905634E+02 -0.94064086019E+02  0.16644892509E+03  0.91657502750E+02 0.  0.
          5    1    3    3  502    0  0.84011636375E+02  0.22100657152E+02 -0.41133039197E+03  0.42042425935E+03  0.41800000000E+01 0. -1.
         -5    1    3    3    0  502  0.39888776786E+01 -0.74177562786E+02 -0.38906568578E+03  0.39611589493E+03  0.41800000000E+01 0. -1.
        -11    1    4    4    0    0 -0.24571031653E+02  0.49193469305E+02 -0.86508649138E+02  0.10250599687E+03  0.00000000000E+00 0.  1.
         11    1    4    4    0    0 -0.63429482400E+02  0.28834363293E+01 -0.75554368812E+01  0.63942928218E+02  0.00000000000E+00 0. -1.
</event>
<event>
 8    1  0.6689467E-009  0.1064757E+03  0.7561462E-02  0.1267239E+00
         -1   -1    0    0    0  501 -0.00000000000E+00  0.00000000000E+00  0.12747415416E+03  0.12747415416E+03  0.00000000000E+00 0.  1.
          1   -1    0    0  501    0  0.00000000000E+00 -0.00000000000E+00 -0.91198188220E+02  0.91198188220E+02  0.00000000000E+00 0. -1.
         25    2    1    2    0    0  0.42052749222E+01 -0.17875706243E+02  0.36137776347E+02  0.13149560728E+03  0.12509168895E+03 0.  0.
         23    2    1    2    0    0 -0.42052749222E+01  0.17875706243E+02  0.13818959408E+00  0.87176735097E+02  0.85220530595E+02 0.  0.
          5    1    3    3  502    0  0.32221707732E+02  0.45867347245E+02  0.10514377730E+02  0.57184582988E+02  0.41800000000E+01 0. -1.
         -5    1    3    3    0  502 -0.28016432809E+02 -0.63743053487E+02  0.25623398616E+02  0.74311024296E+02  0.41800000000E+01 0. -1.
        -11    1    4    4    0    0  0.90002731567E+01 -0.33114444868E+02  0.28549485538E+01  0.34434315835E+02  0.00000000000E+00 0.  1.
         11    1    4    4    0    0 -0.13205548079E+02  0.50990151111E+02 -0.27167589597E+01  0.52742419262E+02  0.00000000000E+00 0. -1.
</event>
<event>
 8    1  0.6689467E-009  0.1025625E+03  0.7561462E-02  0.1274998E+00
          2   -1    0    0  501    0  0.00000000000E+00  0.00000000000E+00  0.14264325747E+03  0.14264325747E+03  0.00000000000E+00 0. -1.
         -2   -1    0    0    0  501 -0.00000000000E+00 -0.00000000000E+00 -0.11792941440E+03  0.11792941440E+03  0.00000000000E+00 0.  1.
         25    2    1    2    0    0 -0.70492233684E+02 -0.72020999493E+00  0.15519509957E+02  0.14442221298E+03  0.12508895515E+03 0.  0.
         23    2    1    2    0    0  0.70492233684E+02  0.72020999493E+00  0.91943331218E+01  0.11615045889E+03  0.91851617447E+02 0.  0.
          5    1    3    3  502    0  0.10829158381E+02  0.29211133838E+02  0.43139168751E+02  0.53376224032E+02  0.41800000000E+01 0.  1.
         -5    1    3    3    0  502 -0.81321392065E+02 -0.29931343833E+02 -0.27619658795E+02  0.91045988945E+02  0.41800000000E+01 0.  1.
        -11    1    4    4    0    0  0.34938299538E+01  0.17519143579E+02  0.37473178816E+02  0.41513448063E+02  0.00000000000E+00 0. -1.
         11    1    4    4    0    0  0.66998403730E+02 -0.16798933584E+02 -0.28278845695E+02  0.74637010831E+02  0.00000000000E+00 0.  1.
</event>
<event>
 8    1  0.6689467E-009  0.7758377E+02  0.7561462E-02  0.1336052E+00
          2   -1    0    0  501    0  0.00000000000E+00  0.00000000000E+00  0.54840631104E+03  0.54840631104E+03  0.00000000000E+00 0. -1.
         -2   -1    0    0    0  501 -0.00000000000E+00 -0.00000000000E+00 -0.23913891396E+02  0.23913891396E+02  0.00000000000E+00 0.  1.
         25    2    1    2    0    0  0.16217387748E+02 -0.29170200453E+01  0.38298632170E+03  0.40323534892E+03  0.12509480938E+03 0.  0.
         23    2    1    2    0    0 -0.16217387748E+02  0.29170200453E+01  0.14150609794E+03  0.16908485352E+03  0.91072494553E+02 0.  0.
          5    1    3    3  502    0 -0.18690306737E+01 -0.47563845062E+02  0.60255887729E+02  0.76902906569E+02  0.41800000000E+01 0. -1.
         -5    1    3    3    0  502  0.18086418422E+02  0.44646825017E+02  0.32273043397E+03  0.32633244235E+03  0.41800000000E+01 0. -1.
        -11    1    4    4    0    0 -0.36427631157E+02  0.97286963587E+01  0.14282388694E+03  0.14771689993E+03  0.00000000000E+00 0. -1.
         11    1    4    4    0    0  0.20210243409E+02 -0.68116763134E+01 -0.13177889969E+01  0.21367953591E+02  0.00000000000E+00 0.  1.
</event>
<event>
 8    1  0.6689467E-009  0.1087555E+03  0.7561462E-02  0.1262892E+00
         -1   -1    0    0    0  501 -0.00000000000E+00  0.00000000000E+00  0.10160681459E+03  0.10160681459E+03  0.00000000000E+00 0.  1.
          1   -1    0    0  501    0  0.00000000000E+00 -0.00000000000E+00 -0.15171689279E+03  0.15171689279E+03  0.00000000000E+00 0. -1.
         25    2    1    2    0    0 -0.12098712861E+02  0.34046053364E+02 -0.77161970022E+02  0.15136596537E+03  0.12510864579E+03 0.  0.
         23    2    1    2    0    0  0.12098712861E+02 -0.34046053364E+02  0.27051891823E+02  0.10195774201E+03  0.91422446381E+02 0.  0.
          5    1    3    3  502    0 -0.40450435449E+02  0.65222056204E+02 -0.77314502574E+02  0.10901907655E+03  0.41800000000E+01 0. -1.
         -5    1    3    3    0  502  0.28351722588E+02 -0.31176002839E+02  0.15253255196E+00  0.42346888822E+02  0.41800000000E+01 0. -1.
        -11    1    4    4    0    0 -0.21212938888E+02  0.23595051366E+02  0.88327080627E+01  0.32935269195E+02  0.00000000000E+00 0.  1.
         11    1    4    4    0    0  0.33311651749E+02 -0.57641104730E+02  0.18219183761E+02  0.69022472817E+02  0.00000000000E+00 0. -1.
</event>
<event>
 8    1  0.6689467E-009  0.1100646E+03  0.7561462E-02  0.1260450E+00
         -2   -1    0    0    0  501 -0.00000000000E+00  0.00000000000E+00  0.79276572937E+02  0.79276572937E+02  0.00000000000E+00 0.  1.
          2   -1    0    0  501    0  0.00000000000E+00 -0.00000000000E+00 -0.20141328353E+03  0.20141328353E+03  0.00000000000E+00 0. -1.
         25    2    1    2    0    0  0.48430444300E+01  0.63050929663E+02 -0.58519906492E+02  0.15188734305E+03  0.12508521381E+03 0.  0.
         23    2    1    2    0    0 -0.48430444300E+01 -0.63050929663E+02 -0.63616804102E+02  0.12880251341E+03  0.92434381519E+02 0.  0.
          5    1    3    3  502    0 -0.43328665553E+02  0.36893334348E+02  0.16020413913E+02  0.59267338728E+02  0.41800000000E+01 0. -1.
         -5    1    3    3    0  502  0.48171709983E+02  0.26157595314E+02 -0.74540320405E+02  0.92620004327E+02  0.41800000000E+01 0. -1.
        -11    1    4    4    0    0 -0.45994722321E+02 -0.39822221520E+02 -0.18804894853E+02  0.63678472647E+02  0.00000000000E+00 0.  1.
         11    1    4    4    0    0  0.41151677891E+02 -0.23228708143E+02 -0.44811909248E+02  0.65124040766E+02  0.00000000000E+00 0. -1.
</event>
<event>
 8    1  0.6689467E-009  0.1280862E+03  0.7561462E-02  0.1230323E+00
          1   -1    0    0  501    0  0.00000000000E+00  0.00000000000E+00  0.50729198241E+03  0.50729198241E+03  0.00000000000E+00 0. -1.
         -1   -1    0    0    0  501 -0.00000000000E+00 -0.00000000000E+00 -0.43000289110E+02  0.43000289110E+02  0.00000000000E+00 0.  1.
         25    2    1    2    0    0  0.54726005112E+02 -0.54133385459E+02  0.36286140241E+03  0.39146086843E+03  0.12509138699E+03 0.  0.
         23    2    1    2    0    0 -0.54726005112E+02  0.54133385459E+02  0.10143029089E+03  0.15883140309E+03  0.94941832926E+02 0.  0.
          5    1    3    3  502    0 -0.15076035976E+01 -0.81663857843E+02  0.17003922844E+03  0.18868510846E+03  0.41800000000E+01 0. -1.
         -5    1    3    3    0  502  0.56233608710E+02  0.27530472384E+02  0.19282217397E+03  0.20277575998E+03  0.41800000000E+01 0. -1.
        -11    1    4    4    0    0 -0.17421781308E+02  0.69234247604E+02  0.93785537617E+02  0.11786698677E+03  0.00000000000E+00 0. -1.
         11    1    4    4    0    0 -0.37304223804E+02 -0.15100862144E+02  0.76447532741E+01  0.40964416312E+02  0.00000000000E+00 0.  1.
</event>
<event>
 8    1  0.6689467E-009  0.8808229E+02  0.7561462E-02  0.1307563E+00
         -1   -1    0    0    0  501 -0.00000000000E+00  0.00000000000E+00  0.11594232606E+03  0.11594232606E+03  0.00000000000E+00 0.  1.
          1   -1    0    0  501    0  0.00000000000E+00 -0.00000000000E+00 -0.12937772899E+03  0.12937772899E+03  0.00000000000E+00 0. -1.
         25    2    1    2    0    0 -0.29702078962E+02 -0.43609622526E+02 -0.22370227265E+02  0.13759117500E+03  0.12508753614E+03 0.  0.
         23    2    1    2    0    0  0.29702078962E+02  0.43609622526E+02  0.89348243374E+01  0.10772888005E+03  0.93496886785E+02 0.  0.
          5    1    3    3  502    0 -0.62241999280E+02 -0.51581814757E+01 -0.49885456471E+02  0.80041892018E+02  0.41800000000E+01 0.  1.
         -5    1    3    3    0  502  0.32539920319E+02 -0.38451441050E+02  0.27515229206E+02  0.57549282979E+02  0.41800000000E+01 0.  1.
        -11    1    4    4    0    0  0.31041300104E+02  0.15164341103E+02 -0.38920595127E+02  0.52041639850E+02  0.00000000000E+00 0. -1.
         11    1    4    4    0    0 -0.13392211423E+01  0.28445281423E+02  0.47855419465E+02  0.55687240196E+02  0.00000000000E+00 0.  1.
</event>
<event>
 8    1  0.6689467E-009  0.1161799E+03  0.7561462E-02  0.1249536E+00
         -1   -1    0    0    0  501 -0.00000000000E+00  0.00000000000E+00  0.10631908412E+03  0.10631908412E+03  0.00000000000E+00 0.  1.
          1   -1    0    0  501    0  0.00000000000E+00 -0.00000000000E+00 -0.17136036661E+03  0.17136036661E+03  0.00000000000E+00 0. -1.
         25    2    1    2    0    0 -0.66486911864E+02 -0.33177927320E+02 -0.56018522675E+01  0.14560248288E+03  0.12508963971E+03 0.  0.
         23    2    1    2    0    0  0.66486911864E+02  0.33177927320E+02 -0.59439430215E+02  0.13207696785E+03  0.91596917314E+02 0.  0.
          5    1    3    3  502    0 -0.10055920171E+03 -0.42785266585E+02  0.90614682911E+00  0.10936647378E+03  0.41800000000E+01 0. -1.
         -5    1    3    3    0  502  0.34072289847E+02  0.96073392644E+01 -0.65079990967E+01  0.36236009099E+02  0.41800000000E+01 0. -1.
        -11    1    4    4    0    0  0.63180129504E+02  0.43371102369E+02 -0.52232397509E+01  0.76811870947E+02  0.00000000000E+00 0.  1.
         11    1    4    4    0    0  0.33067823603E+01 -0.10193175048E+02 -0.54216190465E+02  0.55265096902E+02  0.00000000000E+00 0. -1.
</event>
<event>
 8    1  0.6689467E-009  0.1354360E+03  0.7561462E-02  0.1219605E+00
         -2   -1    0    0    0  501 -0.00000000000E+00  0.00000000000E+00  0.26886109268E+03  0.26886109268E+03  0.00000000000E+00 0.  1.
          2   -1    0    0  501    0  0.00000000000E+00 -0.00000000000E+00 -0.74734132215E+02  0.74734132215E+02  0.00000000000E+00 0. -1.
         25    2    1    2    0    0 -0.14666480814E+02 -0.88252874997E+02  0.12387248176E+03  0.19747224584E+03  0.12508885056E+03 0.  0.
         23    2    1    2    0    0  0.14666480814E+02  0.88252874997E+02  0.70254478706E+02  0.14612297906E+03  0.91719995780E+02 0.  0.
          5    1    3    3  502    0 -0.51706090284E+02 -0.96438439946E+02  0.65094157023E+02  0.12739157802E+03  0.41800000000E+01 0.  1.
         -5    1    3    3    0  502  0.37039609470E+02  0.81855649491E+01  0.58778324738E+02  0.70080667821E+02  0.41800000000E+01 0.  1.
        -11    1    4    4    0    0 -0.10121883287E+02 -0.14399519551E+02 -0.26493613689E+01  0.17799376401E+02  0.00000000000E+00 0. -1.
         11    1    4    4    0    0  0.24788364101E+02  0.10265239455E+03  0.72903840075E+02  0.12832360266E+03  0.00000000000E+00 0.  1.
</event>
<event>
 8    1  0.6689467E-009  0.1328756E+03  0.7561462E-02  0.1223250E+00
         -3   -1    0    0    0  501 -0.00000000000E+00  0.00000000000E+00  0.43493727091E+02  0.43493727091E+02  0.00000000000E+00 0.  1.
          3   -1    0    0  501    0  0.00000000000E+00 -0.00000000000E+00 -0.52097889804E+03  0.52097889804E+03  0.00000000000E+00 0. -1.
         25    2    1    2    0    0 -0.10343812022E+03 -0.10768671279E+02 -0.28929469225E+03  0.33189470451E+03  0.12508903597E+03 0.  0.
         23    2    1    2    0    0  0.10343812022E+03  0.10768671279E+02 -0.18819047869E+03  0.23257792061E+03  0.88664671046E+02 0.  0.
          5    1    3    3  502    0 -0.86577405080E+02 -0.39717335757E+02 -0.94662420391E+02  0.13435609426E+03  0.41800000000E+01 0. -1.
         -5    1    3    3    0  502 -0.16860715141E+02  0.28948664478E+02 -0.19463227186E+03  0.19753861025E+03  0.41800000000E+01 0. -1.
        -11    1    4    4    0    0  0.62339627191E+02 -0.37891730577E+02 -0.98632270557E+02  0.12267981562E+03  0.00000000000E+00 0. -1.
         11    1    4    4    0    0  0.41098493030E+02  0.48660401856E+02 -0.89558208132E+02  0.10989810500E+03  0.00000000000E+00 0.  1.
</event>
<event>
 8    1  0.6689467E-009  0.2090017E+03  0.7561462E-02  0.1142359E+00
          1   -1    0    0  501    0  0.00000000000E+00  0.00000000000E+00  0.42583808118E+03  0.42583808118E+03  0.00000000000E+00 0. -1.
         -1   -1    0    0    0  501 -0.00000000000E+00 -0.00000000000E+00 -0.13255225934E+03  0.13255225934E+03  0.00000000000E+00 0.  1.
         25    2    1    2    0    0 -0.19961059267E+03  0.12022619468E+02  0.22867588763E+03  0.32852566603E+03  0.12509004586E+03 0.  0.
         23    2    1    2    0    0  0.19961059267E+03 -0.12022619468E+02  0.64609934210E+02  0.22986467449E+03  0.93136420891E+02 0.  0.
          5    1    3    3  502    0 -0.82305988999E+01 -0.21631357783E+02 -0.55458228050E+01  0.24163752779E+02  0.41800000000E+01 0. -1.
         -5    1    3    3    0  502 -0.19137999377E+03  0.33653977251E+02  0.23422171044E+03  0.30436191325E+03  0.41800000000E+01 0. -1.
        -11    1    4    4    0    0  0.16030679283E+03 -0.12746817365E+02  0.88806227945E+02  0.18370436931E+03  0.00000000000E+00 0. -1.
         11    1    4    4    0    0  0.39303799834E+02  0.72419789692E+00 -0.24196293735E+02  0.46160305183E+02  0.00000000000E+00 0.  1.
</event>
<event>
 8    1  0.6689467E-009  0.2789500E+03  0.7561462E-02  0.1096264E+00
         -1   -1    0    0    0  501 -0.00000000000E+00  0.00000000000E+00  0.68899382223E+02  0.68899382223E+02  0.00000000000E+00 0.  1.
          1   -1    0    0  501    0  0.00000000000E+00 -0.00000000000E+00 -0.15553047575E+04  0.15553047575E+04  0.00000000000E+00 0. -1.
         25    2    1    2    0    0 -0.81258581330E+02  0.25196028795E+03 -0.11446957208E+04  0.11815531888E+04  0.12511075496E+03 0.  0.
         23    2    1    2    0    0  0.81258581330E+02 -0.25196028795E+03 -0.34170965446E+03  0.44265095091E+03  0.95328026525E+02 0.  0.
          5    1    3    3  502    0 -0.10379970274E+02 -0.11799070707E+02 -0.32957002555E+02  0.36750486661E+02  0.41800000000E+01 0. -1.
         -5    1    3    3    0  502 -0.70878611056E+02  0.26375935866E+03 -0.11117387183E+04  0.11448027022E+04  0.41800000000E+01 0. -1.
        -11    1    4    4    0    0  0.49952062332E+02 -0.21157201327E+03 -0.21378138767E+03  0.30489409152E+03  0.00000000000E+00 0.  1.
         11    1    4    4    0    0  0.31306518998E+02 -0.40388274683E+02 -0.12792826679E+03  0.13775685938E+03  0.00000000000E+00 0. -1.
</event>
<event>
 8    1  0.6689467E-009  0.1232157E+03  0.7561462E-02  0.1237885E+00
         -1   -1    0    0    0  501 -0.00000000000E+00  0.00000000000E+00  0.19128238061E+03  0.19128238061E+03  0.00000000000E+00 0.  1.
          1   -1    0    0  501    0  0.00000000000E+00 -0.00000000000E+00 -0.12064704392E+03  0.12064704392E+03  0.00000000000E+00 0. -1.
         25    2    1    2    0    0 -0.42033404449E+02 -0.73372894956E+02 -0.26714553551E+02  0.15333610396E+03  0.12509158486E+03 0.  0.
         23    2    1    2    0    0  0.42033404449E+02  0.73372894956E+02  0.97349890248E+02  0.15859332057E+03  0.92327955649E+02 0.  0.
          5    1    3    3  502    0 -0.79440334310E+02 -0.15094599541E+02 -0.21435391066E+02  0.83758952004E+02  0.41800000000E+01 0. -1.
         -5    1    3    3    0  502  0.37406929861E+02 -0.58278295415E+02 -0.52791624857E+01  0.69577151959E+02  0.41800000000E+01 0. -1.
        -11    1    4    4    0    0  0.23940277459E+02  0.38518337879E+01  0.81497235985E+02  0.85028071726E+02  0.00000000000E+00 0.  1.
         11    1    4    4    0    0  0.18093126990E+02  0.69521061169E+02  0.15852654264E+02  0.73565248844E+02  0.00000000000E+00 0. -1.
</event>
<event>
 7    1  0.6689467E-009  0.1585637E+03  0.7561462E-02  0.1190328E+00
          2   -1    0    0  501    0  0.00000000000E+00  0.00000000000E+00  0.89863256847E+03  0.89863256847E+03  0.00000000000E+00 0. -1.
         -2   -1    0    0    0  501 -0.00000000000E+00 -0.00000000000E+00 -0.48161163123E+02  0.48161163123E+02  0.00000000000E+00 0.  1.
         23    2    1    2    0    0 -0.80482097445E+02 -0.12011431169E+03  0.64081162297E+03  0.66323305921E+03  0.91289313766E+02 0.  0.
          5    1    1    2  502    0  0.44393317528E+02  0.11357838478E+03  0.73408574549E+02  0.14239770837E+03  0.41800000000E+01 0.  1.
         -5    1    1    2    0  502  0.36088779917E+02  0.65359269116E+01  0.13625120783E+03  0.14116296402E+03  0.41800000000E+01 0.  1.
        -11    1    3    3    0    0 -0.54821800854E+01 -0.64734183771E+02  0.14726797986E+03  0.16096094787E+03  0.00000000000E+00 0.  1.
         11    1    3    3    0    0 -0.74999917360E+02 -0.55380127923E+02  0.49354364311E+03  0.50227211134E+03  0.00000000000E+00 0. -1.
</event>
<event>
 8    1  0.6689467E-009  0.1487037E+03  0.7561462E-02  0.1202075E+00
          1   -1    0    0  501    0  0.00000000000E+00  0.00000000000E+00  0.38543536186E+03  0.38543536186E+03  0.00000000000E+00 0. -1.
         -1   -1    0    0    0  501 -0.00000000000E+00 -0.00000000000E+00 -0.14040057511E+03  0.14040057511E+03  0.00000000000E+00 0.  1.
         25    2    1    2    0    0 -0.65293114249E+02  0.77592144347E+02  0.32677799115E+03  0.36430171070E+03  0.12509256287E+03 0.  0.
         23    2    1    2    0    0  0.65293114249E+02 -0.77592144347E+02 -0.81743204400E+02  0.16153422626E+03  0.95538595115E+02 0.  0.
          5    1    3    3  502    0 -0.99804666320E+02  0.40445192717E+02  0.19102170969E+03  0.21932521745E+03  0.41800000000E+01 0. -1.
         -5    1    3    3    0  502  0.34511552071E+02  0.37146951630E+02  0.13575628146E+03  0.14497649326E+03  0.41800000000E+01 0. -1.
        -11    1    4    4    0    0  0.26770579834E+02 -0.93370837003E+02 -0.50434447345E+02  0.10944592558E+03  0.00000000000E+00 0. -1.
         11    1    4    4    0    0  0.38522534415E+02  0.15778692656E+02 -0.31308757056E+02  0.52088300683E+02  0.00000000000E+00 0.  1.
</event>
<event>
 8    1  0.6689467E-009  0.1046014E+03  0.7561462E-02  0.1270907E+00
         -2   -1    0    0    0  501 -0.00000000000E+00  0.00000000000E+00  0.84794868387E+02  0.84794868387E+02  0.00000000000E+00 0.  1.
          2   -1    0    0  501    0  0.00000000000E+00 -0.00000000000E+00 -0.25857920660E+03  0.25857920660E+03  0.00000000000E+00 0. -1.
         25    2    1    2    0    0 -0.15478022635E+02 -0.71180482203E+02 -0.13241578992E+02  0.14535945209E+03  0.12509116942E+03 0.  0.
         23    2    1    2    0    0  0.15478022635E+02  0.71180482203E+02 -0.16054275922E+03  0.19801462290E+03  0.90164200829E+02 0.  0.
          5    1    3    3  502    0 -0.22804550660E+02 -0.82453681938E+02  0.36912472845E+02  0.93266608427E+02  0.41800000000E+01 0.  1.
         -5    1    3    3    0  502  0.73265280250E+01  0.11273199736E+02 -0.50154051838E+02  0.52092843663E+02  0.41800000000E+01 0.  1.
        -11    1    4    4    0    0 -0.18823955019E+02 -0.10019202573E+02 -0.99748214655E+01  0.23541936327E+02  0.00000000000E+00 0.  1.
         11    1    4    4    0    0  0.34301977654E+02  0.81199684775E+02 -0.15056793776E+03  0.17447268657E+03  0.00000000000E+00 0. -1.
</event>
<event>
 8    1  0.6689467E-009  0.1161510E+03  0.7561462E-02  0.1249585E+00
          4   -1    0    0  501    0  0.00000000000E+00  0.00000000000E+00  0.56476619138E+03  0.56476619138E+03  0.00000000000E+00 0. -1.
         -4   -1    0    0    0  501 -0.00000000000E+00 -0.00000000000E+00 -0.28611068450E+02  0.28611068450E+02  0.00000000000E+00 0.  1.
         25    2    1    2    0    0  0.45397835300E+02  0.46376068907E+02  0.33524452231E+03  0.36365668875E+03  0.12508235012E+03 0.  0.
         23    2    1    2    0    0 -0.45397835300E+02 -0.46376068907E+02  0.20091060061E+03  0.22972057108E+03  0.90524958557E+02 0.  0.
          5    1    3    3  502    0  0.42720205765E+02  0.88096775731E+02  0.21492427894E+03  0.23621171849E+03  0.41800000000E+01 0. -1.
         -5    1    3    3    0  502  0.26776295349E+01 -0.41720706825E+02  0.12032024337E+03  0.12744497026E+03  0.41800000000E+01 0. -1.
        -11    1    4    4    0    0  0.42881920925E+01 -0.42211895549E+02  0.30736433766E+02  0.52392376143E+02  0.00000000000E+00 0.  1.
         11    1    4    4    0    0 -0.49686027392E+02 -0.41641733576E+01  0.17017416685E+03  0.17732819494E+03  0.00000000000E+00 0. -1.
</event>
<event>
 8    1  0.6689467E-009  0.1053738E+03  0.7561462E-02  0.1269385E+00
          2   -1    0    0  501    0  0.00000000000E+00  0.00000000000E+00  0.53777513008E+03  0.53777513008E+03  0.00000000000E+00 0. -1.
         -2   -1    0    0    0  501 -0.00000000000E+00 -0.00000000000E+00 -0.27181231604E+02  0.27181231604E+02  0.00000000000E+00 0.  1.
         25    2    1    2    0    0 -0.15759358983E+00 -0.18234639327E+02  0.40953748907E+03  0.42860415439E+03  0.12509212324E+03 0.  0.
         23    2    1    2    0    0  0.15759358983E+00  0.18234639327E+02  0.10105640941E+03  0.13635220730E+03  0.89705070346E+02 0.  0.
          5    1    3    3  502    0 -0.22099371334E+02 -0.64584312410E+02  0.29837462666E+03  0.30611175387E+03  0.41800000000E+01 0.  1.
         -5    1    3    3    0  502  0.21941777744E+02  0.46349673083E+02  0.11116286241E+03  0.12249240052E+03  0.41800000000E+01 0.  1.
        -11    1    4    4    0    0  0.19606108584E+02 -0.31726095296E+02  0.33716027418E+02  0.50276387314E+02  0.00000000000E+00 0.  1.
         11    1    4    4    0    0 -0.19448514994E+02  0.49960734622E+02  0.67340381993E+02  0.86075819987E+02  0.00000000000E+00 0. -1.
</event>
<event>
 7    1  0.6689467E-009  0.2701315E+03  0.7561462E-02  0.1101204E+00
         -2   -1    0    0    0  501 -0.00000000000E+00  0.00000000000E+00  0.63909802967E+02  0.63909802967E+02  0.00000000000E+00 0. -1.
          2   -1    0    0  501    0  0.00000000000E+00 -0.00000000000E+00 -0.12513307894E+04  0.12513307894E+04  0.00000000000E+00 0.  1.
         23    2    1    2    0    0  0.16361098405E+03 -0.18636865370E+03 -0.39104839250E+03  0.47183077833E+03  0.90573776094E+02 0.  0.
          5    1    1    2  502    0 -0.64747970861E+02  0.16201811639E+03 -0.46257926889E+03  0.49440795117E+03  0.41800000000E+01 0.  1.
         -5    1    1    2    0  502 -0.98863013189E+02  0.24350537311E+02 -0.33379332503E+03  0.34900186285E+03  0.41800000000E+01 0.  1.
        -11    1    3    3    0    0  0.12303235787E+03 -0.18629362494E+03 -0.32433218241E+03  0.39374311463E+03  0.00000000000E+00 0. -1.
         11    1    3    3    0    0  0.40578626186E+02 -0.75028763148E-01 -0.66716210090E+02  0.78087663694E+02  0.00000000000E+00 0.  1.
</event>
<event>
 8    1  0.6689467E-009  0.1880245E+03  0.7561462E-02  0.1160255E+00
         -1   -1    0    0    0  501 -0.00000000000E+00  0.00000000000E+00  0.38841490845E+02  0.38841490845E+02  0.00000000000E+00 0.  1.
          1   -1    0    0  501    0  0.00000000000E+00 -0.00000000000E+00 -0.10627690226E+04  0.10627690226E+04  0.00000000000E+00 0. -1.
         25    2    1    2    0    0  0.12051043576E+03 -0.12060538023E+03 -0.58872164799E+03  0.62554667637E+03  0.12508813949E+03 0.  0.
         23    2    1    2    0    0 -0.12051043576E+03  0.12060538023E+03 -0.43520588375E+03  0.47606383705E+03  0.90355923075E+02 0.  0.
          5    1    3    3  502    0 -0.11788594441E+02  0.76909215224E+01 -0.13517791253E+03  0.13597301817E+03  0.41800000000E+01 0.  1.
         -5    1    3    3    0  502  0.13229903020E+03 -0.12829630175E+03 -0.45354373546E+03  0.48957365821E+03  0.41800000000E+01 0.  1.
        -11    1    4    4    0    0 -0.58755023531E+02  0.91542202528E+02 -0.35212091466E+03  0.36853936855E+03  0.00000000000E+00 0.  1.
         11    1    4    4    0    0 -0.61755412230E+02  0.29063177702E+02 -0.83084969087E+02  0.10752446850E+03  0.00000000000E+00 0. -1.
</event>
<event>
 8    1  0.6689467E-009  0.1467380E+03  0.7561462E-02  0.1204540E+00
         -1   -1    0    0    0  501 -0.00000000000E+00  0.00000000000E+00  0.18796577015E+02  0.18796577015E+02  0.00000000000E+00 0.  1.
          1   -1    0    0  501    0  0.00000000000E+00 -0.00000000000E+00 -0.15119999415E+04  0.15119999415E+04  0.00000000000E+00 0. -1.
         25    2    1    2    0    0 -0.22439954332E+02  0.10599734757E+03 -0.10968468397E+04  0.11092621779E+04  0.12510235929E+03 0.  0.
         23    2    1    2    0    0  0.22439954332E+02 -0.10599734757E+03 -0.39635652480E+03  0.42153434063E+03  0.94094188681E+02 0.  0.
          5    1    3    3  502    0  0.21219603929E+02 -0.21560321650E+02 -0.19005958658E+03  0.19249737118E+03  0.41800000000E+01 0. -1.
         -5    1    3    3    0  502 -0.43659558261E+02  0.12755766922E+03 -0.90678725313E+03  0.91676480672E+03  0.41800000000E+01 0. -1.
        -11    1    4    4    0    0  0.43546930489E+02 -0.41375942784E+02 -0.93434609334E+02  0.11107803571E+03  0.00000000000E+00 0.  1.
         11    1    4    4    0    0 -0.21106976157E+02 -0.64621404786E+02 -0.30292191546E+03  0.31045630492E+03  0.00000000000E+00 0. -1.
</event>
<event>
 8    1  0.6689467E-009  0.1927820E+03  0.7561462E-02  0.1155976E+00
          1   -1    0    0  501    0  0.00000000000E+00  0.00000000000E+00  0.16972577738E+03  0.16972577738E+03  0.00000000000E+00 0. -1.
         -1   -1    0    0    0  501 -0.00000000000E+00 -0.00000000000E+00 -0.27838762538E+03  0.27838762538E+03  0.00000000000E+00 0.  1.
         25    2    1    2    0    0  0.53497545579E+02 -0.17988502240E+03 -0.43261442361E+02  0.22965093687E+03  0.12508953490E+03 0.  0.
         23    2    1    2    0    0 -0.53497545579E+02  0.17988502240E+03 -0.65400405638E+02  0.21846246588E+03  0.90708474102E+02 0.  0.
          5    1    3    3  502    0  0.49315667182E+02 -0.18405792881E+03 -0.49482123447E+01  0.19066020401E+03  0.41800000000E+01 0.  1.
         -5    1    3    3    0  502  0.41818783965E+01  0.41729064036E+01 -0.38313230016E+02  0.38990732861E+02  0.41800000000E+01 0.  1.
        -11    1    4    4    0    0 -0.23596771172E+02  0.71220608943E+02 -0.74064880320E+02  0.10542670082E+03  0.00000000000E+00 0.  1.
         11    1    4    4    0    0 -0.29900774407E+02  0.10866441346E+03  0.86644746820E+01  0.11303576507E+03  0.00000000000E+00 0. -1.
</event>
<event>
 8    1  0.6689467E-009  0.9108657E+02  0.7561462E-02  0.1300242E+00
          1   -1    0    0  501    0  0.00000000000E+00  0.00000000000E+00  0.68340376924E+02  0.68340376924E+02  0.00000000000E+00 0. -1.
         -1   -1    0    0    0  501 -0.00000000000E+00 -0.00000000000E+00 -0.20025860168E+03  0.20025860168E+03  0.00000000000E+00 0.  1.
         25    2    1    2    0    0 -0.28378072661E+02 -0.32514376991E+02 -0.57992637846E+02  0.14447918884E+03  0.12509432538E+03 0.  0.
         23    2    1    2    0    0  0.28378072661E+02  0.32514376991E+02 -0.73925586913E+02  0.12411978977E+03  0.89878974703E+02 0.  0.
          5    1    3    3  502    0 -0.30076275742E+02  0.15684910022E+02 -0.83166375719E+02  0.89915055553E+02  0.41800000000E+01 0. -1.
         -5    1    3    3    0  502  0.16982030810E+01 -0.48199287013E+02  0.25173737873E+02  0.54564133282E+02  0.41800000000E+01 0. -1.
        -11    1    4    4    0    0  0.38032557184E+02 -0.22192476055E+02 -0.35684739419E+02  0.56677879519E+02  0.00000000000E+00 0. -1.
         11    1    4    4    0    0 -0.96544845226E+01  0.54706853046E+02 -0.38240847493E+02  0.67441910253E+02  0.00000000000E+00 0.  1.
</event>
<event>
 8    1  0.6689467E-009  0.1392416E+03  0.7561462E-02  0.1214353E+00
         -1   -1    0    0    0  501 -0.00000000000E+00  0.00000000000E+00  0.97172984983E+02  0.97172984983E+02  0.00000000000E+00 0.  1.
          1   -1    0    0  501    0  0.00000000000E+00 -0.00000000000E+00 -0.28717740213E+03  0.28717740213E+03  0.00000000000E+00 0. -1.
         25    2    1    2    0    0 -0.32565935553E+02 -0.11707316153E+03 -0.14234855931E+03  0.22511909770E+03  0.12509528569E+03 0.  0.
         23    2    1    2    0    0  0.32565935553E+02  0.11707316153E+03 -0.47655857829E+02  0.15923128941E+03  0.91196806040E+02 0.  0.
          5    1    3    3  502    0 -0.33493372340E+02 -0.13443455474E+03 -0.15124126034E+03  0.20514835298E+03  0.41800000000E+01 0.  1.
         -5    1    3    3    0  502  0.92743678742E+00  0.17361393216E+02  0.88927010242E+01  0.19970744726E+02  0.41800000000E+01 0.  1.
        -11    1    4    4    0    0  0.12519244021E+01  0.19050749151E+02 -0.52854939773E+02  0.56197357735E+02  0.00000000000E+00 0. -1.
         11    1    4    4    0    0  0.31314011150E+02  0.98022412377E+02  0.51990819445E+01  0.10303393167E+03  0.00000000000E+00 0.  1.
</event>
<event>
 8    1  0.6689467E-009  0.1187081E+03  0.7561462E-02  0.1245244E+00
          1   -1    0    0  501    0  0.00000000000E+00  0.00000000000E+00  0.19485090498E+02  0.19485090498E+02  0.00000000000E+00 0. -1.
         -1   -1    0    0    0  501 -0.00000000000E+00 -0.00000000000E+00 -0.86500663503E+03  0.86500663503E+03  0.00000000000E+00 0.  1.
         25    2    1    2    0    0 -0.50661121479E+02  0.10732107581E+01 -0.64756088209E+03  0.66146640103E+03  0.12504000423E+03 0.  0.
         23    2    1    2    0    0  0.50661121479E+02 -0.10732107581E+01 -0.19796066244E+03  0.22302532450E+03  0.89354185605E+02 0.  0.
          5    1    3    3  502    0 -0.92377400188E+02  0.53353309537E+01 -0.45927911750E+03  0.46852623192E+03  0.41800000000E+01 0. -1.
         -5    1    3    3    0  502  0.41716278708E+02 -0.42621201956E+01 -0.18828176459E+03  0.19294016911E+03  0.41800000000E+01 0. -1.
        -11    1    4    4    0    0 -0.46316933673E+01  0.35858792914E+02 -0.73786168174E+02  0.82168754564E+02  0.00000000000E+00 0.  1.
         11    1    4    4    0    0  0.55292814847E+02 -0.36932003672E+02 -0.12417449426E+03  0.14085656994E+03  0.00000000000E+00 0. -1.
</event>
<event>
 7    1  0.6689467E-009  0.1145436E+03  0.7561462E-02  0.1252380E+00
          2   -1    0    0  501    0  0.00000000000E+00  0.00000000000E+00  0.12273508914E+04  0.12273508914E+04  0.00000000000E+00 0.  1.
         -2   -1    0    0    0  501 -0.00000000000E+00 -0.00000000000E+00 -0.15087162314E+02  0.15087162314E+02  0.00000000000E+00 0. -1.
         23    2    1    2    0    0  0.36527081409E+02 -0.72727816405E+02  0.53178255506E+03  0.54579640111E+03  0.92073137465E+02 0.  0.
          5    1    1    2  502    0 -0.31122180663E+02 -0.29914741073E+01  0.49744246461E+03  0.49844158840E+03  0.41800000000E+01 0. -1.
         -5    1    1    2    0  502 -0.54049007457E+01  0.75719290512E+02  0.18303870945E+03  0.19820006424E+03  0.41800000000E+01 0. -1.
        -11    1    3    3    0    0 -0.30340068260E+02 -0.19697455969E+02  0.12344837965E+03  0.12863907631E+03  0.00000000000E+00 0.  1.
         11    1    3    3    0    0  0.66867149669E+02 -0.53030360436E+02  0.40833417541E+03  0.41715732481E+03  0.00000000000E+00 0. -1.
</event>
<event>
 8    1  0.6689467E-009  0.1576545E+03  0.7561462E-02  0.1191370E+00
         -2   -1    0    0    0  501 -0.00000000000E+00  0.00000000000E+00  0.36997315836E+02  0.36997315836E+02  0.00000000000E+00 0.  1.
          2   -1    0    0  501    0  0.00000000000E+00 -0.00000000000E+00 -0.87056316000E+03  0.87056316000E+03  0.00000000000E+00 0. -1.
         25    2    1    2    0    0 -0.13057429826E+03  0.51442326457E+01 -0.58396133532E+03  0.61133941161E+03  0.12509566156E+03 0.  0.
         23    2    1    2    0    0  0.13057429826E+03 -0.51442326457E+01 -0.24960450885E+03  0.29622106423E+03  0.91478946004E+02 0.  0.
          5    1    3    3  502    0  0.12974109117E+02  0.14397157282E+02 -0.20529297053E+03  0.20624810737E+03  0.41800000000E+01 0. -1.
         -5    1    3    3    0  502 -0.14354840738E+03 -0.92529246361E+01 -0.37866836479E+03  0.40509130424E+03  0.41800000000E+01 0. -1.
        -11    1    4    4    0    0  0.95761767982E+02  0.31713698805E+02 -0.11830973462E+03  0.15547754888E+03  0.00000000000E+00 0.  1.
         11    1    4    4    0    0  0.34812530278E+02 -0.36857931451E+02 -0.13129477422E+03  0.14074351535E+03  0.00000000000E+00 0. -1.
</event>
<event>
 8    1  0.6689467E-009  0.1431863E+03  0.7561462E-02  0.1209105E+00
         -1   -1    0    0    0  501 -0.00000000000E+00  0.00000000000E+00  0.36144972374E+02  0.36144972374E+02  0.00000000000E+00 0.  1.
          1   -1    0    0  501    0  0.00000000000E+00 -0.00000000000E+00 -0.70758886806E+03  0.70758886806E+03  0.00000000000E+00 0. -1.
         25    2    1    2    0    0  0.76859059838E+02 -0.77445216620E+02 -0.46209400075E+03  0.49100282590E+03  0.12509129809E+03 0.  0.
         23    2    1    2    0    0 -0.76859059838E+02  0.77445216620E+02 -0.20934989493E+03  0.25273101453E+03  0.90224777863E+02 0.  0.
          5    1    3    3  502    0 -0.19742215061E+02  0.66109342053E+01 -0.15222401905E+02  0.26127637213E+02  0.41800000000E+01 0.  1.
         -5    1    3    3    0  502  0.96601274899E+02 -0.84056150825E+02 -0.44687159885E+03  0.46487518869E+03  0.41800000000E+01 0.  1.
        -11    1    4    4    0    0 -0.41429727519E+02  0.90282255723E+02 -0.17743837648E+03  0.20335113835E+03  0.00000000000E+00 0. -1.
         11    1    4    4    0    0 -0.35429332318E+02 -0.12837039103E+02 -0.31911518452E+02  0.49379876178E+02  0.00000000000E+00 0.  1.
</event>
<event>
 8    1  0.6689467E-009  0.1240585E+03  0.7561462E-02  0.1236548E+00
         -2   -1    0    0    0  501 -0.00000000000E+00  0.00000000000E+00  0.17659217315E+03  0.17659217315E+03  0.00000000000E+00 0.  1.
          2   -1    0    0  501    0  0.00000000000E+00 -0.00000000000E+00 -0.13452522660E+03  0.13452522660E+03  0.00000000000E+00 0. -1.
         25    2    1    2    0    0 -0.27314788464E+02 -0.76112481987E+02 -0.51406992425E+02  0.15757190270E+03  0.12508804126E+03 0.  0.
         23    2    1    2    0    0  0.27314788464E+02  0.76112481987E+02  0.93473938982E+02  0.15354549705E+03  0.91102331540E+02 0.  0.
          5    1    3    3  502    0 -0.29539562906E+02 -0.10777286654E+03 -0.56281339608E+02  0.12519040749E+03  0.41800000000E+01 0.  1.
         -5    1    3    3    0  502  0.22247744422E+01  0.31660384556E+02  0.48743471822E+01  0.32381495210E+02  0.41800000000E+01 0.  1.
        -11    1    4    4    0    0  0.34046288050E+02  0.68988779279E+01 -0.27238159430E+01  0.34844847825E+02  0.00000000000E+00 0. -1.
         11    1    4    4    0    0 -0.67314995860E+01  0.69213604059E+02  0.96197754925E+02  0.11870064922E+03  0.00000000000E+00 0.  1.
</event>
<event>
 8    1  0.6689467E-009  0.1315525E+03  0.7561462E-02  0.1225170E+00
         -2   -1    0    0    0  501 -0.00000000000E+00  0.00000000000E+00  0.25963174716E+02  0.25963174716E+02  0.00000000000E+00 0.  1.
          2   -1    0    0  501    0  0.00000000000E+00 -0.00000000000E+00 -0.82083468337E+03  0.82083468337E+03  0.00000000000E+00 0. -1.
         25    2    1    2    0    0  0.78607224946E+02  0.29951643777E+02 -0.30997461141E+03  0.34468471457E+03  0.12508835261E+03 0.  0.
         23    2    1    2    0    0 -0.78607224946E+02 -0.29951643777E+02 -0.48489689724E+03  0.50211314351E+03  0.99581178749E+02 0.  0.
          5    1    3    3  502    0 -0.32633336541E+02 -0.65480313656E+01 -0.72637925016E+02  0.80009698907E+02  0.41800000000E+01 0. -1.
         -5    1    3    3    0  502  0.11124056149E+03  0.36499675143E+02 -0.23733668640E+03  0.26467501566E+03  0.41800000000E+01 0. -1.
        -11    1    4    4    0    0 -0.51381708968E+02 -0.55104802330E+02 -0.42535677576E+03  0.43197801557E+03  0.00000000000E+00 0. -1.
         11    1    4    4    0    0 -0.27225515978E+02  0.25153158553E+02 -0.59540121480E+02  0.70135127941E+02  0.00000000000E+00 0.  1.
</event>
<event>
 8    1  0.6689467E-009  0.6542281E+02  0.7561462E-02  0.1376388E+00
         -4   -1    0    0    0  501 -0.00000000000E+00  0.00000000000E+00  0.39087392529E+03  0.39087392529E+03  0.00000000000E+00 0.  1.
          4   -1    0    0  501    0  0.00000000000E+00 -0.00000000000E+00 -0.36922306002E+02  0.36922306002E+02  0.00000000000E+00 0. -1.
         25    2    1    2    0    0  0.88751656734E+01 -0.40340192203E+02  0.14689107012E+03  0.19730889946E+03  0.12509082961E+03 0.  0.
         23    2    1    2    0    0 -0.88751656734E+01  0.40340192203E+02  0.20706054917E+03  0.23048733184E+03  0.92435055261E+02 0.  0.
          5    1    3    3  502    0  0.21905897936E+02 -0.12396370036E+02 -0.16889822026E+02  0.30598641188E+02  0.41800000000E+01 0. -1.
         -5    1    3    3    0  502 -0.13030732262E+02 -0.27943822167E+02  0.16378089215E+03  0.16671025827E+03  0.41800000000E+01 0. -1.
        -11    1    4    4    0    0 -0.30562642461E+02  0.25807114530E+01  0.16129878168E+02  0.34654121768E+02  0.00000000000E+00 0.  1.
         11    1    4    4    0    0  0.21687476787E+02  0.37759480750E+02  0.19093067100E+03  0.19583321007E+03  0.00000000000E+00 0. -1.
</event>
<event>
 8    1  0.6689467E-009  0.1036433E+03  0.7561462E-02  0.1272816E+00
          2   -1    0    0  501    0  0.00000000000E+00  0.00000000000E+00  0.43403037240E+03  0.43403037240E+03  0.00000000000E+00 0.  1.
         -2   -1    0    0    0  501 -0.00000000000E+00 -0.00000000000E+00 -0.32934419482E+02  0.32934419482E+02  0.00000000000E+00 0. -1.
         25    2    1    2    0    0  0.30131805823E+02 -0.21921602516E+02  0.29174433176E+03  0.31960817323E+03  0.12508455901E+03 0.  0.
         23    2    1    2    0    0 -0.30131805823E+02  0.21921602516E+02  0.10935162115E+03  0.14735661865E+03  0.91475207740E+02 0.  0.
          5    1    3    3  502    0 -0.30412942438E+02  0.21444892682E+02  0.31654516810E+02  0.49033777382E+02  0.41800000000E+01 0.  1.
         -5    1    3    3    0  502  0.60544748261E+02 -0.43366495199E+02  0.26008981495E+03  0.27057439585E+03  0.41800000000E+01 0.  1.
        -11    1    4    4    0    0 -0.47899970469E+02 -0.18300349990E+02  0.78029211859E+02  0.93369523315E+02  0.00000000000E+00 0. -1.
         11    1    4    4    0    0  0.17768164646E+02  0.40221952507E+02  0.31322409294E+02  0.53987095332E+02  0.00000000000E+00 0.  1.
</event>
<event>
 8    1  0.6689467E-009  0.1341015E+03  0.7561462E-02  0.1221494E+00
          1   -1    0    0  501    0  0.00000000000E+00  0.00000000000E+00  0.24040057726E+03  0.24040057726E+03  0.00000000000E+00 0. -1.
         -1   -1    0    0    0  501 -0.00000000000E+00 -0.00000000000E+00 -0.93631916979E+02  0.93631916979E+02  0.00000000000E+00 0.  1.
         25    2    1    2    0    0  0.71058532816E+02 -0.38876854228E+02  0.14344204522E+03  0.20685159594E+03  0.12510490608E+03 0.  0.
         23    2    1    2    0    0 -0.71058532816E+02  0.38876854228E+02  0.33266150638E+01  0.12718089830E+03  0.97995865448E+02 0.  0.
          5    1    3    3  502    0  0.12065215331E+02  0.42036096079E+02  0.69828660590E+02  0.82499194143E+02  0.41800000000E+01 0. -1.
         -5    1    3    3    0  502  0.58993317485E+02 -0.80912950307E+02  0.73613384629E+02  0.12435240179E+03  0.41800000000E+01 0. -1.
        -11    1    4    4    0    0 -0.62564858627E+02  0.68769945052E+02 -0.97178440241E+01  0.93477822878E+02  0.00000000000E+00 0. -1.
         11    1    4    4    0    0 -0.84936741889E+01 -0.29893090824E+02  0.13044459088E+02  0.33703075426E+02  0.00000000000E+00 0.  1.
</event>
<event>
 8    1  0.6689467E-009  0.1015630E+03  0.7561462E-02  0.1277043E+00
          3   -1    0    0  501    0  0.00000000000E+00  0.00000000000E+00  0.82664456385E+02  0.82664456385E+02  0.00000000000E+00 0. -1.
         -3   -1    0    0    0  501 -0.00000000000E+00 -0.00000000000E+00 -0.22277541225E+03  0.22277541225E+03  0.00000000000E+00 0.  1.
         25    2    1    2    0    0  0.16080845043E+02 -0.56407833099E+02 -0.13993576248E+03  0.19663663496E+03  0.12507402359E+03 0.  0.
         23    2    1    2    0    0 -0.16080845043E+02  0.56407833099E+02 -0.17519339136E+00  0.10880323367E+03  0.91638833213E+02 0.  0.
          5    1    3    3  502    0  0.41072274631E+02  0.13682684643E+02 -0.67469528586E+01  0.44012968263E+02  0.41800000000E+01 0. -1.
         -5    1    3    3    0  502 -0.24991429588E+02 -0.70090517743E+02 -0.13318880962E+03  0.15262366670E+03  0.41800000000E+01 0. -1.
        -11    1    4    4    0    0  0.23342216604E+02  0.14078980665E+02  0.32460240028E+02  0.42388016647E+02  0.00000000000E+00 0. -1.
         11    1    4    4    0    0 -0.39423061647E+02  0.42328852434E+02 -0.32635433420E+02  0.66415217025E+02  0.00000000000E+00 0.  1.
</event>
<event>
 8    1  0.6689467E-009  0.8299143E+02  0.7561462E-02  0.1320770E+00
         -1   -1    0    0    0  501 -0.00000000000E+00  0.00000000000E+00  0.90961200377E+02  0.90961200377E+02  0.00000000000E+00 0.  1.
          1   -1    0    0  501    0  0.00000000000E+00 -0.00000000000E+00 -0.15929988598E+03  0.15929988598E+03  0.00000000000E+00 0. -1.
         25    2    1    2    0    0  0.81228157306E+01  0.18054345084E+02 -0.87251496856E+02  0.15378879346E+03  0.12508489029E+03 0.  0.
         23    2    1    2    0    0 -0.81228157306E+01 -0.18054345084E+02  0.18912811255E+02  0.96472292896E+02  0.92505509864E+02 0.  0.
          5    1    3    3  502    0  0.61453206597E+02  0.17215065881E+02 -0.75619125217E+02  0.99038273375E+02  0.41800000000E+01 0. -1.
         -5    1    3    3    0  502 -0.53330390867E+02  0.83927920343E+00 -0.11632371639E+02  0.54750520085E+02  0.41800000000E+01 0. -1.
        -11    1    4    4    0    0  0.77279633400E+01 -0.28509487291E+02  0.51145438151E+02  0.59062408744E+02  0.00000000000E+00 0.  1.
         11    1    4    4    0    0 -0.15850779071E+02  0.10455142207E+02 -0.32232626895E+02  0.37409884152E+02  0.00000000000E+00 0. -1.
</event>
<event>
 8    1  0.6689467E-009  0.1564974E+03  0.7561462E-02  0.1192709E+00
          3   -1    0    0  501    0  0.00000000000E+00  0.00000000000E+00  0.13212190397E+03  0.13212190397E+03  0.00000000000E+00 0. -1.
         -3   -1    0    0    0  501 -0.00000000000E+00 -0.00000000000E+00 -0.31643242912E+03  0.31643242912E+03  0.00000000000E+00 0.  1.
         25    2    1    2    0    0 -0.19747769924E+02 -0.13427289294E+03 -0.22304015734E+03  0.28948638269E+03  0.12504507101E+03 0.  0.
         23    2    1    2    0    0  0.19747769924E+02  0.13427289294E+03  0.38729632190E+02  0.15906795040E+03  0.73371958126E+02 0.  0.
          5    1    3    3  502    0 -0.46173173296E+02 -0.28788292596E+02 -0.18190303971E+02  0.57524666721E+02  0.41800000000E+01 0. -1.
         -5    1    3    3    0  502  0.26425403371E+02 -0.10548460034E+03 -0.20484985336E+03  0.23196171597E+03  0.41800000000E+01 0. -1.
        -11    1    4    4    0    0 -0.23074254987E+02  0.50080542045E+02 -0.42265151826E+01  0.55302308860E+02  0.00000000000E+00 0.  1.
         11    1    4    4    0    0  0.42822024912E+02  0.84192350893E+02  0.42956147373E+02  0.10376564154E+03  0.00000000000E+00 0. -1.
</event>
<event>
 8    1  0.6689467E-009  0.1708830E+03  0.7561462E-02  0.1176930E+00
         -1   -1    0    0    0  501 -0.00000000000E+00  0.00000000000E+00  0.38154115756E+03  0.38154115756E+03  0.00000000000E+00 0.  1.
          1   -1    0    0  501    0  0.00000000000E+00 -0.00000000000E+00 -0.94234417237E+02  0.94234417237E+02  0.00000000000E+00 0. -1.
         25    2    1    2    0    0  0.12594926238E+03 -0.58436617934E+02  0.23742667061E+03  0.30215379173E+03  0.12508970752E+03 0.  0.
         23    2    1    2    0    0 -0.12594926238E+03  0.58436617934E+02  0.49880069712E+02  0.17362178307E+03  0.91533858172E+02 0.  0.
          5    1    3    3  502    0  0.11044594443E+03  0.13459173620E+02  0.12149571445E+03  0.16479726037E+03  0.41800000000E+01 0. -1.
         -5    1    3    3    0  502  0.15503317953E+02 -0.71895791554E+02  0.11593095616E+03  0.13735653136E+03  0.41800000000E+01 0. -1.
        -11    1    4    4    0    0 -0.10052887104E+03  0.75859575071E+02  0.62163607523E+02  0.14044587264E+03  0.00000000000E+00 0.  1.
         11    1    4    4    0    0 -0.25420391343E+02 -0.17422957138E+02 -0.12283537811E+02  0.33175910426E+02  0.00000000000E+00 0. -1.
</event>
<event>
 8    1  0.6689467E-009  0.1390497E+03  0.7561462E-02  0.1214613E+00
          1   -1    0    0  501    0  0.00000000000E+00  0.00000000000E+00  0.94398934032E+03  0.94398934032E+03  0.00000000000E+00 0. -1.
         -1   -1    0    0    0  501 -0.00000000000E+00 -0.00000000000E+00 -0.21272749933E+02  0.21272749933E+02  0.00000000000E+00 0.  1.
         25    2    1    2    0    0  0.75675440341E+02 -0.47330724081E+02  0.55874916284E+03  0.57949620788E+03  0.12509299846E+03 0.  0.
         23    2    1    2    0    0 -0.75675440341E+02  0.47330724081E+02  0.36396742755E+03  0.38576588237E+03  0.91520806227E+02 0.  0.
          5    1    3    3  502    0  0.11037794828E+03 -0.29704220684E+02  0.42698755443E+03  0.44204239189E+03  0.41800000000E+01 0. -1.
         -5    1    3    3    0  502 -0.34702507939E+02 -0.17626503397E+02  0.13176160841E+03  0.13745381599E+03  0.41800000000E+01 0. -1.
        -11    1    4    4    0    0 -0.13866585312E+02  0.59911620604E+02  0.13645942046E+03  0.14967584275E+03  0.00000000000E+00 0.  1.
         11    1    4    4    0    0 -0.61808855029E+02 -0.12580896523E+02  0.22750800709E+03  0.23609003962E+03  0.00000000000E+00 0. -1.
</event>
<event>
 8    1  0.6689467E-009  0.1842912E+03  0.7561462E-02  0.1163713E+00
          2   -1    0    0  501    0  0.00000000000E+00  0.00000000000E+00  0.47894920366E+03  0.47894920366E+03  0.00000000000E+00 0. -1.
         -2   -1    0    0    0  501 -0.00000000000E+00 -0.00000000000E+00 -0.92223738359E+02  0.92223738359E+02  0.00000000000E+00 0.  1.
         25    2    1    2    0    0 -0.72355609242E+02  0.16151101628E+03  0.24297916391E+03  0.32558782282E+03  0.12508962269E+03 0.  0.
         23    2    1    2    0    0  0.72355609242E+02 -0.16151101628E+03  0.14374630139E+03  0.24558511920E+03  0.91257378005E+02 0.  0.
          5    1    3    3  502    0 -0.11185496585E+02  0.61912105436E+01 -0.13811718517E+02  0.19279066114E+02  0.41800000000E+01 0.  1.
         -5    1    3    3    0  502 -0.61170112657E+02  0.15531980574E+03  0.25679088242E+03  0.30630875670E+03  0.41800000000E+01 0.  1.
        -11    1    4    4    0    0 -0.78254980442E+01 -0.51093630454E+02  0.65873260109E+01  0.52107488489E+02  0.00000000000E+00 0.  1.
         11    1    4    4    0    0  0.80181107286E+02 -0.11041738583E+03  0.13715897538E+03  0.19347763071E+03  0.00000000000E+00 0. -1.
</event>
<event>
 8    1  0.6689467E-009  0.2531298E+03  0.7561462E-02  0.1111343E+00
          1   -1    0    0  501    0  0.00000000000E+00  0.00000000000E+00  0.12160742313E+04  0.12160742313E+04  0.00000000000E+00 0. -1.
         -1   -1    0    0    0  501 -0.00000000000E+00 -0.00000000000E+00 -0.81925174360E+02  0.81925174360E+02  0.00000000000E+00 0.  1.
         25    2    1    2    0    0  0.23260596957E+03 -0.95608906419E+02  0.25604212162E+03  0.38006918157E+03  0.12509362361E+03 0.  0.
         23    2    1    2    0    0 -0.23260596957E+03  0.95608906419E+02  0.87810693529E+03  0.91793022406E+03  0.90980802205E+02 0.  0.
          5    1    3    3  502    0  0.12132363504E+03 -0.38817895377E+02  0.45721697298E+02  0.13540383829E+03  0.41800000000E+01 0. -1.
         -5    1    3    3    0  502  0.11128233454E+03 -0.56791011042E+02  0.21032042432E+03  0.24466534328E+03  0.41800000000E+01 0. -1.
        -11    1    4    4    0    0 -0.13154299519E+02  0.15156535567E+02  0.19148102981E+02  0.27738168901E+02  0.00000000000E+00 0.  1.
         11    1    4    4    0    0 -0.21945167005E+03  0.80452370852E+02  0.85895883231E+03  0.89019205516E+03  0.00000000000E+00 0. -1.
</event>
<event>
 8    1  0.6689467E-009  0.9845947E+02  0.7561462E-02  0.1283569E+00
          1   -1    0    0  501    0  0.00000000000E+00  0.00000000000E+00  0.17832081677E+03  0.17832081677E+03  0.00000000000E+00 0. -1.
         -1   -1    0    0    0  501 -0.00000000000E+00 -0.00000000000E+00 -0.82361231192E+02  0.82361231192E+02  0.00000000000E+00 0.  1.
         25    2    1    2    0    0 -0.25903478607E+02  0.40900084173E+02  0.33469489733E+02  0.13824393325E+03  0.12508945299E+03 0.  0.
         23    2    1    2    0    0  0.25903478607E+02 -0.40900084173E+02  0.62490095847E+02  0.12243811471E+03  0.93500121741E+02 0.  0.
          5    1    3    3  502    0  0.19139624880E+02  0.52639819470E+02  0.61865104056E+02  0.83558598206E+02  0.41800000000E+01 0.  1.
         -5    1    3    3    0  502 -0.45043103486E+02 -0.11739735296E+02 -0.28395614323E+02  0.54685335048E+02  0.41800000000E+01 0.  1.
        -11    1    4    4    0    0 -0.12060034833E+02  0.19351753521E+02 -0.60579149607E+01  0.23593073945E+02  0.00000000000E+00 0.  1.
         11    1    4    4    0    0  0.37963513439E+02 -0.60251837694E+02  0.68548010808E+02  0.98845040765E+02  0.00000000000E+00 0. -1.
</event>
<event>
 8    1  0.6689467E-009  0.1348608E+03  0.7561462E-02  0.1220416E+00
         -2   -1    0    0    0  501 -0.00000000000E+00  0.00000000000E+00  0.22234354362E+02  0.22234354362E+02  0.00000000000E+00 0.  1.
          2   -1    0    0  501    0  0.00000000000E+00 -0.00000000000E+00 -0.11695012060E+04  0.11695012060E+04  0.00000000000E+00 0. -1.
         25    2    1    2    0    0 -0.10881782012E+03 -0.17420375195E+01 -0.80126841856E+03  0.81824566990E+03  0.12510213846E+03 0.  0.
         23    2    1    2    0    0  0.10881782012E+03  0.17420375195E+01 -0.34599843311E+03  0.37348989050E+03  0.89081030087E+02 0.  0.
          5    1    3    3  502    0 -0.83684085764E+02  0.33756550513E+02 -0.72287128979E+03  0.72849358605E+03  0.41800000000E+01 0. -1.
         -5    1    3    3    0  502 -0.25133734355E+02 -0.35498588033E+02 -0.78397128770E+02  0.89752083844E+02  0.41800000000E+01 0. -1.
        -11    1    4    4    0    0  0.11906970601E+03 -0.10725431760E+02 -0.26245175038E+03  0.28839825078E+03  0.00000000000E+00 0. -1.
         11    1    4    4    0    0 -0.10251885896E+02  0.12467469279E+02 -0.83546682734E+02  0.85091639722E+02  0.00000000000E+00 0.  1.
</event>
<event>
 8    1  0.6689467E-009  0.2381796E+03  0.7561462E-02  0.1121011E+00
         -2   -1    0    0    0  501 -0.00000000000E+00  0.00000000000E+00  0.83549828074E+02  0.83549828074E+02  0.00000000000E+00 0.  1.
          2   -1    0    0  501    0  0.00000000000E+00 -0.00000000000E+00 -0.98330002894E+03  0.98330002894E+03  0.00000000000E+00 0. -1.
         25    2    1    2    0    0 -0.31357962933E+02  0.22958138124E+03 -0.69824421611E+03  0.74625224002E+03  0.12512588843E+03 0.  0.
         23    2    1    2    0    0  0.31357962933E+02 -0.22958138124E+03 -0.20150598476E+03  0.32059761700E+03  0.92126205165E+02 0.  0.
          5    1    3    3  502    0 -0.27609076083E+02  0.12539892466E+03 -0.55107541111E+03  0.56585221792E+03  0.41800000000E+01 0.  1.
         -5    1    3    3    0  502 -0.37488868502E+01  0.10418245658E+03 -0.14716880500E+03  0.18040002210E+03  0.41800000000E+01 0.  1.
        -11    1    4    4    0    0  0.54782988213E+02 -0.18811641788E+03 -0.18691547963E+03  0.27078840263E+03  0.00000000000E+00 0. -1.
         11    1    4    4    0    0 -0.23425025280E+02 -0.41464963356E+02 -0.14590505128E+02  0.49809214362E+02  0.00000000000E+00 0.  1.
</event>
<event>
 8    1  0.6689467E-009  0.1101517E+03  0.7561462E-02  0.1260289E+00
         -2   -1    0    0    0  501 -0.00000000000E+00  0.00000000000E+00  0.20639832620E+02  0.20639832620E+02  0.00000000000E+00 0. -1.
          2   -1    0    0  501    0  0.00000000000E+00 -0.00000000000E+00 -0.11337356496E+04  0.11337356496E+04  0.00000000000E+00 0.  1.
         25    2    1    2    0    0 -0.52454982829E+02 -0.69633939126E+02 -0.83605409330E+03  0.84984239990E+03  0.12508096194E+03 0.  0.
         23    2    1    2    0    0  0.52454982829E+02  0.69633939126E+02 -0.27704172368E+03  0.30453308232E+03  0.91585320150E+02 0.  0.
          5    1    3    3  502    0 -0.36045558452E+02 -0.12340714844E+02 -0.58136357096E+02  0.69633928106E+02  0.41800000000E+01 0. -1.
         -5    1    3    3    0  502 -0.16409424377E+02 -0.57293224282E+02 -0.77791773621E+03  0.78020847180E+03  0.41800000000E+01 0. -1.
        -11    1    4    4    0    0  0.38462460131E+02  0.89797999395E+02 -0.24777547919E+03  0.26633762337E+03  0.00000000000E+00 0.  1.
         11    1    4    4    0    0  0.13992522698E+02 -0.20164060269E+02 -0.29266244494E+02  0.38195458955E+02  0.00000000000E+00 0. -1.
</event>
<event>
 8    1  0.6689467E-009  0.8681996E+02  0.7561462E-02  0.1310741E+00
          1   -1    0    0  501    0  0.00000000000E+00  0.00000000000E+00  0.13016105271E+03  0.13016105271E+03  0.00000000000E+00 0. -1.
         -1   -1    0    0    0  501 -0.00000000000E+00 -0.00000000000E+00 -0.90014235191E+02  0.90014235191E+02  0.00000000000E+00 0.  1.
         25    2    1    2    0    0 -0.80391355813E+01  0.38775441935E+01  0.36576201502E+02  0.13062812219E+03  0.12508487015E+03 0.  0.
         23    2    1    2    0    0  0.80391355813E+01 -0.38775441935E+01  0.35706160208E+01  0.89547165714E+02  0.89029672238E+02 0.  0.
          5    1    3    3  502    0 -0.48978760877E+02  0.29380928839E+02 -0.15695658424E+02  0.59379997388E+02  0.41800000000E+01 0. -1.
         -5    1    3    3    0  502  0.40939625296E+02 -0.25503384645E+02  0.52271859926E+02  0.71248124802E+02  0.41800000000E+01 0. -1.
        -11    1    4    4    0    0  0.36293270779E+02  0.82361396227E+01 -0.27165446196E+02  0.46075991219E+02  0.00000000000E+00 0.  1.
         11    1    4    4    0    0 -0.28254135198E+02 -0.12113683816E+02  0.30736062217E+02  0.43471174495E+02  0.00000000000E+00 0. -1.
</event>
<event>
 8    1  0.6689467E-009  0.1138833E+03  0.7561462E-02  0.1253543E+00
         -1   -1    0    0    0  501 -0.00000000000E+00  0.00000000000E+00  0.11729002934E+03  0.11729002934E+03  0.00000000000E+00 0.  1.
          1   -1    0    0  501    0  0.00000000000E+00 -0.00000000000E+00 -0.17340535556E+03  0.17340535556E+03  0.00000000000E+00 0. -1.
         25    2    1    2    0    0  0.31671957628E+02 -0.77807335885E+02 -0.67260304581E+02  0.16501187431E+03  0.12509146923E+03 0.  0.
         23    2    1    2    0    0 -0.31671957628E+02  0.77807335885E+02  0.11144978359E+02  0.12568351059E+03  0.92817239101E+02 0.  0.
          5    1    3    3  502    0  0.56234916977E+02 -0.94687495256E+02 -0.75764318307E+02  0.13373777318E+03  0.41800000000E+01 0.  1.
         -5    1    3    3    0  502 -0.24562959349E+02  0.16880159371E+02  0.85040137259E+01  0.31274101136E+02  0.41800000000E+01 0.  1.
        -11    1    4    4    0    0 -0.33510838668E+01  0.40431980346E+02  0.50278914071E+02  0.64606067810E+02  0.00000000000E+00 0.  1.
         11    1    4    4    0    0 -0.28320873762E+02  0.37375355539E+02 -0.39133935712E+02  0.61077442781E+02  0.00000000000E+00 0. -1.
</event>
<event>
 8    1  0.6689467E-009  0.6471919E+02  0.7561462E-02  0.1379031E+00
          1   -1    0    0  501    0  0.00000000000E+00  0.00000000000E+00  0.71123054732E+02  0.71123054732E+02  0.00000000000E+00 0.  1.
         -1   -1    0    0    0  501 -0.00000000000E+00 -0.00000000000E+00 -0.17060620486E+03  0.17060620486E+03  0.00000000000E+00 0. -1.
         25    2    1    2    0    0  0.17886264154E+02 -0.38554854618E+01 -0.46743897309E+02  0.13478495970E+03  0.12508880931E+03 0.  0.
         23    2    1    2    0    0 -0.17886264154E+02  0.38554854618E+01 -0.52739252821E+02  0.10694429989E+03  0.91218809886E+02 0.  0.
          5    1    3    3  502    0  0.33720551324E+01 -0.19654147661E+02 -0.86796941453E+02  0.89156254529E+02  0.41800000000E+01 0. -1.
         -5    1    3    3    0  502  0.14514209021E+02  0.15798662199E+02  0.40053044144E+02  0.45628705176E+02  0.41800000000E+01 0. -1.
        -11    1    4    4    0    0 -0.44861849462E+02 -0.21889558798E+02 -0.11267132587E+02  0.51173104247E+02  0.00000000000E+00 0.  1.
         11    1    4    4    0    0  0.26975585308E+02  0.25745044260E+02 -0.41472120234E+02  0.55771195642E+02  0.00000000000E+00 0. -1.
</event>
<event>
 8    1  0.6689467E-009  0.9090946E+02  0.7561462E-02  0.1300664E+00
          1   -1    0    0  501    0  0.00000000000E+00  0.00000000000E+00  0.14507789282E+03  0.14507789282E+03  0.00000000000E+00 0. -1.
         -1   -1    0    0    0  501 -0.00000000000E+00 -0.00000000000E+00 -0.88448270755E+02  0.88448270755E+02  0.00000000000E+00 0.  1.
         25    2    1    2    0    0  0.24397875296E+02  0.23067838080E+02  0.39050203644E+02  0.13527519457E+03  0.12508828238E+03 0.  0.
         23    2    1    2    0    0 -0.24397875296E+02 -0.23067838080E+02  0.17579418423E+02  0.98250969007E+02  0.90646762138E+02 0.  0.
          5    1    3    3  502    0  0.52833677470E+02 -0.91742700315E+01  0.65401857611E+02  0.84678451122E+02  0.41800000000E+01 0. -1.
         -5    1    3    3    0  502 -0.28435802173E+02  0.32242108111E+02 -0.26351653967E+02  0.50596743448E+02  0.41800000000E+01 0. -1.
        -11    1    4    4    0    0  0.12027007084E+02  0.23093370113E+02  0.28326592552E+02  0.38475297116E+02  0.00000000000E+00 0. -1.
         11    1    4    4    0    0 -0.36424882380E+02 -0.46161208193E+02 -0.10747174129E+02  0.59775671891E+02  0.00000000000E+00 0.  1.
</event>
<event>
 8    1  0.6689467E-009  0.2840777E+03  0.7561462E-02  0.1093482E+00
          2   -1    0    0  501    0  0.00000000000E+00  0.00000000000E+00  0.11573111687E+03  0.11573111687E+03  0.00000000000E+00 0.  1.
         -2   -1    0    0    0  501 -0.00000000000E+00 -0.00000000000E+00 -0.78422705090E+03  0.78422705090E+03  0.00000000000E+00 0. -1.
         25    2    1    2    0    0 -0.73127108389E+01 -0.27504401759E+03 -0.25657578246E+03  0.39645836505E+03  0.12508163623E+03 0.  0.
         23    2    1    2    0    0  0.73127108389E+01  0.27504401759E+03 -0.41192015157E+03  0.50349980272E+03  0.90172904601E+02 0.  0.
          5    1    3    3  502    0 -0.22052141735E+02 -0.13222586543E+02 -0.69735120828E+02  0.74441878180E+02  0.41800000000E+01 0.  1.
         -5    1    3    3    0  502  0.14739430897E+02 -0.26182143105E+03 -0.18684066164E+03  0.32201648688E+03  0.41800000000E+01 0.  1.
        -11    1    4    4    0    0  0.29432035399E+02  0.16025859161E+03 -0.17380323120E+03  0.23823648769E+03  0.00000000000E+00 0.  1.
         11    1    4    4    0    0 -0.22119324560E+02  0.11478542598E+03 -0.23811692036E+03  0.26526331503E+03  0.00000000000E+00 0. -1.
</event>
<event>
 8    1  0.6689467E-009  0.1031859E+03  0.7561462E-02  0.1273736E+00
          1   -1    0    0  501    0  0.00000000000E+00  0.00000000000E+00  0.55657953763E+03  0.55657953763E+03  0.00000000000E+00 0. -1.
         -1   -1    0    0    0  501 -0.00000000000E+00 -0.00000000000E+00 -0.26289951042E+02  0.26289951042E+02  0.00000000000E+00 0.  1.
         25    2    1    2    0    0  0.18815319959E+02 -0.49674321585E+02  0.28837783577E+03  0.31879591377E+03  0.12508998355E+03 0.  0.
         23    2    1    2    0    0 -0.18815319959E+02  0.49674321585E+02  0.24191175082E+03  0.26407357490E+03  0.91607877863E+02 0.  0.
          5    1    3    3  502    0 -0.40033342959E+02  0.79371579030E+01  0.40854745216E+02  0.57898615102E+02  0.41800000000E+01 0.  1.
         -5    1    3    3    0  502  0.58848662918E+02 -0.57611479488E+02  0.24752309055E+03  0.26089729867E+03  0.41800000000E+01 0.  1.
        -11    1    4    4    0    0 -0.40280687803E+02  0.45938325285E+02  0.23240500109E+03  0.24030178541E+03  0.00000000000E+00 0. -1.
         11    1    4    4    0    0  0.21465367844E+02  0.37359963001E+01  0.95067497245E+01  0.23771789486E+02  0.00000000000E+00 0.  1.
</event>
<event>
 8    1  0.6689467E-009  0.1248788E+03  0.7561462E-02  0.1235259E+00
         -4   -1    0    0    0  501 -0.00000000000E+00  0.00000000000E+00  0.16071925827E+02  0.16071925827E+02  0.00000000000E+00 0.  1.
          4   -1    0    0  501    0  0.00000000000E+00 -0.00000000000E+00 -0.11502237548E+04  0.11502237548E+04  0.00000000000E+00 0. -1.
         25    2    1    2    0    0 -0.15608361797E+02 -0.82924023082E+02 -0.61259427477E+03  0.63090365656E+03  0.12509062245E+03 0.  0.
         23    2    1    2    0    0  0.15608361797E+02  0.82924023082E+02 -0.52155755425E+03  0.53539202411E+03  0.86615948434E+02 0.  0.
          5    1    3    3  502    0  0.18739597488E+02 -0.91248206898E+02 -0.55797680040E+03  0.56571458348E+03  0.41800000000E+01 0.  1.
         -5    1    3    3    0  502 -0.34347959285E+02  0.83241838158E+01 -0.54617474370E+02  0.65189073086E+02  0.41800000000E+01 0.  1.
        -11    1    4    4    0    0 -0.33211754405E+02  0.56165707411E+02 -0.28100482371E+03  0.28848105357E+03  0.00000000000E+00 0. -1.
         11    1    4    4    0    0  0.48820116202E+02  0.26758315671E+02 -0.24055273054E+03  0.24691097054E+03  0.00000000000E+00 0.  1.
</event>
<event>
 8    1  0.6689467E-009  0.1050261E+03  0.7561462E-02  0.1270068E+00
          2   -1    0    0  501    0  0.00000000000E+00  0.00000000000E+00  0.47000517034E+03  0.47000517034E+03  0.00000000000E+00 0. -1.
         -2   -1    0    0    0  501 -0.00000000000E+00 -0.00000000000E+00 -0.46873740681E+02  0.46873740681E+02  0.00000000000E+00 0.  1.
         25    2    1    2    0    0  0.74447655618E+02 -0.19828227208E+02  0.34081762506E+03  0.37112913499E+03  0.12507825255E+03 0.  0.
         23    2    1    2    0    0 -0.74447655618E+02  0.19828227208E+02  0.82313804600E+02  0.14574977604E+03  0.92367866526E+02 0.  0.
          5    1    3    3  502    0  0.65325951250E+02  0.69245839009E+01  0.33571145701E+03  0.34210390898E+03  0.41800000000E+01 0.  1.
         -5    1    3    3    0  502  0.91217043677E+01 -0.26752811109E+02  0.51061680547E+01  0.29025226011E+02  0.41800000000E+01 0.  1.
        -11    1    4    4    0    0 -0.16199760572E+02  0.48210891596E+02  0.16691019289E+02  0.53528613245E+02  0.00000000000E+00 0.  1.
         11    1    4    4    0    0 -0.58247895046E+02 -0.28382664388E+02  0.65622785311E+02  0.92221162794E+02  0.00000000000E+00 0. -1.
</event>
<event>
 8    1  0.6689467E-009  0.1061989E+03  0.7561462E-02  0.1267775E+00
          2   -1    0    0  501    0  0.00000000000E+00  0.00000000000E+00  0.17262893327E+03  0.17262893327E+03  0.00000000000E+00 0.  1.
         -2   -1    0    0    0  501 -0.00000000000E+00 -0.00000000000E+00 -0.95376707341E+02  0.95376707341E+02  0.00000000000E+00 0. -1.
         25    2    1    2    0    0 -0.27017061844E+02 -0.58310106886E+02  0.23026489085E+02  0.14252110915E+03  0.12510818182E+03 0.  0.
         23    2    1    2    0    0  0.27017061844E+02  0.58310106886E+02  0.54225736848E+02  0.12548453146E+03  0.93144763158E+02 0.  0.
          5    1    3    3  502    0 -0.31392498897E+02 -0.79810380897E+02  0.56133145905E+02  0.10258454248E+03  0.41800000000E+01 0.  1.
         -5    1    3    3    0  502  0.43754370534E+01  0.21500274012E+02 -0.33106656821E+02  0.39936566676E+02  0.41800000000E+01 0.  1.
        -11    1    4    4    0    0 -0.17131740250E+02  0.57546642989E+02  0.54850663185E+02  0.81324706548E+02  0.00000000000E+00 0.  1.
         11    1    4    4    0    0  0.44148802094E+02  0.76346389670E+00 -0.62492633718E+00  0.44159824914E+02  0.00000000000E+00 0. -1.
</event>
<event>
 8    1  0.6689467E-009  0.1003535E+03  0.7561462E-02  0.1279554E+00
         -1   -1    0    0    0  501 -0.00000000000E+00  0.00000000000E+00  0.12728721047E+03  0.12728721047E+03  0.00000000000E+00 0.  1.
          1   -1    0    0  501    0  0.00000000000E+00 -0.00000000000E+00 -0.10729511995E+03  0.10729511995E+03  0.00000000000E+00 0. -1.
         25    2    1    2    0    0 -0.46028339833E+02 -0.16297768651E+02 -0.58023466993E+01  0.13440920878E+03  0.12509173773E+03 0.  0.
         23    2    1    2    0    0  0.46028339833E+02  0.16297768651E+02  0.25794437217E+02  0.10017312163E+03  0.83576766960E+02 0.  0.
          5    1    3    3  502    0 -0.83490277731E+02  0.13546496009E+02  0.60180335338E+01  0.84898899624E+02  0.41800000000E+01 0. -1.
         -5    1    3    3    0  502  0.37461937898E+02 -0.29844264659E+02 -0.11820380233E+02  0.49510309159E+02  0.41800000000E+01 0. -1.
        -11    1    4    4    0    0 -0.10948357625E+01  0.20595342138E+02 -0.23890061095E+02  0.31561080499E+02  0.00000000000E+00 0. -1.
         11    1    4    4    0    0  0.47123175596E+02 -0.42975734876E+01  0.49684498312E+02  0.68612041134E+02  0.00000000000E+00 0.  1.
</event>
<event>
 8    1  0.6689467E-009  0.8663119E+02  0.7561462E-02  0.1311221E+00
         -1   -1    0    0    0  501 -0.00000000000E+00  0.00000000000E+00  0.87032214050E+03  0.87032214050E+03  0.00000000000E+00 0.  1.
          1   -1    0    0  501    0  0.00000000000E+00 -0.00000000000E+00 -0.14587229909E+02  0.14587229909E+02  0.00000000000E+00 0. -1.
         25    2    1    2    0    0 -0.61033312596E+01 -0.40304734756E+01  0.58932061518E+03  0.60249462344E+03  0.12508992139E+03 0.  0.
         23    2    1    2    0    0  0.61033312596E+01  0.40304734756E+01  0.26641429541E+03  0.28241474697E+03  0.93423857419E+02 0.  0.
          5    1    3    3  502    0 -0.60414513548E+01  0.46466840207E+02  0.47651432083E+03  0.47883090620E+03  0.41800000000E+01 0.  1.
         -5    1    3    3    0  502 -0.61879904773E-01 -0.50497313682E+02  0.11280629435E+03  0.12366371724E+03  0.41800000000E+01 0.  1.
        -11    1    4    4    0    0 -0.25575516662E+02 -0.22625265759E+02  0.41598862482E+02  0.53818909901E+02  0.00000000000E+00 0. -1.
         11    1    4    4    0    0  0.31678847921E+02  0.26655739234E+02  0.22481543293E+03  0.22859583707E+03  0.00000000000E+00 0.  1.
</event>
<event>
 8    1  0.6689467E-009  0.9798279E+02  0.7561462E-02  0.1284596E+00
          2   -1    0    0  501    0  0.00000000000E+00  0.00000000000E+00  0.17523025957E+03  0.17523025957E+03  0.00000000000E+00 0. -1.
         -2   -1    0    0    0  501 -0.00000000000E+00 -0.00000000000E+00 -0.96586166272E+02  0.96586166272E+02  0.00000000000E+00 0.  1.
         25    2    1    2    0    0  0.61492535164E+02 -0.26656663244E+02  0.21962635017E+02  0.14360029238E+03  0.12508707791E+03 0.  0.
         23    2    1    2    0    0 -0.61492535164E+02  0.26656663244E+02  0.56681458276E+02  0.12821613346E+03  0.93459507755E+02 0.  0.
          5    1    3    3  502    0  0.45199632223E+02  0.12646582992E+02  0.66735515274E+02  0.81694823663E+02  0.41800000000E+01 0.  1.
         -5    1    3    3    0  502  0.16292902941E+02 -0.39303246236E+02 -0.44772880256E+02  0.61905468720E+02  0.41800000000E+01 0.  1.
        -11    1    4    4    0    0 -0.81657645979E+02  0.26750452458E+02  0.63592085222E+02  0.10689953768E+03  0.00000000000E+00 0. -1.
         11    1    4    4    0    0  0.20165110815E+02 -0.93789214806E-01 -0.69106269459E+01  0.21316595774E+02  0.00000000000E+00 0.  1.
</event>
<event>
 8    1  0.6689467E-009  0.1027930E+03  0.7561462E-02  0.1274530E+00
         -1   -1    0    0    0  501 -0.00000000000E+00  0.00000000000E+00  0.40258505837E+02  0.40258505837E+02  0.00000000000E+00 0.  1.
          1   -1    0    0  501    0  0.00000000000E+00 -0.00000000000E+00 -0.40802373863E+03  0.40802373863E+03  0.00000000000E+00 0. -1.
         25    2    1    2    0    0 -0.14517538963E+02 -0.22309269621E+02 -0.31605589185E+03  0.34093947828E+03  0.12505974025E+03 0.  0.
         23    2    1    2    0    0  0.14517538963E+02  0.22309269621E+02 -0.51709340948E+02  0.10734276618E+03  0.90222785716E+02 0.  0.
          5    1    3    3  502    0 -0.99745049780E+01  0.45265384583E+02 -0.20953843773E+03  0.21464453191E+03  0.41800000000E+01 0. -1.
         -5    1    3    3    0  502 -0.45430339853E+01 -0.67574654204E+02 -0.10651745411E+03  0.12629494637E+03  0.41800000000E+01 0. -1.
        -11    1    4    4    0    0  0.43446088651E+02  0.38490731533E+02 -0.45189950998E+02  0.73561067856E+02  0.00000000000E+00 0.  1.
         11    1    4    4    0    0 -0.28928549687E+02 -0.16181461912E+02 -0.65193899499E+01  0.33781698328E+02  0.00000000000E+00 0. -1.
</event>
<event>
 8    1  0.6689467E-009  0.8645299E+02  0.7561462E-02  0.1311676E+00
          1   -1    0    0  501    0  0.00000000000E+00  0.00000000000E+00  0.91372989180E+02  0.91372989180E+02  0.00000000000E+00 0.  1.
         -1   -1    0    0    0  501 -0.00000000000E+00 -0.00000000000E+00 -0.16864067555E+03  0.16864067555E+03  0.00000000000E+00 0. -1.
         25    2    1    2    0    0 -0.57620061050E+02  0.12156027743E+02 -0.20416803600E+02  0.13977883403E+03  0.12511369280E+03 0.  0.
         23    2    1    2    0    0  0.57620061050E+02 -0.12156027743E+02 -0.56850882770E+02  0.12023483070E+03  0.88071284746E+02 0.  0.
          5    1    3    3  502    0 -0.71186030973E+02  0.35087245852E+02  0.28079298490E+02  0.84288108478E+02  0.41800000000E+01 0. -1.
         -5    1    3    3    0  502  0.13565969923E+02 -0.22931218108E+02 -0.48496102089E+02  0.55490725547E+02  0.41800000000E+01 0. -1.
        -11    1    4    4    0    0  0.45217873382E+02 -0.22321412335E+02 -0.78495215736E+02  0.93297376251E+02  0.00000000000E+00 0. -1.
         11    1    4    4    0    0  0.12402187668E+02  0.10165384591E+02  0.21644332967E+02  0.26937454453E+02  0.00000000000E+00 0.  1.
</event>
<event>
 8    1  0.6689467E-009  0.1094197E+03  0.7561462E-02  0.1261648E+00
          1   -1    0    0  501    0  0.00000000000E+00  0.00000000000E+00  0.90858729656E+03  0.90858729656E+03  0.00000000000E+00 0. -1.
         -1   -1    0    0    0  501 -0.00000000000E+00 -0.00000000000E+00 -0.19041493727E+02  0.19041493727E+02  0.00000000000E+00 0.  1.
         25    2    1    2    0    0 -0.66306612865E+02 -0.30947350397E+02  0.48612008296E+03  0.50726171765E+03  0.12508960677E+03 0.  0.
         23    2    1    2    0    0  0.66306612865E+02  0.30947350397E+02  0.40342571987E+03  0.42036707264E+03  0.92746206944E+02 0.  0.
          5    1    3    3  502    0 -0.86822141326E+02 -0.21363771844E+02  0.47164541645E+03  0.48006391890E+03  0.41800000000E+01 0. -1.
         -5    1    3    3    0  502  0.20515528462E+02 -0.95835785527E+01  0.14474666516E+02  0.27197798747E+02  0.41800000000E+01 0. -1.
        -11    1    4    4    0    0  0.52510991058E+02  0.56581063072E+02  0.35933813454E+03  0.36753600615E+03  0.00000000000E+00 0. -1.
         11    1    4    4    0    0  0.13795621807E+02 -0.25633712676E+02  0.44087585323E+02  0.52831066488E+02  0.00000000000E+00 0.  1.
</event>
<event>
 8    1  0.6689467E-009  0.1538291E+03  0.7561462E-02  0.1195845E+00
         -1   -1    0    0    0  501 -0.00000000000E+00  0.00000000000E+00  0.10919706459E+03  0.10919706459E+03  0.00000000000E+00 0.  1.
          1   -1    0    0  501    0  0.00000000000E+00 -0.00000000000E+00 -0.27125837079E+03  0.27125837079E+03  0.00000000000E+00 0. -1.
         25    2    1    2    0    0  0.12956353513E+03 -0.12255113030E+02 -0.58101150458E+02  0.18962522735E+03  0.12508031713E+03 0.  0.
         23    2    1    2    0    0 -0.12956353513E+03  0.12255113030E+02 -0.10396015574E+03  0.19083020803E+03  0.93121194608E+02 0.  0.
          5    1    3    3  502    0  0.89590833414E+02 -0.49126688825E+02 -0.81016723384E+02  0.13046505607E+03  0.41800000000E+01 0.  1.
         -5    1    3    3    0  502  0.39972701713E+02  0.36871575795E+02  0.22915572926E+02  0.59160171284E+02  0.41800000000E+01 0.  1.
        -11    1    4    4    0    0 -0.37285304257E+02 -0.31423913277E+02 -0.56317711739E+01  0.49085365290E+02  0.00000000000E+00 0.  1.
         11    1    4    4    0    0 -0.92278230871E+02  0.43679026307E+02 -0.98328384569E+02  0.14174484274E+03  0.00000000000E+00 0. -1.
</event>
<event>
 8    1  0.6689467E-009  0.9791092E+02  0.7561462E-02  0.1284751E+00
         -2   -1    0    0    0  501 -0.00000000000E+00  0.00000000000E+00  0.16698774565E+02  0.16698774565E+02  0.00000000000E+00 0.  1.
          2   -1    0    0  501    0  0.00000000000E+00 -0.00000000000E+00 -0.83162736188E+03  0.83162736188E+03  0.00000000000E+00 0. -1.
         25    2    1    2    0    0  0.34733907302E+02  0.30319825178E+02 -0.42134688681E+03  0.44193663582E+03  0.12509618278E+03 0.  0.
         23    2    1    2    0    0 -0.34733907302E+02 -0.30319825178E+02 -0.39358170050E+03  0.40638950062E+03  0.90111792380E+02 0.  0.
          5    1    3    3  502    0  0.12096332248E+01 -0.29417601747E+02 -0.30799946551E+03  0.30943173991E+03  0.41800000000E+01 0. -1.
         -5    1    3    3    0  502  0.33524274077E+02  0.59737426925E+02 -0.11334742129E+03  0.13250489592E+03  0.41800000000E+01 0. -1.
        -11    1    4    4    0    0 -0.27849680750E+02  0.27552026425E+02 -0.10710405332E+03  0.11404383857E+03  0.00000000000E+00 0.  1.
         11    1    4    4    0    0 -0.68842265518E+01 -0.57871851603E+02 -0.28647764718E+03  0.29234566204E+03  0.00000000000E+00 0. -1.
</event>
<event>
 8    1  0.6689467E-009  0.1766350E+03  0.7561462E-02  0.1171100E+00
          3   -1    0    0  501    0  0.00000000000E+00  0.00000000000E+00  0.28670846869E+02  0.28670846869E+02  0.00000000000E+00 0. -1.
         -3   -1    0    0    0  501 -0.00000000000E+00 -0.00000000000E+00 -0.12961546339E+04  0.12961546339E+04  0.00000000000E+00 0.  1.
         25    2    1    2    0    0  0.73493395039E+02  0.13691992675E+03 -0.78553837191E+03  0.81047309960E+03  0.12509103074E+03 0.  0.
         23    2    1    2    0    0 -0.73493395039E+02 -0.13691992675E+03 -0.48194541509E+03  0.51435238114E+03  0.90214430137E+02 0.  0.
          5    1    3    3  502    0  0.80396468220E+02  0.24308992537E+02 -0.27354780602E+03  0.28618244844E+03  0.41800000000E+01 0.  1.
         -5    1    3    3    0  502 -0.69030731809E+01  0.11261093421E+03 -0.51199056590E+03  0.52429065116E+03  0.41800000000E+01 0.  1.
        -11    1    4    4    0    0 -0.60223604539E+02 -0.96673516511E+02 -0.44083350987E+03  0.45530960319E+03  0.00000000000E+00 0. -1.
         11    1    4    4    0    0 -0.13269790500E+02 -0.40246410236E+02 -0.41111905222E+02  0.59042777948E+02  0.00000000000E+00 0.  1.
</event>
<event>
 8    1  0.6689467E-009  0.1069400E+03  0.7561462E-02  0.1266344E+00
          1   -1    0    0  501    0  0.00000000000E+00  0.00000000000E+00  0.22438724072E+03  0.22438724072E+03  0.00000000000E+00 0. -1.
         -1   -1    0    0    0  501 -0.00000000000E+00 -0.00000000000E+00 -0.80060810903E+02  0.80060810903E+02  0.00000000000E+00 0.  1.
         25    2    1    2    0    0 -0.46094391800E+02  0.40939790270E+02  0.13484037387E+03  0.19395487023E+03  0.12504321604E+03 0.  0.
         23    2    1    2    0    0  0.46094391800E+02 -0.40939790270E+02  0.94860559490E+01  0.11049318140E+03  0.91203061871E+02 0.  0.
          5    1    3    3  502    0 -0.18777175203E+02  0.72317203299E+02  0.29175956333E+02  0.80318547233E+02  0.41800000000E+01 0. -1.
         -5    1    3    3    0  502 -0.27317216596E+02 -0.31377413030E+02  0.10566441754E+03  0.11363632300E+03  0.41800000000E+01 0. -1.
        -11    1    4    4    0    0 -0.12410756681E+01 -0.49173923218E+02  0.30687459329E+02  0.57977022634E+02  0.00000000000E+00 0. -1.
         11    1    4    4    0    0  0.47335467468E+02  0.82341329481E+01 -0.21201403380E+02  0.52516158761E+02  0.00000000000E+00 0.  1.
</event>
<event>
 8    1  0.6689467E-009  0.9692556E+02  0.7561462E-02  0.1286897E+00
          1   -1    0    0  501    0  0.00000000000E+00  0.00000000000E+00  0.35144170277E+02  0.35144170277E+02  0.00000000000E+00 0. -1.
         -1   -1    0    0    0  501 -0.00000000000E+00 -0.00000000000E+00 -0.39770309528E+03  0.39770309528E+03  0.00000000000E+00 0.  1.
         25    2    1    2    0    0 -0.34201398623E+02  0.20834632444E+02 -0.25063192435E+03  0.28296191914E+03  0.12508904268E+03 0.  0.
         23    2    1    2    0    0  0.34201398623E+02 -0.20834632444E+02 -0.11192700065E+03  0.14988534642E+03  0.91291544079E+02 0.  0.
          5    1    3    3  502    0 -0.18304098634E+02  0.62541609061E+02 -0.65535501331E+02  0.92514146083E+02  0.41800000000E+01 0. -1.
         -5    1    3    3    0  502 -0.15897299989E+02 -0.41706976617E+02 -0.18509642302E+03  0.19044777305E+03  0.41800000000E+01 0. -1.
        -11    1    4    4    0    0  0.18035850315E+00  0.25908803468E+02 -0.79464104114E+02  0.83581352400E+02  0.00000000000E+00 0.  1.
         11    1    4    4    0    0  0.34021040120E+02 -0.46743435912E+02 -0.32462896539E+02  0.66303994023E+02  0.00000000000E+00 0. -1.
</event>
<event>
 8    1  0.6689467E-009  0.2383420E+03  0.7561462E-02  0.1120902E+00
          1   -1    0    0  501    0  0.00000000000E+00  0.00000000000E+00  0.35606114634E+03  0.35606114634E+03  0.00000000000E+00 0. -1.
         -1   -1    0    0    0  501 -0.00000000000E+00 -0.00000000000E+00 -0.19549208727E+03  0.19549208727E+03  0.00000000000E+00 0.  1.
         25    2    1    2    0    0 -0.73773603726E+02  0.20710234871E+03 -0.18705162258E+02  0.25363355502E+03  0.12508465010E+03 0.  0.
         23    2    1    2    0    0  0.73773603726E+02 -0.20710234871E+03  0.17927422133E+03  0.29791967859E+03  0.91010774163E+02 0.  0.
          5    1    3    3  502    0 -0.76306132239E+01  0.17909173113E+03 -0.26542475586E+02  0.18125686147E+03  0.41800000000E+01 0.  1.
         -5    1    3    3    0  502 -0.66142990502E+02  0.28010617573E+02  0.78373133281E+01  0.72376693552E+02  0.41800000000E+01 0.  1.
        -11    1    4    4    0    0 -0.42603298731E+01 -0.48333338145E+02  0.83949369294E+02  0.96962665968E+02  0.00000000000E+00 0. -1.
         11    1    4    4    0    0  0.78033933599E+02 -0.15876901056E+03  0.95324852032E+02  0.20095701262E+03  0.00000000000E+00 0.  1.
</event>
<event>
 8    1  0.6689467E-009  0.8401868E+02  0.7561462E-02  0.1318019E+00
         -2   -1    0    0    0  501 -0.00000000000E+00  0.00000000000E+00  0.15047493456E+03  0.15047493456E+03  0.00000000000E+00 0.  1.
          2   -1    0    0  501    0  0.00000000000E+00 -0.00000000000E+00 -0.97254770743E+02  0.97254770743E+02  0.00000000000E+00 0. -1.
         25    2    1    2    0    0  0.24359389541E+02  0.40115607210E+02  0.73111968515E+01  0.13380407693E+03  0.12508971022E+03 0.  0.
         23    2    1    2    0    0 -0.24359389541E+02 -0.40115607210E+02  0.45908966964E+02  0.11392562837E+03  0.93106249798E+02 0.  0.
          5    1    3    3  502    0  0.31507366849E+02  0.54897414922E+02 -0.45679982953E+02  0.78170157818E+02  0.41800000000E+01 0.  1.
         -5    1    3    3    0  502 -0.71479773080E+01 -0.14781807711E+02  0.52991179804E+02  0.55633919113E+02  0.41800000000E+01 0.  1.
        -11    1    4    4    0    0 -0.24458657754E+02  0.17480887144E+02  0.47606079212E+02  0.56304050763E+02  0.00000000000E+00 0.  1.
         11    1    4    4    0    0  0.99268213540E-01 -0.57596494354E+02 -0.16971122477E+01  0.57621577608E+02  0.00000000000E+00 0. -1.
</event>
<event>
 8    1  0.6689467E-009  0.1221913E+03  0.7561462E-02  0.1239525E+00
          1   -1    0    0  501    0  0.00000000000E+00  0.00000000000E+00  0.70926958762E+02  0.70926958762E+02  0.00000000000E+00 0. -1.
         -1   -1    0    0    0  501 -0.00000000000E+00 -0.00000000000E+00 -0.27910847466E+03  0.27910847466E+03  0.00000000000E+00 0.  1.
         25    2    1    2    0    0 -0.81463617388E+02  0.31682097952E+02 -0.90736426546E+02  0.17754090599E+03  0.12509035897E+03 0.  0.
         23    2    1    2    0    0  0.81463617388E+02 -0.31682097952E+02 -0.11744508935E+03  0.17249452744E+03  0.91219168453E+02 0.  0.
          5    1    3    3  502    0 -0.10055399922E+03  0.59054681810E+02 -0.56859202301E+02  0.12980371139E+03  0.41800000000E+01 0.  1.
         -5    1    3    3    0  502  0.19090381836E+02 -0.27372583858E+02 -0.33877224244E+02  0.47737194600E+02  0.41800000000E+01 0.  1.
        -11    1    4    4    0    0  0.42914545771E+02 -0.34990131068E+02 -0.12156849271E+03  0.13358467700E+03  0.00000000000E+00 0.  1.
         11    1    4    4    0    0  0.38549071618E+02  0.33080331158E+01  0.41234033505E+01  0.38909850435E+02  0.00000000000E+00 0. -1.
</event>
<event>
 8    1  0.6689467E-009  0.2658083E+03  0.7561462E-02  0.1103703E+00
          2   -1    0    0  501    0  0.00000000000E+00  0.00000000000E+00  0.58808095225E+03  0.58808095225E+03  0.00000000000E+00 0. -1.
         -2   -1    0    0    0  501 -0.00000000000E+00 -0.00000000000E+00 -0.13517778657E+03  0.13517778657E+03  0.00000000000E+00 0.  1.
         25    2    1    2    0    0 -0.11976784168E+03 -0.22946241344E+03  0.26218374884E+03  0.38908124667E+03  0.12508622336E+03 0.  0.
         23    2    1    2    0    0  0.11976784168E+03  0.22946241344E+03  0.19071941683E+03  0.33417749214E+03  0.91122802944E+02 0.  0.
          5    1    3    3  502    0 -0.91675433927E+02 -0.13143661909E+03  0.23320816152E+03  0.28299026312E+03  0.41800000000E+01 0. -1.
         -5    1    3    3    0  502 -0.28092407752E+02 -0.98025794341E+02  0.28975587324E+02  0.10609098355E+03  0.41800000000E+01 0. -1.
        -11    1    4    4    0    0  0.71458577346E+02  0.60843481300E+02  0.36775006386E+02  0.10080009220E+03  0.00000000000E+00 0.  1.
         11    1    4    4    0    0  0.48309264334E+02  0.16861893214E+03  0.15394441045E+03  0.23337739994E+03  0.00000000000E+00 0. -1.
</event>
<event>
 8    1  0.6689467E-009  0.1570096E+03  0.7561462E-02  0.1192115E+00
         -3   -1    0    0    0  501 -0.00000000000E+00  0.00000000000E+00  0.82484842787E+02  0.82484842787E+02  0.00000000000E+00 0.  1.
          3   -1    0    0  501    0  0.00000000000E+00 -0.00000000000E+00 -0.38978103844E+03  0.38978103844E+03  0.00000000000E+00 0. -1.
         25    2    1    2    0    0 -0.13241263999E+03  0.29396961373E+02 -0.10687520026E+03  0.21324724368E+03  0.12511910303E+03 0.  0.
         23    2    1    2    0    0  0.13241263999E+03 -0.29396961373E+02 -0.20042099539E+03  0.25901863754E+03  0.92329792766E+02 0.  0.
          5    1    3    3  502    0 -0.11594386637E+03 -0.27230623207E+02 -0.96232547868E+02  0.15317526777E+03  0.41800000000E+01 0. -1.
         -5    1    3    3    0  502 -0.16468773619E+02  0.56627584580E+02 -0.10642652388E+02  0.60071975910E+02  0.41800000000E+01 0. -1.
        -11    1    4    4    0    0  0.86578094067E+02 -0.16821814783E+02 -0.19125921170E+03  0.21061535055E+03  0.00000000000E+00 0. -1.
         11    1    4    4    0    0  0.45834545920E+02 -0.12575146590E+02 -0.91617836927E+01  0.48403286994E+02  0.00000000000E+00 0.  1.
</event>
<event>
 8    1  0.6689467E-009  0.1935242E+03  0.7561462E-02  0.1155321E+00
         -2   -1    0    0    0  501 -0.00000000000E+00  0.00000000000E+00  0.34638844308E+03  0.34638844308E+03  0.00000000000E+00 0.  1.
          2   -1    0    0  501    0  0.00000000000E+00 -0.00000000000E+00 -0.19370201492E+03  0.19370201492E+03  0.00000000000E+00 0. -1.
         25    2    1    2    0    0 -0.39116459035E+02  0.17618182683E+03  0.23468872424E+03  0.32140003157E+03  0.12509616116E+03 0.  0.
         23    2    1    2    0    0  0.39116459035E+02 -0.17618182683E+03 -0.82002296085E+02  0.21869042643E+03  0.92363372471E+02 0.  0.
          5    1    3    3  502    0 -0.55053268160E+02  0.70276799267E+02  0.18024682293E+03  0.20118668054E+03  0.41800000000E+01 0.  1.
         -5    1    3    3    0  502  0.15936809125E+02  0.10590502756E+03  0.54441901313E+02  0.12021335103E+03  0.41800000000E+01 0.  1.
        -11    1    4    4    0    0  0.45662986513E+02 -0.66768965617E+02  0.14909444323E+01  0.80903807217E+02  0.00000000000E+00 0.  1.
         11    1    4    4    0    0 -0.65465274783E+01 -0.10941286121E+03 -0.83493240517E+02  0.13778661921E+03  0.00000000000E+00 0. -1.
</event>
<event>
 8    1  0.6689467E-009  0.1899729E+03  0.7561462E-02  0.1158486E+00
          1   -1    0    0  501    0  0.00000000000E+00  0.00000000000E+00  0.39085025947E+02  0.39085025947E+02  0.00000000000E+00 0. -1.
         -1   -1    0    0    0  501 -0.00000000000E+00 -0.00000000000E+00 -0.16436367509E+04  0.16436367509E+04  0.00000000000E+00 0.  1.
         25    2    1    2    0    0  0.24017017415E+02  0.16950493405E+03 -0.13267137768E+04  0.13435495677E+04  0.12508899033E+03 0.  0.
         23    2    1    2    0    0 -0.24017017415E+02 -0.16950493405E+03 -0.27783794816E+03  0.33917220916E+03  0.92385725283E+02 0.  0.
          5    1    3    3  502    0 -0.27068823809E+02  0.23648839168E+02 -0.57310880224E+03  0.57425008526E+03  0.41800000000E+01 0.  1.
         -5    1    3    3    0  502  0.51085841224E+02  0.14585609488E+03 -0.75360497457E+03  0.76929948244E+03  0.41800000000E+01 0.  1.
        -11    1    4    4    0    0  0.67401901761E+01 -0.15501176332E+03 -0.25402360590E+03  0.29766099726E+03  0.00000000000E+00 0.  1.
         11    1    4    4    0    0 -0.30757207591E+02 -0.14493170728E+02 -0.23814342255E+02  0.41511211902E+02  0.00000000000E+00 0. -1.
</event>
<event>
 8    1  0.6689467E-009  0.1604642E+03  0.7561462E-02  0.1188174E+00
          1   -1    0    0  501    0  0.00000000000E+00  0.00000000000E+00  0.41481754774E+03  0.41481754774E+03  0.00000000000E+00 0. -1.
         -1   -1    0    0    0  501 -0.00000000000E+00 -0.00000000000E+00 -0.72561545807E+02  0.72561545807E+02  0.00000000000E+00 0.  1.
         25    2    1    2    0    0 -0.25991785197E+02 -0.13204552753E+03  0.23799243993E+03  0.30066504495E+03  0.12508986191E+03 0.  0.
         23    2    1    2    0    0  0.25991785197E+02  0.13204552753E+03  0.10426356200E+03  0.18671404860E+03  0.76678884607E+02 0.  0.
          5    1    3    3  502    0 -0.63587309568E+02 -0.62367909802E+02  0.64916037364E+02  0.11029354658E+03  0.41800000000E+01 0. -1.
         -5    1    3    3    0  502  0.37595524371E+02 -0.69677617724E+02  0.17307640257E+03  0.19037149837E+03  0.41800000000E+01 0. -1.
        -11    1    4    4    0    0 -0.25111403103E+02  0.45662468983E+02  0.20548717509E+02  0.56016903080E+02  0.00000000000E+00 0.  1.
         11    1    4    4    0    0  0.51103188300E+02  0.86383058543E+02  0.83714844493E+02  0.13069714552E+03  0.00000000000E+00 0. -1.
</event>
<event>
 8    1  0.6689467E-009  0.1095972E+03  0.7561462E-02  0.1261318E+00
          1   -1    0    0  501    0  0.00000000000E+00  0.00000000000E+00  0.11473499853E+04  0.11473499853E+04  0.00000000000E+00 0. -1.
         -1   -1    0    0    0  501 -0.00000000000E+00 -0.00000000000E+00 -0.11093580780E+02  0.11093580780E+02  0.00000000000E+00 0.  1.
         25    2    1    2    0    0  0.24457118089E+02  0.13449370360E+02  0.61105822647E+03  0.62435361417E+03  0.12508494395E+03 0.  0.
         23    2    1    2    0    0 -0.24457118089E+02 -0.13449370360E+02  0.52519817807E+03  0.53408995193E+03  0.92951139410E+02 0.  0.
          5    1    3    3  502    0  0.25687822612E+02  0.65415804385E+02  0.25672555828E+03  0.26620401268E+03  0.41800000000E+01 0. -1.
         -5    1    3    3    0  502 -0.12307045231E+01 -0.51966434026E+02  0.35433266819E+03  0.35814960148E+03  0.41800000000E+01 0. -1.
        -11    1    4    4    0    0  0.30639516531E+02  0.15572644515E+02  0.16397504430E+03  0.16753836093E+03  0.00000000000E+00 0.  1.
         11    1    4    4    0    0 -0.55096634620E+02 -0.29022014875E+02  0.36122313377E+03  0.36655159100E+03  0.00000000000E+00 0. -1.
</event>
<event>
 8    1  0.6689467E-009  0.1980973E+03  0.7561462E-02  0.1151354E+00
          2   -1    0    0  501    0  0.00000000000E+00  0.00000000000E+00  0.68592526118E+03  0.68592526118E+03  0.00000000000E+00 0. -1.
         -2   -1    0    0    0  501 -0.00000000000E+00 -0.00000000000E+00 -0.66368401673E+02  0.66368401673E+02  0.00000000000E+00 0.  1.
         25    2    1    2    0    0 -0.90265659147E+02  0.15585127569E+03  0.38602413982E+03  0.44395950204E+03  0.12509154079E+03 0.  0.
         23    2    1    2    0    0  0.90265659147E+02 -0.15585127569E+03  0.23353271969E+03  0.30833416081E+03  0.89971741137E+02 0.  0.
          5    1    3    3  502    0 -0.11869343876E+03  0.12799518836E+03  0.27304409317E+03  0.32410098714E+03  0.41800000000E+01 0.  1.
         -5    1    3    3    0  502  0.28427779614E+02  0.27856087330E+02  0.11298004664E+03  0.11985851490E+03  0.41800000000E+01 0.  1.
        -11    1    4    4    0    0  0.72654364978E+02 -0.10447115915E+03  0.92832439554E+02  0.15751425865E+03  0.00000000000E+00 0.  1.
         11    1    4    4    0    0  0.17611294169E+02 -0.51380116533E+02  0.14070028013E+03  0.15081990216E+03  0.00000000000E+00 0. -1.
</event>
<event>
 8    1  0.6689467E-009  0.1057387E+03  0.7561462E-02  0.1268671E+00
         -1   -1    0    0    0  501 -0.00000000000E+00  0.00000000000E+00  0.34061150451E+02  0.34061150451E+02  0.00000000000E+00 0.  1.
          1   -1    0    0  501    0  0.00000000000E+00 -0.00000000000E+00 -0.45648580165E+03  0.45648580165E+03  0.00000000000E+00 0. -1.
         25    2    1    2    0    0 -0.59737087174E+02 -0.10375680025E+02 -0.20495378251E+03  0.24764879765E+03  0.12509076582E+03 0.  0.
         23    2    1    2    0    0  0.59737087174E+02  0.10375680025E+02 -0.21747086869E+03  0.24289815445E+03  0.89608930285E+02 0.  0.
          5    1    3    3  502    0 -0.34102673530E+02 -0.59167406758E+02 -0.54849820764E+02  0.87691217361E+02  0.41800000000E+01 0.  1.
         -5    1    3    3    0  502 -0.25634413644E+02  0.48791726733E+02 -0.15010396175E+03  0.15995758029E+03  0.41800000000E+01 0.  1.
        -11    1    4    4    0    0  0.24447471224E+02 -0.26970582452E+02 -0.26210669320E+02  0.44856330135E+02  0.00000000000E+00 0.  1.
         11    1    4    4    0    0  0.35289615950E+02  0.37346262477E+02 -0.19126019937E+03  0.19804182432E+03  0.00000000000E+00 0. -1.
</event>
<event>
 8    1  0.6689467E-009  0.1135510E+03  0.7561462E-02  0.1254132E+00
         -2   -1    0    0    0  501 -0.00000000000E+00  0.00000000000E+00  0.17870705831E+03  0.17870705831E+03  0.00000000000E+00 0. -1.
          2   -1    0    0  501    0  0.00000000000E+00 -0.00000000000E+00 -0.12407522037E+03  0.12407522037E+03  0.00000000000E+00 0.  1.
         25    2    1    2    0    0  0.20557674959E+02  0.76095241060E+02  0.93163416596E+02  0.17474736813E+03  0.12507644369E+03 0.  0.
         23    2    1    2    0    0 -0.20557674959E+02 -0.76095241060E+02 -0.38531578662E+02  0.12803491055E+03  0.93247799188E+02 0.  0.
          5    1    3    3  502    0  0.51392717771E+02 -0.13031780259E+02  0.28688074698E+02  0.60427781413E+02  0.41800000000E+01 0. -1.
         -5    1    3    3    0  502 -0.30835042812E+02  0.89127021320E+02  0.64475341899E+02  0.11431958672E+03  0.41800000000E+01 0. -1.
        -11    1    4    4    0    0 -0.98028587659E+01 -0.54675687223E+02 -0.69439071515E+02  0.88923064871E+02  0.00000000000E+00 0.  1.
         11    1    4    4    0    0 -0.10754816194E+02 -0.21419553838E+02  0.30907492852E+02  0.39111845678E+02  0.00000000000E+00 0. -1.
</event>
<event>
 8    1  0.6689467E-009  0.1064021E+03  0.7561462E-02  0.1267381E+00
          2   -1    0    0  501    0  0.00000000000E+00  0.00000000000E+00  0.22569880321E+02  0.22569880321E+02  0.00000000000E+00 0. -1.
         -2   -1    0    0    0  501 -0.00000000000E+00 -0.00000000000E+00 -0.68137184425E+03  0.68137184425E+03  0.00000000000E+00 0.  1.
         25    2    1    2    0    0 -0.12436325479E+02  0.40133607319E+02 -0.49380578325E+03  0.51113259953E+03  0.12508802544E+03 0.  0.
         23    2    1    2    0    0  0.12436325479E+02 -0.40133607319E+02 -0.16499618068E+03  0.19280912504E+03  0.90477900236E+02 0.  0.
          5    1    3    3  502    0 -0.42192527626E+02  0.74756354694E+02 -0.30950367495E+03  0.32121444420E+03  0.41800000000E+01 0. -1.
         -5    1    3    3    0  502  0.29756202147E+02 -0.34622747376E+02 -0.18430210830E+03  0.18991815534E+03  0.41800000000E+01 0. -1.
        -11    1    4    4    0    0 -0.51906890305E+01 -0.56634826146E+02 -0.15761338142E+03  0.16756021242E+03  0.00000000000E+00 0.  1.
         11    1    4    4    0    0  0.17627014509E+02  0.16501218827E+02 -0.73827992617E+01  0.25248912615E+02  0.00000000000E+00 0. -1.
</event>
<event>
 8    1  0.6689467E-009  0.9377023E+02  0.7561462E-02  0.1293970E+00
         -1   -1    0    0    0  501 -0.00000000000E+00  0.00000000000E+00  0.46857484328E+02  0.46857484328E+02  0.00000000000E+00 0.  1.
          1   -1    0    0  501    0  0.00000000000E+00 -0.00000000000E+00 -0.27921384442E+03  0.27921384442E+03  0.00000000000E+00 0. -1.
         25    2    1    2    0    0 -0.11460324704E+02 -0.15222172175E+02 -0.16930687491E+03  0.21136392796E+03  0.12508732383E+03 0.  0.
         23    2    1    2    0    0  0.11460324704E+02  0.15222172175E+02 -0.63049485186E+02  0.11470740079E+03  0.93912175175E+02 0.  0.
          5    1    3    3  502    0 -0.62552357149E+01 -0.55985102698E+02 -0.25929587691E+02  0.62155254129E+02  0.41800000000E+01 0. -1.
         -5    1    3    3    0  502 -0.52050889887E+01  0.40762930523E+02 -0.14337728722E+03  0.14920867383E+03  0.41800000000E+01 0. -1.
        -11    1    4    4    0    0  0.34061468531E+02 -0.25921758437E+02 -0.50333855334E+02  0.66072824911E+02  0.00000000000E+00 0. -1.
         11    1    4    4    0    0 -0.22601143828E+02  0.41143930612E+02 -0.12715629852E+02  0.48634575881E+02  0.00000000000E+00 0.  1.
</event>
<event>
 8    1  0.6689467E-009  0.1858565E+03  0.7561462E-02  0.1162252E+00
         -2   -1    0    0    0  501 -0.00000000000E+00  0.00000000000E+00  0.30635820037E+02  0.30635820037E+02  0.00000000000E+00 0. -1.
          2   -1    0    0  501    0  0.00000000000E+00 -0.00000000000E+00 -0.13307327620E+04  0.13307327620E+04  0.00000000000E+00 0.  1.
         25    2    1    2    0    0 -0.15795221491E+03  0.29591239989E+02 -0.48896890246E+03  0.52968181689E+03  0.12509075062E+03 0.  0.
         23    2    1    2    0    0  0.15795221491E+03 -0.29591239989E+02 -0.81112803949E+03  0.83168676514E+03  0.89160726640E+02 0.  0.
          5    1    3    3  502    0 -0.16440385452E+03  0.37877326683E+01 -0.46636601797E+03  0.49452776405E+03  0.41800000000E+01 0. -1.
         -5    1    3    3    0  502  0.64516396134E+01  0.25803507321E+02 -0.22602884493E+02  0.35154052841E+02  0.41800000000E+01 0. -1.
        -11    1    4    4    0    0  0.21082930404E+02 -0.37683102108E+02 -0.13289718814E+03  0.13973606819E+03  0.00000000000E+00 0. -1.
         11    1    4    4    0    0  0.13686928450E+03  0.80918621186E+01 -0.67823085136E+03  0.69195069695E+03  0.00000000000E+00 0.  1.
</event>
<event>
 8    1  0.6689467E-009  0.1056756E+03  0.7561462E-02  0.1268794E+00
          2   -1    0    0  501    0  0.00000000000E+00  0.00000000000E+00  0.96988995505E+03  0.96988995505E+03  0.00000000000E+00 0. -1.
         -2   -1    0    0    0  501 -0.00000000000E+00 -0.00000000000E+00 -0.21582356067E+02  0.21582356067E+02  0.00000000000E+00 0.  1.
         25    2    1    2    0    0  0.72852054002E+02 -0.59653399305E+02  0.41565791411E+03  0.44416642320E+03  0.12508541131E+03 0.  0.
         23    2    1    2    0    0 -0.72852054002E+02  0.59653399305E+02  0.53264968488E+03  0.54730588791E+03  0.83439189374E+02 0.  0.
          5    1    3    3  502    0  0.52906974151E+02 -0.39387013101E+02  0.40946761072E+03  0.41476702056E+03  0.41800000000E+01 0.  1.
         -5    1    3    3    0  502  0.19945079850E+02 -0.20266386204E+02  0.61903033877E+01  0.29399402648E+02  0.41800000000E+01 0.  1.
        -11    1    4    4    0    0  0.22366872966E+01  0.38423083401E+02  0.90825922233E+02  0.98644230737E+02  0.00000000000E+00 0.  1.
         11    1    4    4    0    0 -0.75088741298E+02  0.21230315904E+02  0.44182376265E+03  0.44866165718E+03  0.00000000000E+00 0. -1.
</event>
<event>
 8    1  0.6689467E-009  0.1037657E+03  0.7561462E-02  0.1272571E+00
          3   -1    0    0  501    0  0.00000000000E+00  0.00000000000E+00  0.20312927968E+03  0.20312927968E+03  0.00000000000E+00 0. -1.
         -3   -1    0    0    0  501 -0.00000000000E+00 -0.00000000000E+00 -0.92392095899E+02  0.92392095899E+02  0.00000000000E+00 0.  1.
         25    2    1    2    0    0 -0.41034528724E+02  0.79100220328E+01 -0.16422571714E+02  0.13290550676E+03  0.12509105431E+03 0.  0.
         23    2    1    2    0    0  0.41034528724E+02 -0.79100220328E+01  0.12715975550E+03  0.16261586882E+03  0.92346718284E+02 0.  0.
          5    1    3    3  502    0 -0.84108310514E+02  0.18683758280E+02 -0.29202652627E+01  0.86309275691E+02  0.41800000000E+01 0. -1.
         -5    1    3    3    0  502  0.43073781790E+02 -0.10773736247E+02 -0.13502306451E+02  0.46596231070E+02  0.41800000000E+01 0. -1.
        -11    1    4    4    0    0 -0.82690064773E+00  0.24014658297E+02 -0.10152962329E+01  0.24050330647E+02  0.00000000000E+00 0.  1.
         11    1    4    4    0    0  0.41861429372E+02 -0.31924680330E+02  0.12817505173E+03  0.13856553817E+03  0.00000000000E+00 0. -1.
</event>
<event>
 8    1  0.6689467E-009  0.1029268E+03  0.7561462E-02  0.1274259E+00
         -4   -1    0    0    0  501 -0.00000000000E+00  0.00000000000E+00  0.49047343714E+02  0.49047343714E+02  0.00000000000E+00 0.  1.
          4   -1    0    0  501    0  0.00000000000E+00 -0.00000000000E+00 -0.33199574060E+03  0.33199574060E+03  0.00000000000E+00 0. -1.
         25    2    1    2    0    0  0.46708384901E+02 -0.23994097081E+02 -0.22231738949E+03  0.26044114249E+03  0.12508867702E+03 0.  0.
         23    2    1    2    0    0 -0.46708384901E+02  0.23994097081E+02 -0.60631007398E+02  0.12060194182E+03  0.90062863591E+02 0.  0.
          5    1    3    3  502    0  0.88367221443E+02 -0.26753442264E+02 -0.13554028282E+03  0.16405228790E+03  0.41800000000E+01 0.  1.
         -5    1    3    3    0  502 -0.41658836542E+02  0.27593451836E+01 -0.86777106668E+02  0.96388854592E+02  0.41800000000E+01 0.  1.
        -11    1    4    4    0    0 -0.51814238420E+00  0.25258973688E+02  0.16864679089E+02  0.30376004083E+02  0.00000000000E+00 0.  1.
         11    1    4    4    0    0 -0.46190242517E+02 -0.12648766070E+01 -0.77495686487E+02  0.90225937738E+02  0.00000000000E+00 0. -1.
</event>
<event>
 8    1  0.6689467E-009  0.1093408E+03  0.7561462E-02  0.1261795E+00
         -2   -1    0    0    0  501 -0.00000000000E+00  0.00000000000E+00  0.36639162867E+02  0.36639162867E+02  0.00000000000E+00 0. -1.
          2   -1    0    0  501    0  0.00000000000E+00 -0.00000000000E+00 -0.34010401367E+03  0.34010401367E+03  0.00000000000E+00 0.  1.
         25    2    1    2    0    0  0.51978281303E+01 -0.17051462806E+02 -0.14039176049E+03  0.18888330499E+03  0.12509710903E+03 0.  0.
         23    2    1    2    0    0 -0.51978281303E+01  0.17051462806E+02 -0.16307309032E+03  0.18785987155E+03  0.91546320260E+02 0.  0.
          5    1    3    3  502    0 -0.59292746502E+02 -0.39529254750E-01 -0.69719617511E+02  0.91618386889E+02  0.41800000000E+01 0.  1.
         -5    1    3    3    0  502  0.64490574632E+02 -0.17011933552E+02 -0.70672142978E+02  0.97264918098E+02  0.41800000000E+01 0.  1.
        -11    1    4    4    0    0 -0.46838471602E+02 -0.14212683440E+01 -0.70005288322E+02  0.84241336758E+02  0.00000000000E+00 0.  1.
         11    1    4    4    0    0  0.41640643471E+02  0.18472731150E+02 -0.93067801994E+02  0.10361853479E+03  0.00000000000E+00 0. -1.
</event>
<event>
 8    1  0.6689467E-009  0.6120327E+02  0.7561462E-02  0.1392850E+00
          1   -1    0    0  501    0  0.00000000000E+00  0.00000000000E+00  0.11689434599E+03  0.11689434599E+03  0.00000000000E+00 0. -1.
         -1   -1    0    0    0  501 -0.00000000000E+00 -0.00000000000E+00 -0.11102010441E+03  0.11102010441E+03  0.00000000000E+00 0.  1.
         25    2    1    2    0    0 -0.17372640328E+02  0.26784946116E+02 -0.10259537914E+02  0.12950237568E+03  0.12508543167E+03 0.  0.
         23    2    1    2    0    0  0.17372640328E+02 -0.26784946116E+02  0.16133779497E+02  0.98412074729E+02  0.91680944810E+02 0.  0.
          5    1    3    3  502    0  0.19279251550E+02 -0.85635881170E+01 -0.56586095418E+02  0.60534974819E+02  0.41800000000E+01 0. -1.
         -5    1    3    3    0  502 -0.36651891879E+02  0.35348534233E+02  0.46326557503E+02  0.68967400856E+02  0.41800000000E+01 0. -1.
        -11    1    4    4    0    0  0.26416549738E+02 -0.59246460793E+01 -0.33941903639E+02  0.43416452571E+02  0.00000000000E+00 0.  1.
         11    1    4    4    0    0 -0.90439094096E+01 -0.20860300037E+02  0.50075683136E+02  0.54995622158E+02  0.00000000000E+00 0. -1.
</event>
<event>
 8    1  0.6689467E-009  0.1585196E+03  0.7561462E-02  0.1190378E+00
          1   -1    0    0  501    0  0.00000000000E+00  0.00000000000E+00  0.70160648660E+03  0.70160648660E+03  0.00000000000E+00 0. -1.
         -1   -1    0    0    0  501 -0.00000000000E+00 -0.00000000000E+00 -0.52264899078E+02  0.52264899078E+02  0.00000000000E+00 0.  1.
         25    2    1    2    0    0 -0.12250605450E+03  0.64355611467E+02  0.19343771715E+03  0.26872887543E+03  0.12509068694E+03 0.  0.
         23    2    1    2    0    0  0.12250605450E+03 -0.64355611467E+02  0.45590387037E+03  0.48514251025E+03  0.91463315662E+02 0.  0.
          5    1    3    3  502    0 -0.93456535985E+00  0.50345849352E+02  0.15728938453E+02  0.52919276868E+02  0.41800000000E+01 0. -1.
         -5    1    3    3    0  502 -0.12157148914E+03  0.14009762115E+02  0.17770877870E+03  0.21580959857E+03  0.41800000000E+01 0. -1.
        -11    1    4    4    0    0  0.49950656247E+02 -0.48856758090E+02  0.10259730186E+03  0.12413000129E+03  0.00000000000E+00 0.  1.
         11    1    4    4    0    0  0.72555398254E+02 -0.15498853376E+02  0.35330656851E+03  0.36101250896E+03  0.00000000000E+00 0. -1.
</event>
<event>
 8    1  0.6689467E-009  0.8720258E+02  0.7561462E-02  0.1309771E+00
          2   -1    0    0  501    0  0.00000000000E+00  0.00000000000E+00  0.17413549739E+03  0.17413549739E+03  0.00000000000E+00 0. -1.
         -2   -1    0    0    0  501 -0.00000000000E+00 -0.00000000000E+00 -0.77104100091E+02  0.77104100091E+02  0.00000000000E+00 0.  1.
         25    2    1    2    0    0 -0.20361734008E+02  0.54601117951E+02  0.67718532977E+02  0.15371932751E+03  0.12509176491E+03 0.  0.
         23    2    1    2    0    0  0.20361734008E+02 -0.54601117951E+02  0.29312864323E+02  0.97520269970E+02  0.72491908149E+02 0.  0.
          5    1    3    3  502    0 -0.24508767746E+02  0.65417983480E+02  0.98348222002E+02  0.12070641006E+03  0.41800000000E+01 0. -1.
         -5    1    3    3    0  502  0.41470337385E+01 -0.10816865530E+02 -0.30629689025E+02  0.33012917449E+02  0.41800000000E+01 0. -1.
        -11    1    4    4    0    0 -0.25226308265E+02 -0.33329072040E+02  0.65743693564E+01  0.42313307649E+02  0.00000000000E+00 0. -1.
         11    1    4    4    0    0  0.45588042273E+02 -0.21272045910E+02  0.22738494966E+02  0.55206962322E+02  0.00000000000E+00 0.  1.
</event>
<event>
 8    1  0.6689467E-009  0.1232735E+03  0.7561462E-02  0.1237792E+00
          1   -1    0    0  501    0  0.00000000000E+00  0.00000000000E+00  0.10283109147E+03  0.10283109147E+03  0.00000000000E+00 0. -1.
         -1   -1    0    0    0  501 -0.00000000000E+00 -0.00000000000E+00 -0.17599065106E+03  0.17599065106E+03  0.00000000000E+00 0.  1.
         25    2    1    2    0    0  0.58616905233E+02  0.58607328223E+01  0.92246423770E+01  0.13857366100E+03  0.12508907117E+03 0.  0.
         23    2    1    2    0    0 -0.58616905233E+02 -0.58607328223E+01 -0.82384201970E+02  0.14024808154E+03  0.97015864029E+02 0.  0.
          5    1    3    3  502    0  0.83374274819E+02 -0.33272107099E+02 -0.48471578958E+01  0.89995945198E+02  0.41800000000E+01 0. -1.
         -5    1    3    3    0  502 -0.24757369586E+02  0.39132839922E+02  0.14071800273E+02  0.48577715797E+02  0.41800000000E+01 0. -1.
        -11    1    4    4    0    0 -0.74272753487E+02 -0.31071633926E+02 -0.74141967544E+02  0.10944825123E+03  0.00000000000E+00 0.  1.
         11    1    4    4    0    0  0.15655848253E+02  0.25210901104E+02 -0.82422344256E+01  0.30799830313E+02  0.00000000000E+00 0. -1.
</event>
<event>
 8    1  0.6689467E-009  0.1030873E+03  0.7561462E-02  0.1273935E+00
         -1   -1    0    0    0  501 -0.00000000000E+00  0.00000000000E+00  0.11289682649E+02  0.11289682649E+02  0.00000000000E+00 0.  1.
          1   -1    0    0  501    0  0.00000000000E+00 -0.00000000000E+00 -0.12128440458E+04  0.12128440458E+04  0.00000000000E+00 0. -1.
         25    2    1    2    0    0  0.78089531767E+01  0.46571765183E+02 -0.77537723936E+03  0.78682094820E+03  0.12508969643E+03 0.  0.
         23    2    1    2    0    0 -0.78089531767E+01 -0.46571765183E+02 -0.42617712381E+03  0.43731278026E+03  0.85939617535E+02 0.  0.
          5    1    3    3  502    0  0.30439751223E+02 -0.24528279811E+02 -0.10208418469E+03  0.10939318136E+03  0.41800000000E+01 0. -1.
         -5    1    3    3    0  502 -0.22630798047E+02  0.71100044994E+02 -0.67329305467E+03  0.67742776684E+03  0.41800000000E+01 0. -1.
        -11    1    4    4    0    0 -0.40485868626E+02 -0.74697901221E+01 -0.11858412501E+03  0.12552728001E+03  0.00000000000E+00 0.  1.
         11    1    4    4    0    0  0.32676915450E+02 -0.39101975060E+02 -0.30759299880E+03  0.31178550025E+03  0.00000000000E+00 0. -1.
</event>
<event>
 8    1  0.6689467E-009  0.7002225E+02  0.7561462E-02  0.1360017E+00
          2   -1    0    0  501    0  0.00000000000E+00  0.00000000000E+00  0.78420135174E+03  0.78420135174E+03  0.00000000000E+00 0. -1.
         -2   -1    0    0    0  501 -0.00000000000E+00 -0.00000000000E+00 -0.26672303122E+02  0.26672303122E+02  0.00000000000E+00 0.  1.
         25    2    1    2    0    0  0.25671298995E+02  0.34992193246E+02  0.65089573661E+03  0.66422588933E+03  0.12508917996E+03 0.  0.
         23    2    1    2    0    0 -0.25671298995E+02 -0.34992193246E+02  0.10663331201E+03  0.14664776553E+03  0.90837408179E+02 0.  0.
          5    1    3    3  502    0  0.11135915631E+02  0.44273826196E+02  0.64328638042E+03  0.64491783968E+03  0.41800000000E+01 0.  1.
         -5    1    3    3    0  502  0.14535383364E+02 -0.92816329504E+01  0.76093561889E+01  0.19308049652E+02  0.41800000000E+01 0.  1.
        -11    1    4    4    0    0 -0.33920349708E+02  0.61680827314E+01  0.27296841846E+01  0.34584484161E+02  0.00000000000E+00 0.  1.
         11    1    4    4    0    0  0.82490507136E+01 -0.41160275977E+02  0.10390362782E+03  0.11206328137E+03  0.00000000000E+00 0. -1.
</event>
<event>
 8    1  0.6689467E-009  0.8191802E+02  0.7561462E-02  0.1323695E+00
         -2   -1    0    0    0  501 -0.00000000000E+00  0.00000000000E+00  0.94419965268E+02  0.94419965268E+02  0.00000000000E+00 0.  1.
          2   -1    0    0  501    0  0.00000000000E+00 -0.00000000000E+00 -0.12868072889E+03  0.12868072889E+03  0.00000000000E+00 0. -1.
         25    2    1    2    0    0 -0.61124743969E+01 -0.13855076927E+02 -0.38773285879E+02  0.13183459938E+03  0.12509064072E+03 0.  0.
         23    2    1    2    0    0  0.61124743969E+01  0.13855076927E+02  0.45125222566E+01  0.91266094779E+02  0.89887772801E+02 0.  0.
          5    1    3    3  502    0 -0.40496730871E+02 -0.14832879718E+02 -0.71867269488E+02  0.83918867697E+02  0.41800000000E+01 0.  1.
         -5    1    3    3    0  502  0.34384256474E+02  0.97780279126E+00  0.33093983608E+02  0.47915731682E+02  0.41800000000E+01 0.  1.
        -11    1    4    4    0    0 -0.31989026180E+02  0.30571012495E+02 -0.13008278789E+02  0.46120493471E+02  0.00000000000E+00 0. -1.
         11    1    4    4    0    0  0.38101500577E+02 -0.16715935569E+02  0.17520801046E+02  0.45145601308E+02  0.00000000000E+00 0.  1.
</event>
<event>
 8    1  0.6689467E-009  0.9893241E+02  0.7561462E-02  0.1282557E+00
         -1   -1    0    0    0  501 -0.00000000000E+00  0.00000000000E+00  0.16651345831E+02  0.16651345831E+02  0.00000000000E+00 0.  1.
          1   -1    0    0  501    0  0.00000000000E+00 -0.00000000000E+00 -0.13420291487E+04  0.13420291487E+04  0.00000000000E+00 0. -1.
         25    2    1    2    0    0 -0.26791743227E+02 -0.22535974188E+01 -0.11642549543E+04  0.11712643376E+04  0.12509066170E+03 0.  0.
         23    2    1    2    0    0  0.26791743227E+02  0.22535974188E+01 -0.16112284855E+03  0.18741615694E+03  0.91876914137E+02 0.  0.
          5    1    3    3  502    0 -0.66233396130E+02 -0.56419034170E+01 -0.36556579621E+03  0.37158379620E+03  0.41800000000E+01 0.  1.
         -5    1    3    3    0  502  0.39441652903E+02  0.33883059982E+01 -0.79868915812E+03  0.79968054141E+03  0.41800000000E+01 0.  1.
        -11    1    4    4    0    0  0.35374491782E+02  0.39619893704E+02 -0.11980392713E+03  0.13104988211E+03  0.00000000000E+00 0. -1.
         11    1    4    4    0    0 -0.85827485549E+01 -0.37366296286E+02 -0.41318921424E+02  0.56366274833E+02  0.00000000000E+00 0.  1.
</event>
<event>
 8    1  0.6689467E-009  0.8802842E+02  0.7561462E-02  0.1307698E+00
          1   -1    0    0  501    0  0.00000000000E+00  0.00000000000E+00  0.27083216743E+03  0.27083216743E+03  0.00000000000E+00 0. -1.
         -1   -1    0    0    0  501 -0.00000000000E+00 -0.00000000000E+00 -0.65996805114E+02  0.65996805114E+02  0.00000000000E+00 0.  1.
         25    2    1    2    0    0  0.37791504803E+02  0.19414527968E+02  0.19602599637E+03  0.23638589245E+03  0.12508787778E+03 0.  0.
         23    2    1    2    0    0 -0.37791504803E+02 -0.19414527968E+02  0.88093659520E+01  0.10044308009E+03  0.90587447689E+02 0.  0.
          5    1    3    3  502    0  0.64480323961E+02  0.31538789965E+02  0.50465995876E+02  0.87844730009E+02  0.41800000000E+01 0. -1.
         -5    1    3    3    0  502 -0.26688819158E+02 -0.12124261997E+02  0.14556000049E+03  0.14854116244E+03  0.41800000000E+01 0. -1.
        -11    1    4    4    0    0 -0.42809400386E+02  0.10609355837E+02 -0.28332613163E+02  0.52420798938E+02  0.00000000000E+00 0.  1.
         11    1    4    4    0    0  0.50178955823E+01 -0.30023883805E+02  0.37141979115E+02  0.48022281156E+02  0.00000000000E+00 0. -1.
</event>
<event>
 8    1  0.6689467E-009  0.1916470E+03  0.7561462E-02  0.1156984E+00
          2   -1    0    0  501    0  0.00000000000E+00  0.00000000000E+00  0.11290919377E+03  0.11290919377E+03  0.00000000000E+00 0. -1.
         -2   -1    0    0    0  501 -0.00000000000E+00 -0.00000000000E+00 -0.41754794603E+03  0.41754794603E+03  0.00000000000E+00 0.  1.
         25    2    1    2    0    0  0.17116377101E+03  0.32274724455E+02 -0.68611398445E+02  0.22515186749E+03  0.12508854900E+03 0.  0.
         23    2    1    2    0    0 -0.17116377101E+03 -0.32274724455E+02 -0.23602735381E+03  0.30530527230E+03  0.84638662573E+02 0.  0.
          5    1    3    3  502    0  0.65899829767E+02  0.67740989881E+02 -0.14230364756E+00  0.94599798751E+02  0.41800000000E+01 0. -1.
         -5    1    3    3    0  502  0.10526394124E+03 -0.35466265426E+02 -0.68469094797E+02  0.13055206874E+03  0.41800000000E+01 0. -1.
        -11    1    4    4    0    0 -0.11385306036E+03 -0.37793073752E+02 -0.21058861674E+03  0.24236006535E+03  0.00000000000E+00 0.  1.
         11    1    4    4    0    0 -0.57310710653E+02  0.55183492965E+01 -0.25438737078E+02  0.62945206955E+02  0.00000000000E+00 0. -1.
</event>
<event>
 7    1  0.6689467E-009  0.9649602E+02  0.7561462E-02  0.1287842E+00
          3   -1    0    0  501    0  0.00000000000E+00  0.00000000000E+00  0.28994144123E+03  0.28994144123E+03  0.00000000000E+00 0. -1.
         -3   -1    0    0    0  501 -0.00000000000E+00 -0.00000000000E+00 -0.62127351461E+02  0.62127351461E+02  0.00000000000E+00 0.  1.
         23    2    1    2    0    0  0.49476561336E+02 -0.59846098520E+02  0.11827832073E+03  0.16867677941E+03  0.91829238951E+02 0.  0.
          5    1    1    2  502    0 -0.17683228923E+02 -0.45973198716E+01  0.10982265658E+03  0.11141059301E+03  0.41800000000E+01 0. -1.
         -5    1    1    2    0  502 -0.31793332413E+02  0.64443418391E+02 -0.28688755055E+00  0.71981420272E+02  0.41800000000E+01 0. -1.
        -11    1    3    3    0    0 -0.16136606850E+02 -0.54289092512E+01 -0.59324992562E+01  0.18029356165E+02  0.00000000000E+00 0.  1.
         11    1    3    3    0    0  0.65613168186E+02 -0.54417189269E+02  0.12421081999E+03  0.15064742324E+03  0.00000000000E+00 0. -1.
</event>
<event>
 8    1  0.6689467E-009  0.9400053E+02  0.7561462E-02  0.1293443E+00
         -3   -1    0    0    0  501 -0.00000000000E+00  0.00000000000E+00  0.18949440146E+02  0.18949440146E+02  0.00000000000E+00 0.  1.
          3   -1    0    0  501    0  0.00000000000E+00 -0.00000000000E+00 -0.83908628996E+03  0.83908628996E+03  0.00000000000E+00 0. -1.
         25    2    1    2    0    0  0.40119433308E+02  0.39912348178E+02 -0.55456593276E+03  0.57130898004E+03  0.12509201587E+03 0.  0.
         23    2    1    2    0    0 -0.40119433308E+02 -0.39912348178E+02 -0.26557091706E+03  0.28672675006E+03  0.92096431800E+02 0.  0.
          5    1    3    3  502    0 -0.10149848358E+02 -0.16390021899E+02 -0.38675253311E+03  0.38725527305E+03  0.41800000000E+01 0.  1.
         -5    1    3    3    0  502  0.50269281666E+02  0.56302370077E+02 -0.16781339965E+03  0.18405370699E+03  0.41800000000E+01 0.  1.
        -11    1    4    4    0    0  0.21486595578E+02 -0.15120400237E+02 -0.22008269950E+02  0.34273375076E+02  0.00000000000E+00 0.  1.
         11    1    4    4    0    0 -0.61606028886E+02 -0.24791947941E+02 -0.24356264711E+03  0.25245337499E+03  0.00000000000E+00 0. -1.
</event>
<event>
 7    1  0.6689467E-009  0.1146604E+03  0.7561462E-02  0.1252175E+00
         -1   -1    0    0    0  501 -0.00000000000E+00  0.00000000000E+00  0.31866257638E+02  0.31866257638E+02  0.00000000000E+00 0.  1.
          1   -1    0    0  501    0  0.00000000000E+00 -0.00000000000E+00 -0.44019135862E+03  0.44019135862E+03  0.00000000000E+00 0. -1.
         23    2    1    2    0    0  0.37196941137E+02  0.25783182834E+02 -0.19725291751E+03  0.22252097242E+03  0.92512078965E+02 0.  0.
          5    1    1    2  502    0  0.24020356937E+02 -0.53670597684E+02 -0.60008067360E+02  0.84118673025E+02  0.41800000000E+01 0.  1.
         -5    1    1    2    0  502 -0.61217298074E+02  0.27887414851E+02 -0.15106411612E+03  0.16541797082E+03  0.41800000000E+01 0.  1.
        -11    1    3    3    0    0 -0.26682735021E+02  0.28491420630E+02 -0.72786396094E+02  0.82592910435E+02  0.00000000000E+00 0.  1.
         11    1    3    3    0    0  0.63879676159E+02 -0.27082377963E+01 -0.12446652141E+03  0.13992806198E+03  0.00000000000E+00 0. -1.
</event>
<event>
 8    1  0.6689467E-009  0.1184840E+03  0.7561462E-02  0.1245619E+00
         -2   -1    0    0    0  501 -0.00000000000E+00  0.00000000000E+00  0.10985086150E+04  0.10985086150E+04  0.00000000000E+00 0.  1.
          2   -1    0    0  501    0  0.00000000000E+00 -0.00000000000E+00 -0.18259664634E+02  0.18259664634E+02  0.00000000000E+00 0. -1.
         25    2    1    2    0    0  0.39811520876E+02  0.46000546191E+02  0.85494085932E+03  0.86618620121E+03  0.12511456665E+03 0.  0.
         23    2    1    2    0    0 -0.39811520876E+02 -0.46000546191E+02  0.22530809102E+03  0.25058207840E+03  0.91250395563E+02 0.  0.
          5    1    3    3  502    0 -0.91745738963E+01  0.73436202907E+02  0.32934827248E+03  0.33758673803E+03  0.41800000000E+01 0.  1.
         -5    1    3    3    0  502  0.48986094772E+02 -0.27435656716E+02  0.52559258684E+03  0.52859946318E+03  0.41800000000E+01 0.  1.
        -11    1    4    4    0    0 -0.40107885554E+02  0.16984642618E+02  0.12250862219E+03  0.13002108705E+03  0.00000000000E+00 0.  1.
         11    1    4    4    0    0  0.29636467795E+00 -0.62985188809E+02  0.10279946883E+03  0.12056099134E+03  0.00000000000E+00 0. -1.
</event>
<event>
 8    1  0.6689467E-009  0.2697013E+03  0.7561462E-02  0.1101451E+00
         -1   -1    0    0    0  501 -0.00000000000E+00  0.00000000000E+00  0.64906295210E+02  0.64906295210E+02  0.00000000000E+00 0.  1.
          1   -1    0    0  501    0  0.00000000000E+00 -0.00000000000E+00 -0.11623397060E+04  0.11623397060E+04  0.00000000000E+00 0. -1.
         25    2    1    2    0    0  0.84081286426E+02 -0.23403630527E+03 -0.65242196541E+03  0.70932757569E+03  0.12509409967E+03 0.  0.
         23    2    1    2    0    0 -0.84081286426E+02  0.23403630527E+03 -0.44501144535E+03  0.51791842550E+03  0.91442080364E+02 0.  0.
          5    1    3    3  502    0  0.75973171295E+02 -0.45254865293E+02 -0.18312780008E+03  0.20340400475E+03  0.41800000000E+01 0.  1.
         -5    1    3    3    0  502  0.81081151309E+01 -0.18878143998E+03 -0.46929416534E+03  0.50592357094E+03  0.41800000000E+01 0.  1.
        -11    1    4    4    0    0 -0.95792402015E+02  0.15674714892E+03 -0.27392660850E+03  0.32982061764E+03  0.00000000000E+00 0.  1.
         11    1    4    4    0    0  0.11711115589E+02  0.77289156347E+02 -0.17108483686E+03  0.18809780785E+03  0.00000000000E+00 0. -1.
</event>
<event>
 8    1  0.6689467E-009  0.1841096E+03  0.7561462E-02  0.1163884E+00
         -1   -1    0    0    0  501 -0.00000000000E+00  0.00000000000E+00  0.12574356787E+03  0.12574356787E+03  0.00000000000E+00 0.  1.
          1   -1    0    0  501    0  0.00000000000E+00 -0.00000000000E+00 -0.31581625407E+03  0.31581625407E+03  0.00000000000E+00 0. -1.
         25    2    1    2    0    0 -0.16334300282E+03  0.15832932149E+02 -0.13321182360E+03  0.24561025567E+03  0.12508952568E+03 0.  0.
         23    2    1    2    0    0  0.16334300282E+03 -0.15832932149E+02 -0.56860862604E+02  0.19594956628E+03  0.90727374689E+02 0.  0.
          5    1    3    3  502    0  0.15259757397E+02  0.28758952879E+01  0.75818158128E+01  0.17778844185E+02  0.41800000000E+01 0. -1.
         -5    1    3    3    0  502 -0.17860276022E+03  0.12957036861E+02 -0.14079363941E+03  0.22783141149E+03  0.41800000000E+01 0. -1.
        -11    1    4    4    0    0  0.13651012291E+03 -0.33915362085E+02 -0.12740516445E+02  0.14123592390E+03  0.00000000000E+00 0.  1.
         11    1    4    4    0    0  0.26832879913E+02  0.18082429935E+02 -0.44120346159E+02  0.54713642375E+02  0.00000000000E+00 0. -1.
</event>
<event>
 8    1  0.6689467E-009  0.1151094E+03  0.7561462E-02  0.1251390E+00
          3   -1    0    0  501    0  0.00000000000E+00  0.00000000000E+00  0.15854586692E+03  0.15854586692E+03  0.00000000000E+00 0. -1.
         -3   -1    0    0    0  501 -0.00000000000E+00 -0.00000000000E+00 -0.89422135517E+02  0.89422135517E+02  0.00000000000E+00 0.  1.
         25    2    1    2    0    0 -0.41118240450E+02 -0.14117957605E+02  0.10201115109E+02  0.13282273389E+03  0.12509112464E+03 0.  0.
         23    2    1    2    0    0  0.41118240450E+02  0.14117957605E+02  0.58922616294E+02  0.11514526855E+03  0.88862431508E+02 0.  0.
          5    1    3    3  502    0 -0.85675888692E+02 -0.43258862743E+01  0.13279712779E+02  0.86907389598E+02  0.41800000000E+01 0.  1.
         -5    1    3    3    0  502  0.44557648242E+02 -0.97920713303E+01 -0.30785976702E+01  0.45915344291E+02  0.41800000000E+01 0.  1.
        -11    1    4    4    0    0 -0.16019165510E+02  0.34353689814E+02  0.27804331836E+02  0.47009260113E+02  0.00000000000E+00 0. -1.
         11    1    4    4    0    0  0.57137405960E+02 -0.20235732210E+02  0.31118284458E+02  0.68136008435E+02  0.00000000000E+00 0.  1.
</event>
<event>
 8    1  0.6689467E-009  0.9981920E+02  0.7561462E-02  0.1280677E+00
          1   -1    0    0  501    0  0.00000000000E+00  0.00000000000E+00  0.79420869005E+02  0.79420869005E+02  0.00000000000E+00 0. -1.
         -1   -1    0    0    0  501 -0.00000000000E+00 -0.00000000000E+00 -0.16802292957E+03  0.16802292957E+03  0.00000000000E+00 0.  1.
         25    2    1    2    0    0  0.78033624104E+01 -0.27492807007E+02 -0.20047977566E+02  0.12986685701E+03  0.12508689876E+03 0.  0.
         23    2    1    2    0    0 -0.78033624104E+01  0.27492807007E+02 -0.68554082996E+02  0.11757694156E+03  0.91147835906E+02 0.  0.
          5    1    3    3  502    0  0.64315145912E+02  0.18909393887E+01 -0.10027835260E+02  0.65253685914E+02  0.41800000000E+01 0.  1.
         -5    1    3    3    0  502 -0.56511783501E+02 -0.29383746396E+02 -0.10020142306E+02  0.64613171092E+02  0.41800000000E+01 0.  1.
        -11    1    4    4    0    0 -0.13526270354E+02  0.48087308428E+02 -0.46226494211E+01  0.50166902527E+02  0.00000000000E+00 0. -1.
         11    1    4    4    0    0  0.57229079437E+01 -0.20594501421E+02 -0.63931433575E+02  0.67410039037E+02  0.00000000000E+00 0.  1.
</event>
<event>
 8    1  0.6689467E-009  0.1065180E+03  0.7561462E-02  0.1267157E+00
         -1   -1    0    0    0  501 -0.00000000000E+00  0.00000000000E+00  0.10058780267E+03  0.10058780267E+03  0.00000000000E+00 0.  1.
          1   -1    0    0  501    0  0.00000000000E+00 -0.00000000000E+00 -0.27339457254E+03  0.27339457254E+03  0.00000000000E+00 0. -1.
         25    2    1    2    0    0 -0.71186859232E+01  0.63978799864E+02  0.30312116827E+02  0.14391226992E+03  0.12509178425E+03 0.  0.
         23    2    1    2    0    0  0.71186859232E+01 -0.63978799864E+02 -0.20311888669E+03  0.23007010528E+03  0.86781384487E+02 0.  0.
          5    1    3    3  502    0 -0.31072740253E+02 -0.30068498019E+02  0.68301637235E+01  0.43974461866E+02  0.41800000000E+01 0. -1.
         -5    1    3    3    0  502  0.23954054330E+02  0.94047297882E+02  0.23481953104E+02  0.99937808058E+02  0.41800000000E+01 0. -1.
        -11    1    4    4    0    0  0.20409070919E+02 -0.43379289425E+02 -0.19963314095E+03  0.20530875259E+03  0.00000000000E+00 0. -1.
         11    1    4    4    0    0 -0.13290384996E+02 -0.20599510439E+02 -0.34857457433E+01  0.24761352690E+02  0.00000000000E+00 0.  1.
</event>
<event>
 8    1  0.6689467E-009  0.8735927E+02  0.7561462E-02  0.1309376E+00
         -2   -1    0    0    0  501 -0.00000000000E+00  0.00000000000E+00  0.19651313150E+02  0.19651313150E+02  0.00000000000E+00 0.  1.
          2   -1    0    0  501    0  0.00000000000E+00 -0.00000000000E+00 -0.79404895751E+03  0.79404895751E+03  0.00000000000E+00 0. -1.
         25    2    1    2    0    0  0.15620852354E+01 -0.59321360934E+02 -0.42369238428E+03  0.44574047291E+03  0.12509144143E+03 0.  0.
         23    2    1    2    0    0 -0.15620852354E+01  0.59321360934E+02 -0.35070526007E+03  0.36795979775E+03  0.94227221867E+02 0.  0.
          5    1    3    3  502    0  0.94600197311E+01 -0.11773158807E+02  0.33012638577E+01  0.16014680286E+02  0.41800000000E+01 0. -1.
         -5    1    3    3    0  502 -0.78979344957E+01 -0.47548202126E+02 -0.42699364814E+03  0.42972579263E+03  0.41800000000E+01 0. -1.
        -11    1    4    4    0    0 -0.23450546695E+02 -0.18472723627E+02 -0.11376955590E+03  0.11762092292E+03  0.00000000000E+00 0. -1.
         11    1    4    4    0    0  0.21888461460E+02  0.77794084561E+02 -0.23693570417E+03  0.25033887483E+03  0.00000000000E+00 0.  1.
</event>
<event>
 8    1  0.6689467E-009  0.1005977E+03  0.7561462E-02  0.1279044E+00
          1   -1    0    0  501    0  0.00000000000E+00  0.00000000000E+00  0.24160416498E+02  0.24160416498E+02  0.00000000000E+00 0. -1.
         -1   -1    0    0    0  501 -0.00000000000E+00 -0.00000000000E+00 -0.52265167291E+03  0.52265167291E+03  0.00000000000E+00 0.  1.
         25    2    1    2    0    0 -0.57077668067E+00  0.20375849781E+02 -0.23120715201E+03  0.26366711789E+03  0.12509236938E+03 0.  0.
         23    2    1    2    0    0  0.57077668067E+00 -0.20375849781E+02 -0.26728410440E+03  0.28314497152E+03  0.91185423109E+02 0.  0.
          5    1    3    3  502    0 -0.21608089961E+02 -0.49219385209E+02 -0.97858770603E+02  0.11172854969E+03  0.41800000000E+01 0.  1.
         -5    1    3    3    0  502  0.21037313280E+02  0.69595234989E+02 -0.13334838140E+03  0.15193856820E+03  0.41800000000E+01 0.  1.
        -11    1    4    4    0    0  0.36064581340E+02 -0.88319733971E+01 -0.47886109954E+02  0.60594862058E+02  0.00000000000E+00 0. -1.
         11    1    4    4    0    0 -0.35493804659E+02 -0.11543876384E+02 -0.21939799445E+03  0.22255010946E+03  0.00000000000E+00 0.  1.
</event>
<event>
 8    1  0.6689467E-009  0.1000532E+03  0.7561462E-02  0.1280184E+00
          2   -1    0    0  501    0  0.00000000000E+00  0.00000000000E+00  0.57778495250E+02  0.57778495250E+02  0.00000000000E+00 0. -1.
         -2   -1    0    0    0  501 -0.00000000000E+00 -0.00000000000E+00 -0.41399345174E+03  0.41399345174E+03  0.00000000000E+00 0.  1.
         25    2    1    2    0    0  0.82865164043E+01 -0.67286119318E+02 -0.58744343326E+02  0.15392509799E+03  0.12508377077E+03 0.  0.
         23    2    1    2    0    0 -0.82865164043E+01  0.67286119318E+02 -0.29747061316E+03  0.31784684900E+03  0.89116583845E+02 0.  0.
          5    1    3    3  502    0 -0.26130560481E+02 -0.84002476963E+02 -0.55239557868E+01  0.88245163122E+02  0.41800000000E+01 0. -1.
         -5    1    3    3    0  502  0.34417076885E+02  0.16716357645E+02 -0.53220387539E+02  0.65679934866E+02  0.41800000000E+01 0. -1.
        -11    1    4    4    0    0 -0.15919964761E+02  0.19596392618E+02 -0.11355608412E+02  0.27684178226E+02  0.00000000000E+00 0. -1.
         11    1    4    4    0    0  0.76334483567E+01  0.47689726700E+02 -0.28611500475E+03  0.29016267077E+03  0.00000000000E+00 0.  1.
</event>
<event>
 8    1  0.6689467E-009  0.1152181E+03  0.7561462E-02  0.1251201E+00
          1   -1    0    0  501    0  0.00000000000E+00  0.00000000000E+00  0.98699295625E+02  0.98699295625E+02  0.00000000000E+00 0. -1.
         -1   -1    0    0    0  501 -0.00000000000E+00 -0.00000000000E+00 -0.25011703798E+03  0.25011703798E+03  0.00000000000E+00 0.  1.
         25    2    1    2    0    0 -0.22416660858E+02  0.97644230483E+02 -0.12809989178E+03  0.20517976435E+03  0.12510895649E+03 0.  0.
         23    2    1    2    0    0  0.22416660858E+02 -0.97644230483E+02 -0.23317850581E+02  0.14363656926E+03  0.10025387495E+03 0.  0.
          5    1    3    3  502    0  0.50899492403E+01  0.66125029629E+02 -0.14528478579E+03  0.15976097305E+03  0.41800000000E+01 0. -1.
         -5    1    3    3    0  502 -0.27506610098E+02  0.31519200854E+02  0.17184894010E+02  0.45418791305E+02  0.41800000000E+01 0. -1.
        -11    1    4    4    0    0  0.28727966924E+02 -0.50934055816E+01  0.25553950526E+02  0.38784574917E+02  0.00000000000E+00 0. -1.
         11    1    4    4    0    0 -0.63113060669E+01 -0.92550824901E+02 -0.48871801106E+02  0.10485199434E+03  0.00000000000E+00 0.  1.
</event>
<event>
 8    1  0.6689467E-009  0.2492325E+03  0.7561462E-02  0.1113791E+00
          1   -1    0    0  501    0  0.00000000000E+00  0.00000000000E+00  0.88466718164E+02  0.88466718164E+02  0.00000000000E+00 0. -1.
         -1   -1    0    0    0  501 -0.00000000000E+00 -0.00000000000E+00 -0.81243722758E+03  0.81243722758E+03  0.00000000000E+00 0.  1.
         25    2    1    2    0    0 -0.20621088607E+03  0.11685459514E+03 -0.47112727016E+03  0.54202065606E+03  0.12509021130E+03 0.  0.
         23    2    1    2    0    0  0.20621088607E+03 -0.11685459514E+03 -0.25284323926E+03  0.35888328969E+03  0.93217949128E+02 0.  0.
          5    1    3    3  502    0 -0.51974339280E+02  0.61137646139E+00 -0.21486038377E+03  0.22109763146E+03  0.41800000000E+01 0. -1.
         -5    1    3    3    0  502 -0.15423654679E+03  0.11624321868E+03 -0.25626688639E+03  0.32092302460E+03  0.41800000000E+01 0. -1.
        -11    1    4    4    0    0  0.11435012346E+03 -0.11365072458E+03 -0.14157572140E+03  0.21456030114E+03  0.00000000000E+00 0.  1.
         11    1    4    4    0    0  0.91860762614E+02 -0.32038705520E+01 -0.11126751785E+03  0.14432298855E+03  0.00000000000E+00 0. -1.
</event>
<event>
 8    1  0.6689467E-009  0.7281437E+02  0.7561462E-02  0.1350776E+00
          1   -1    0    0  501    0  0.00000000000E+00  0.00000000000E+00  0.41646476839E+02  0.41646476839E+02  0.00000000000E+00 0. -1.
         -1   -1    0    0    0  501 -0.00000000000E+00 -0.00000000000E+00 -0.31801656313E+03  0.31801656313E+03  0.00000000000E+00 0.  1.
         25    2    1    2    0    0  0.34581980758E+02 -0.20710527406E+02 -0.13294447479E+03  0.18692975262E+03  0.12507461652E+03 0.  0.
         23    2    1    2    0    0 -0.34581980758E+02  0.20710527406E+02 -0.14342561150E+03  0.17273328735E+03  0.87413060727E+02 0.  0.
          5    1    3    3  502    0  0.28301892382E+02 -0.27901432171E+02  0.11911417811E+02  0.41699416109E+02  0.41800000000E+01 0. -1.
         -5    1    3    3    0  502  0.62800883762E+01  0.71909047646E+01 -0.14485589260E+03  0.14523033651E+03  0.41800000000E+01 0. -1.
        -11    1    4    4    0    0 -0.95450069811E+01 -0.33873395480E+02 -0.41304131232E+02  0.54263664974E+02  0.00000000000E+00 0. -1.
         11    1    4    4    0    0 -0.25036973777E+02  0.54583922886E+02 -0.10212148027E+03  0.11846962237E+03  0.00000000000E+00 0.  1.
</event>
<event>
 8    1  0.6689467E-009  0.3061722E+03  0.7561462E-02  0.1082195E+00
          1   -1    0    0  501    0  0.00000000000E+00  0.00000000000E+00  0.51574541348E+03  0.51574541348E+03  0.00000000000E+00 0. -1.
         -1   -1    0    0    0  501 -0.00000000000E+00 -0.00000000000E+00 -0.18843140627E+03  0.18843140627E+03  0.00000000000E+00 0.  1.
         25    2    1    2    0    0  0.27683866512E+03  0.89037353502E+02  0.13719918220E+03  0.34501864501E+03  0.12508778111E+03 0.  0.
         23    2    1    2    0    0 -0.27683866512E+03 -0.89037353502E+02  0.19011482502E+03  0.35915817474E+03  0.91014564605E+02 0.  0.
          5    1    3    3  502    0  0.97637136571E+02  0.84028958495E+02  0.96841755723E+02  0.16121313332E+03  0.41800000000E+01 0. -1.
         -5    1    3    3    0  502  0.17920152855E+03  0.50083950065E+01  0.40357426477E+02  0.18380551169E+03  0.41800000000E+01 0. -1.
        -11    1    4    4    0    0 -0.14447373927E+03  0.25144851039E+00  0.10134453462E+03  0.17647503864E+03  0.00000000000E+00 0. -1.
         11    1    4    4    0    0 -0.13236492585E+03 -0.89288802012E+02  0.88770290393E+02  0.18268313610E+03  0.00000000000E+00 0.  1.
</event>
<event>
 8    1  0.6689467E-009  0.1881346E+03  0.7561462E-02  0.1160155E+00
         -2   -1    0    0    0  501 -0.00000000000E+00  0.00000000000E+00  0.53332278036E+02  0.53332278036E+02  0.00000000000E+00 0.  1.
          2   -1    0    0  501    0  0.00000000000E+00 -0.00000000000E+00 -0.81661441836E+03  0.81661441836E+03  0.00000000000E+00 0. -1.
         25    2    1    2    0    0 -0.14909407271E+03  0.41920483582E+02 -0.21500658847E+03  0.29302557073E+03  0.12509909095E+03 0.  0.
         23    2    1    2    0    0  0.14909407271E+03 -0.41920483582E+02 -0.54827555185E+03  0.57692112567E+03  0.90804928396E+02 0.  0.
          5    1    3    3  502    0 -0.11781571865E+03 -0.28593177086E+02 -0.14162570179E+03  0.18647633937E+03  0.41800000000E+01 0.  1.
         -5    1    3    3    0  502 -0.31278354053E+02  0.70513660668E+02 -0.73380886679E+02  0.10654923136E+03  0.41800000000E+01 0.  1.
        -11    1    4    4    0    0  0.13935545861E+02  0.23676286996E+02 -0.11851440742E+03  0.12165702104E+03  0.00000000000E+00 0.  1.
         11    1    4    4    0    0  0.13515852684E+03 -0.65596770578E+02 -0.42976114444E+03  0.45526410462E+03  0.00000000000E+00 0. -1.
</event>
<event>
 8    1  0.6689467E-009  0.1030999E+03  0.7561462E-02  0.1273909E+00
          2   -1    0    0  501    0  0.00000000000E+00  0.00000000000E+00  0.31092758991E+03  0.31092758991E+03  0.00000000000E+00 0. -1.
         -2   -1    0    0    0  501 -0.00000000000E+00 -0.00000000000E+00 -0.42663450695E+02  0.42663450695E+02  0.00000000000E+00 0.  1.
         25    2    1    2    0    0  0.24454395240E+02 -0.20641650452E+02  0.11888678150E+03  0.17551621044E+03  0.12509107935E+03 0.  0.
         23    2    1    2    0    0 -0.24454395240E+02  0.20641650452E+02  0.14937735771E+03  0.17807483016E+03  0.91503852156E+02 0.  0.
          5    1    3    3  502    0  0.58782440372E+02  0.23794762284E+02  0.95122224958E+02  0.11439963326E+03  0.41800000000E+01 0.  1.
         -5    1    3    3    0  502 -0.34328045133E+02 -0.44436412736E+02  0.23764556544E+02  0.61116577188E+02  0.41800000000E+01 0.  1.
        -11    1    4    4    0    0  0.29271819786E+02  0.13162553401E+02  0.20077736911E+02  0.37857730585E+02  0.00000000000E+00 0.  1.
         11    1    4    4    0    0 -0.53726215025E+02  0.74790970510E+01  0.12929962080E+03  0.14021709958E+03  0.00000000000E+00 0. -1.
</event>
<event>
 8    1  0.6689467E-009  0.1429427E+03  0.7561462E-02  0.1209423E+00
          1   -1    0    0  501    0  0.00000000000E+00  0.00000000000E+00  0.10836481304E+04  0.10836481304E+04  0.00000000000E+00 0. -1.
         -1   -1    0    0    0  501 -0.00000000000E+00 -0.00000000000E+00 -0.28554914553E+02  0.28554914553E+02  0.00000000000E+00 0.  1.
         25    2    1    2    0    0  0.12514694282E+02 -0.13380414519E+03  0.65593075535E+03  0.68114114260E+03  0.12509170029E+03 0.  0.
         23    2    1    2    0    0 -0.12514694282E+02  0.13380414519E+03  0.39916246049E+03  0.43106190235E+03  0.91779774195E+02 0.  0.
          5    1    3    3  502    0 -0.58620973465E+01 -0.36932870312E+02  0.31827532501E+02  0.49283519759E+02  0.41800000000E+01 0.  1.
         -5    1    3    3    0  502  0.18376791628E+02 -0.96871274873E+02  0.62410322285E+03  0.63185762284E+03  0.41800000000E+01 0.  1.
        -11    1    4    4    0    0 -0.34814745972E+02  0.39445689745E+02  0.67877741800E+02  0.85880246905E+02  0.00000000000E+00 0.  1.
         11    1    4    4    0    0  0.22300051690E+02  0.94358455441E+02  0.33128471869E+03  0.34518165544E+03  0.00000000000E+00 0. -1.
</event>
<event>
 8    1  0.6689467E-009  0.1932661E+03  0.7561462E-02  0.1155548E+00
          1   -1    0    0  501    0  0.00000000000E+00  0.00000000000E+00  0.24814290541E+04  0.24814290541E+04  0.00000000000E+00 0. -1.
         -1   -1    0    0    0  501 -0.00000000000E+00 -0.00000000000E+00 -0.29471910773E+02  0.29471910773E+02  0.00000000000E+00 0.  1.
         25    2    1    2    0    0 -0.14997184889E+03  0.78095536314E+02  0.20946822550E+04  0.21052153283E+04  0.12508941260E+03 0.  0.
         23    2    1    2    0    0  0.14997184889E+03 -0.78095536314E+02  0.35727488836E+03  0.40568563654E+03  0.91351089694E+02 0.  0.
          5    1    3    3  502    0 -0.59774526093E+02 -0.29950163932E+02  0.53172120089E+03  0.53592435490E+03  0.41800000000E+01 0. -1.
         -5    1    3    3    0  502 -0.90197322794E+02  0.10804570025E+03  0.15629610541E+04  0.15692909734E+04  0.41800000000E+01 0. -1.
        -11    1    4    4    0    0  0.76087448812E+02 -0.71745554570E+02  0.27854591336E+03  0.29753075525E+03  0.00000000000E+00 0.  1.
         11    1    4    4    0    0  0.73884400075E+02 -0.63499817437E+01  0.78728975004E+02  0.10815488129E+03  0.00000000000E+00 0. -1.
</event>
<event>
 8    1  0.6689467E-009  0.1067311E+03  0.7561462E-02  0.1266746E+00
          3   -1    0    0  501    0  0.00000000000E+00  0.00000000000E+00  0.25280397960E+03  0.25280397960E+03  0.00000000000E+00 0. -1.
         -3   -1    0    0    0  501 -0.00000000000E+00 -0.00000000000E+00 -0.11689920298E+03  0.11689920298E+03  0.00000000000E+00 0.  1.
         25    2    1    2    0    0 -0.61063719305E+02 -0.44666197577E+02 -0.45388327343E+02  0.15307205511E+03  0.12508839585E+03 0.  0.
         23    2    1    2    0    0  0.61063719305E+02  0.44666197577E+02  0.18129310397E+03  0.21663112747E+03  0.91312698027E+02 0.  0.
          5    1    3    3  502    0 -0.88016569538E+02 -0.18687655148E+02  0.49377774242E+01  0.90210858626E+02  0.41800000000E+01 0.  1.
         -5    1    3    3    0  502  0.26952850233E+02 -0.25978542429E+02 -0.50326104767E+02  0.62861196484E+02  0.41800000000E+01 0.  1.
        -11    1    4    4    0    0  0.67654477368E+01  0.28169495680E+02  0.25348138277E+01  0.29081214745E+02  0.00000000000E+00 0.  1.
         11    1    4    4    0    0  0.54298271568E+02  0.16496701897E+02  0.17875829014E+03  0.18754991273E+03  0.00000000000E+00 0. -1.
</event>
<event>
 8    1  0.6689467E-009  0.1272874E+03  0.7561462E-02  0.1231537E+00
          1   -1    0    0  501    0  0.00000000000E+00  0.00000000000E+00  0.53265420983E+03  0.53265420983E+03  0.00000000000E+00 0. -1.
         -1   -1    0    0    0  501 -0.00000000000E+00 -0.00000000000E+00 -0.13351960146E+03  0.13351960146E+03  0.00000000000E+00 0.  1.
         25    2    1    2    0    0 -0.57412889350E+02  0.49514806702E+02 -0.83902946735E+02  0.16862833654E+03  0.12509138846E+03 0.  0.
         23    2    1    2    0    0  0.57412889350E+02 -0.49514806702E+02  0.48303755511E+03  0.49754547475E+03  0.92077488261E+02 0.  0.
          5    1    3    3  502    0 -0.91329896278E+02  0.31081508303E+02 -0.27959495408E+02  0.10053067142E+03  0.41800000000E+01 0.  1.
         -5    1    3    3    0  502  0.33917006928E+02  0.18433298398E+02 -0.55943451327E+02  0.68097665123E+02  0.41800000000E+01 0.  1.
        -11    1    4    4    0    0  0.70655909548E+02 -0.28919145130E+01  0.27696635844E+03  0.28585133274E+03  0.00000000000E+00 0.  1.
         11    1    4    4    0    0 -0.13243020198E+02 -0.46622892189E+02  0.20607119668E+03  0.21169414201E+03  0.00000000000E+00 0. -1.
</event>
<event>
 8    1  0.6689467E-009  0.1550431E+03  0.7561462E-02  0.1194409E+00
         -2   -1    0    0    0  501 -0.00000000000E+00  0.00000000000E+00  0.52506256705E+03  0.52506256705E+03  0.00000000000E+00 0.  1.
          2   -1    0    0  501    0  0.00000000000E+00 -0.00000000000E+00 -0.62791306047E+02  0.62791306047E+02  0.00000000000E+00 0. -1.
         25    2    1    2    0    0 -0.10991857908E+03 -0.62917024464E+02  0.35977900455E+03  0.40140899008E+03  0.12509036418E+03 0.  0.
         23    2    1    2    0    0  0.10991857908E+03  0.62917024464E+02  0.10249225645E+03  0.18644488301E+03  0.90644281540E+02 0.  0.
          5    1    3    3  502    0 -0.95373454616E+02  0.16632762367E+02  0.18826828165E+03  0.21174315315E+03  0.41800000000E+01 0.  1.
         -5    1    3    3    0  502 -0.14545124461E+02 -0.79549786831E+02  0.17151072290E+03  0.18966583693E+03  0.41800000000E+01 0.  1.
        -11    1    4    4    0    0  0.12146572955E+02 -0.50257895965E+01  0.57793377515E+02  0.59269488611E+02  0.00000000000E+00 0.  1.
         11    1    4    4    0    0  0.97772006122E+02  0.67942814060E+02  0.44698878938E+02  0.12717539440E+03  0.00000000000E+00 0. -1.
</event>
<event>
 8    1  0.6689467E-009  0.9602445E+02  0.7561462E-02  0.1288885E+00
         -1   -1    0    0    0  501 -0.00000000000E+00  0.00000000000E+00  0.23958695397E+02  0.23958695397E+02  0.00000000000E+00 0.  1.
          1   -1    0    0  501    0  0.00000000000E+00 -0.00000000000E+00 -0.79711183118E+03  0.79711183118E+03  0.00000000000E+00 0. -1.
         25    2    1    2    0    0  0.75905818129E+02 -0.33636295703E+02 -0.48440973271E+03  0.50714302669E+03  0.12509263271E+03 0.  0.
         23    2    1    2    0    0 -0.75905818129E+02  0.33636295703E+02 -0.28874340307E+03  0.31392749989E+03  0.91019936030E+02 0.  0.
          5    1    3    3  502    0  0.70650727613E+02 -0.40163027942E+02 -0.48968142847E+03  0.49639698620E+03  0.41800000000E+01 0.  1.
         -5    1    3    3    0  502  0.52550905161E+01  0.65267322386E+01  0.52716957537E+01  0.10746040488E+02  0.41800000000E+01 0.  1.
        -11    1    4    4    0    0 -0.65653388308E+02 -0.51114453698E+00 -0.25990967078E+03  0.26807399282E+03  0.00000000000E+00 0. -1.
         11    1    4    4    0    0 -0.10252429821E+02  0.34147440240E+02 -0.28833732295E+02  0.45853507066E+02  0.00000000000E+00 0.  1.
</event>
<event>
 8    1  0.6689467E-009  0.1216216E+03  0.7561462E-02  0.1240446E+00
         -3   -1    0    0    0  501 -0.00000000000E+00  0.00000000000E+00  0.24279391079E+02  0.24279391079E+02  0.00000000000E+00 0.  1.
          3   -1    0    0  501    0  0.00000000000E+00 -0.00000000000E+00 -0.73913492446E+03  0.73913492446E+03  0.00000000000E+00 0. -1.
         25    2    1    2    0    0 -0.55484742116E+02  0.33913058581E+02 -0.27203284946E+03  0.30639193804E+03  0.12508195857E+03 0.  0.
         23    2    1    2    0    0  0.55484742116E+02 -0.33913058581E+02 -0.44282268393E+03  0.45702237751E+03  0.92460110274E+02 0.  0.
          5    1    3    3  502    0 -0.82505793191E+02 -0.89506544061E+01 -0.21211523737E+03  0.22781059336E+03  0.41800000000E+01 0.  1.
         -5    1    3    3    0  502  0.27021051074E+02  0.42863712987E+02 -0.59917612092E+02  0.78581344676E+02  0.41800000000E+01 0.  1.
        -11    1    4    4    0    0  0.18712101627E+02 -0.60889270022E+02 -0.31316071028E+03  0.31957358528E+03  0.00000000000E+00 0. -1.
         11    1    4    4    0    0  0.36772640489E+02  0.26976211442E+02 -0.12966197365E+03  0.13744879222E+03  0.00000000000E+00 0.  1.
</event>
<event>
 8    1  0.6689467E-009  0.1256852E+03  0.7561462E-02  0.1234002E+00
          1   -1    0    0  501    0  0.00000000000E+00  0.00000000000E+00  0.44111981242E+03  0.44111981242E+03  0.00000000000E+00 0. -1.
         -1   -1    0    0    0  501 -0.00000000000E+00 -0.00000000000E+00 -0.54687927077E+02  0.54687927077E+02  0.00000000000E+00 0.  1.
         25    2    1    2    0    0  0.52284278654E+02 -0.95717674100E+02  0.22432946996E+03  0.27904967136E+03  0.12509791790E+03 0.  0.
         23    2    1    2    0    0 -0.52284278654E+02  0.95717674100E+02  0.16210241539E+03  0.21675806814E+03  0.93868781285E+02 0.  0.
          5    1    3    3  502    0  0.64401209122E+02 -0.66196694725E+02  0.56903990018E+02  0.10855899138E+03  0.41800000000E+01 0.  1.
         -5    1    3    3    0  502 -0.12116930468E+02 -0.29520979374E+02  0.16742547994E+03  0.17049067998E+03  0.41800000000E+01 0.  1.
        -11    1    4    4    0    0 -0.62651872155E+02  0.97814723779E+02  0.98552135865E+02  0.15233351816E+03  0.00000000000E+00 0.  1.
         11    1    4    4    0    0  0.10367593500E+02 -0.20970496793E+01  0.63550279523E+02  0.64424549978E+02  0.00000000000E+00 0. -1.
</event>
<event>
 8    1  0.6689467E-009  0.6192880E+02  0.7561462E-02  0.1389911E+00
          2   -1    0    0  501    0  0.00000000000E+00  0.00000000000E+00  0.19612965940E+03  0.19612965940E+03  0.00000000000E+00 0. -1.
         -2   -1    0    0    0  501 -0.00000000000E+00 -0.00000000000E+00 -0.72896630212E+02  0.72896630212E+02  0.00000000000E+00 0.  1.
         25    2    1    2    0    0  0.12511649276E+02 -0.20468796005E+02  0.12022173313E+03  0.17511925747E+03  0.12505189419E+03 0.  0.
         23    2    1    2    0    0 -0.12511649276E+02  0.20468796005E+02  0.30112960535E+01  0.93907032142E+02  0.90741114189E+02 0.  0.
          5    1    3    3  502    0  0.22723712081E+02  0.16344471326E+02  0.13193978503E+03  0.13494105419E+03  0.41800000000E+01 0. -1.
         -5    1    3    3    0  502 -0.10212062805E+02 -0.36813267331E+02 -0.11718051894E+02  0.40178203276E+02  0.41800000000E+01 0. -1.
        -11    1    4    4    0    0  0.20408087109E+02  0.75102591171E+01 -0.35488120919E+02  0.41620917071E+02  0.00000000000E+00 0.  1.
         11    1    4    4    0    0 -0.32919736385E+02  0.12958536887E+02  0.38499416973E+02  0.52286115071E+02  0.00000000000E+00 0. -1.
</event>
<event>
 8    1  0.6689467E-009  0.7694819E+02  0.7561462E-02  0.1337942E+00
          2   -1    0    0  501    0  0.00000000000E+00  0.00000000000E+00  0.23980145269E+03  0.23980145269E+03  0.00000000000E+00 0. -1.
         -2   -1    0    0    0  501 -0.00000000000E+00 -0.00000000000E+00 -0.72080660204E+02  0.72080660204E+02  0.00000000000E+00 0.  1.
         25    2    1    2    0    0 -0.31881003603E+01  0.17950149773E+02  0.85142930962E+01  0.12669516129E+03  0.12508716499E+03 0.  0.
         23    2    1    2    0    0  0.31881003603E+01 -0.17950149773E+02  0.15920649939E+03  0.18518695161E+03  0.92817701639E+02 0.  0.
          5    1    3    3  502    0 -0.73035763587E+01  0.42193618081E+02 -0.48277587660E+02  0.64667159398E+02  0.41800000000E+01 0. -1.
         -5    1    3    3    0  502  0.41154759985E+01 -0.24243468308E+02  0.56791880756E+02  0.62028001887E+02  0.41800000000E+01 0. -1.
        -11    1    4    4    0    0 -0.23152038300E+02  0.25922607973E+02  0.10517504855E+03  0.11076908106E+03  0.00000000000E+00 0. -1.
         11    1    4    4    0    0  0.26340138660E+02 -0.43872757746E+02  0.54031450834E+02  0.74417870543E+02  0.00000000000E+00 0.  1.
</event>
<event>
 8    1  0.6689467E-009  0.9246679E+02  0.7561462E-02  0.1296986E+00
          1   -1    0    0  501    0  0.00000000000E+00  0.00000000000E+00  0.11059965660E+04  0.11059965660E+04  0.00000000000E+00 0. -1.
         -1   -1    0    0    0  501 -0.00000000000E+00 -0.00000000000E+00 -0.26776857616E+02  0.26776857616E+02  0.00000000000E+00 0.  1.
         25    2    1    2    0    0 -0.48229066011E+02 -0.14629897671E+02  0.97425837567E+03  0.98354766455E+03  0.12508616695E+03 0.  0.
         23    2    1    2    0    0  0.48229066011E+02  0.14629897671E+02  0.10496133274E+03  0.14922575909E+03  0.93334715360E+02 0.  0.
          5    1    3    3  502    0 -0.63966093367E+02 -0.43561056908E+02  0.88376499207E+03  0.88715684092E+03  0.41800000000E+01 0.  1.
         -5    1    3    3    0  502  0.15737027356E+02  0.28931159237E+02  0.90493383592E+02  0.96390823623E+02  0.41800000000E+01 0.  1.
        -11    1    4    4    0    0  0.27268037942E+02  0.35426073025E+02  0.49872812600E+01  0.44982502348E+02  0.00000000000E+00 0.  1.
         11    1    4    4    0    0  0.20961028069E+02 -0.20796175354E+02  0.99974051475E+02  0.10424325674E+03  0.00000000000E+00 0. -1.
</event>
<event>
 8    1  0.6689467E-009  0.7914014E+02  0.7561462E-02  0.1331509E+00
         -3   -1    0    0    0  501 -0.00000000000E+00  0.00000000000E+00  0.75914348802E+02  0.75914348802E+02  0.00000000000E+00 0.  1.
          3   -1    0    0  501    0  0.00000000000E+00 -0.00000000000E+00 -0.28566192233E+03  0.28566192233E+03  0.00000000000E+00 0. -1.
         25    2    1    2    0    0 -0.53328545888E+02 -0.93633895373E+01 -0.18519999460E+03  0.22995073078E+03  0.12508674478E+03 0.  0.
         23    2    1    2    0    0  0.53328545888E+02  0.93633895373E+01 -0.24547578927E+02  0.13162554035E+03  0.11743548173E+03 0.  0.
          5    1    3    3  502    0 -0.29648562475E+02  0.29422431242E+02 -0.17904770317E+03  0.18390287961E+03  0.41800000000E+01 0.  1.
         -5    1    3    3    0  502 -0.23679983413E+02 -0.38785820779E+02 -0.61522914237E+01  0.46047851174E+02  0.41800000000E+01 0.  1.
        -11    1    4    4    0    0  0.12441374080E+02  0.24167650514E+02 -0.66105473556E+02  0.71475847350E+02  0.00000000000E+00 0. -1.
         11    1    4    4    0    0  0.40887171809E+02 -0.14804260976E+02  0.41557894629E+02  0.60149692996E+02  0.00000000000E+00 0.  1.
</event>
<event>
 8    1  0.6689467E-009  0.1035394E+03  0.7561462E-02  0.1273024E+00
         -2   -1    0    0    0  501 -0.00000000000E+00  0.00000000000E+00  0.17753916067E+03  0.17753916067E+03  0.00000000000E+00 0.  1.
          2   -1    0    0  501    0  0.00000000000E+00 -0.00000000000E+00 -0.87594114802E+02  0.87594114802E+02  0.00000000000E+00 0. -1.
         25    2    1    2    0    0 -0.24772720733E+02 -0.22023572972E+02 -0.52533580889E+01  0.12951205696E+03  0.12508816758E+03 0.  0.
         23    2    1    2    0    0  0.24772720733E+02  0.22023572972E+02  0.95198403954E+02  0.13562121851E+03  0.90728459342E+02 0.  0.
          5    1    3    3  502    0 -0.44476404323E+02  0.40526225436E+02 -0.17203795240E+02  0.62721355695E+02  0.41800000000E+01 0. -1.
         -5    1    3    3    0  502  0.19703683590E+02 -0.62549798408E+02  0.11950437151E+02  0.66790701269E+02  0.41800000000E+01 0. -1.
        -11    1    4    4    0    0  0.38705079655E+02  0.41729732891E+02  0.26454026834E+02  0.62763598797E+02  0.00000000000E+00 0. -1.
         11    1    4    4    0    0 -0.13932358922E+02 -0.19706159919E+02  0.68744377120E+02  0.72857619708E+02  0.00000000000E+00 0.  1.
</event>
<event>
 8    1  0.6689467E-009  0.1154509E+03  0.7561462E-02  0.1250796E+00
          2   -1    0    0  501    0  0.00000000000E+00  0.00000000000E+00  0.23812999161E+03  0.23812999161E+03  0.00000000000E+00 0. -1.
         -2   -1    0    0    0  501 -0.00000000000E+00 -0.00000000000E+00 -0.88661098993E+02  0.88661098993E+02  0.00000000000E+00 0.  1.
         25    2    1    2    0    0 -0.66821160378E+02 -0.26323797137E+02  0.15242021825E+03  0.20985196533E+03  0.12509162502E+03 0.  0.
         23    2    1    2    0    0  0.66821160378E+02  0.26323797137E+02 -0.29513256365E+01  0.11693912527E+03  0.92239031471E+02 0.  0.
          5    1    3    3  502    0 -0.56210950501E+01 -0.68691980361E+02  0.83200316639E+02  0.10812007198E+03  0.41800000000E+01 0.  1.
         -5    1    3    3    0  502 -0.61200065328E+02  0.42368183224E+02  0.69219901616E+02  0.10173189335E+03  0.41800000000E+01 0.  1.
        -11    1    4    4    0    0  0.62023507522E+02  0.39327727513E+02 -0.35493377900E+02  0.81568164816E+02  0.00000000000E+00 0.  1.
         11    1    4    4    0    0  0.47976528554E+01 -0.13003930377E+02  0.32542052263E+02  0.35370960457E+02  0.00000000000E+00 0. -1.
</event>
<event>
 8    1  0.6689467E-009  0.1187046E+03  0.7561462E-02  0.1245249E+00
          2   -1    0    0  501    0  0.00000000000E+00  0.00000000000E+00  0.20524632183E+03  0.20524632183E+03  0.00000000000E+00 0.  1.
         -2   -1    0    0    0  501 -0.00000000000E+00 -0.00000000000E+00 -0.93991248045E+02  0.93991248045E+02  0.00000000000E+00 0. -1.
         25    2    1    2    0    0 -0.69233046846E+02  0.51198490680E+02  0.77745368210E+02  0.17060500833E+03  0.12508887387E+03 0.  0.
         23    2    1    2    0    0  0.69233046846E+02 -0.51198490680E+02  0.33509705577E+02  0.12863256155E+03  0.89492654998E+02 0.  0.
          5    1    3    3  502    0 -0.62953312426E+02 -0.20232447458E+02  0.20991088627E+01  0.66289894656E+02  0.41800000000E+01 0. -1.
         -5    1    3    3    0  502 -0.62797344206E+01  0.71430938138E+02  0.75646259347E+02  0.10431511367E+03  0.41800000000E+01 0. -1.
        -11    1    4    4    0    0  0.54411105333E+02 -0.97138597811E+01  0.56416916213E+02  0.78979718222E+02  0.00000000000E+00 0.  1.
         11    1    4    4    0    0  0.14821941514E+02 -0.41484630899E+02 -0.22907210636E+02  0.49652843325E+02  0.00000000000E+00 0. -1.
</event>
<event>
 8    1  0.6689467E-009  0.1039101E+03  0.7561462E-02  0.1272282E+00
          3   -1    0    0  501    0  0.00000000000E+00  0.00000000000E+00  0.97517690074E+03  0.97517690074E+03  0.00000000000E+00 0. -1.
         -3   -1    0    0    0  501 -0.00000000000E+00 -0.00000000000E+00 -0.13969374968E+02  0.13969374968E+02  0.00000000000E+00 0.  1.
         25    2    1    2    0    0  0.31024596421E+02 -0.29784892017E+02  0.57662872286E+03  0.59160552202E+03  0.12508694688E+03 0.  0.
         23    2    1    2    0    0 -0.31024596421E+02  0.29784892017E+02  0.38457880291E+03  0.39754075369E+03  0.91039166408E+02 0.  0.
          5    1    3    3  502    0  0.61321613280E+02 -0.42530751666E+02  0.52476537696E+03  0.53006167410E+03  0.41800000000E+01 0.  1.
         -5    1    3    3    0  502 -0.30297016859E+02  0.12745859648E+02  0.51863345901E+02  0.61543847920E+02  0.41800000000E+01 0.  1.
        -11    1    4    4    0    0 -0.55909210834E+02 -0.61349428001E+01  0.19213966329E+03  0.20020271623E+03  0.00000000000E+00 0.  1.
         11    1    4    4    0    0  0.24884614413E+02  0.35919834817E+02  0.19243913963E+03  0.19733803746E+03  0.00000000000E+00 0. -1.
</event>
<event>
 8    1  0.6689467E-009  0.1320028E+03  0.7561462E-02  0.1224514E+00
          4   -1    0    0  501    0  0.00000000000E+00  0.00000000000E+00  0.18441776340E+03  0.18441776340E+03  0.00000000000E+00 0.  1.
         -4   -1    0    0    0  501 -0.00000000000E+00 -0.00000000000E+00 -0.20712027620E+03  0.20712027620E+03  0.00000000000E+00 0. -1.
         25    2    1    2    0    0  0.31330163440E+02  0.85860542591E+02 -0.14542966112E+03  0.21248757621E+03  0.12509025459E+03 0.  0.
         23    2    1    2    0    0 -0.31330163440E+02 -0.85860542591E+02  0.12272714832E+03  0.17905046339E+03  0.92970444715E+02 0.  0.
          5    1    3    3  502    0 -0.14248818751E+02 -0.21465061166E+02 -0.80789606360E-01  0.26100892967E+02  0.41800000000E+01 0. -1.
         -5    1    3    3    0  502  0.45578982192E+02  0.10732560376E+03 -0.14534887151E+03  0.18638668324E+03  0.41800000000E+01 0. -1.
        -11    1    4    4    0    0  0.26754427713E+02 -0.19942090807E+02  0.67441033358E+02  0.75244796288E+02  0.00000000000E+00 0.  1.
         11    1    4    4    0    0 -0.58084591153E+02 -0.65918451783E+02  0.55286114958E+02  0.10380566710E+03  0.00000000000E+00 0. -1.
</event>
<event>
 8    1  0.6689467E-009  0.1215275E+03  0.7561462E-02  0.1240598E+00
         -2   -1    0    0    0  501 -0.00000000000E+00  0.00000000000E+00  0.23434313750E+02  0.23434313750E+02  0.00000000000E+00 0.  1.
          2   -1    0    0  501    0  0.00000000000E+00 -0.00000000000E+00 -0.78506287783E+03  0.78506287783E+03  0.00000000000E+00 0. -1.
         25    2    1    2    0    0  0.13507109764E+01 -0.77645627436E+02 -0.50174163587E+03  0.52289826636E+03  0.12508900798E+03 0.  0.
         23    2    1    2    0    0 -0.13507109764E+01  0.77645627436E+02 -0.25988692821E+03  0.28559892522E+03  0.89413996396E+02 0.  0.
          5    1    3    3  502    0 -0.41846638986E+02 -0.82695864107E+01 -0.32870134756E+03  0.33148389937E+03  0.41800000000E+01 0. -1.
         -5    1    3    3    0  502  0.43197349963E+02 -0.69376041026E+02 -0.17304028831E+03  0.19141436699E+03  0.41800000000E+01 0. -1.
        -11    1    4    4    0    0  0.33317419840E+02 -0.12499794433E-01 -0.68900336276E+02  0.76533044889E+02  0.00000000000E+00 0. -1.
         11    1    4    4    0    0 -0.34668130817E+02  0.77658127231E+02 -0.19098659194E+03  0.20906588033E+03  0.00000000000E+00 0.  1.
</event>
<event>
 8    1  0.6689467E-009  0.9110397E+02  0.7561462E-02  0.1300200E+00
         -1   -1    0    0    0  501 -0.00000000000E+00  0.00000000000E+00  0.82353653869E+02  0.82353653869E+02  0.00000000000E+00 0.  1.
          1   -1    0    0  501    0  0.00000000000E+00 -0.00000000000E+00 -0.16094030576E+03  0.16094030576E+03  0.00000000000E+00 0. -1.
         25    2    1    2    0    0 -0.12396460835E+02 -0.40152663544E+02 -0.56628451000E+02  0.14359666241E+03  0.12508921361E+03 0.  0.
         23    2    1    2    0    0  0.12396460835E+02  0.40152663544E+02 -0.21958200888E+02  0.99697297220E+02  0.87701082410E+02 0.  0.
          5    1    3    3  502    0 -0.88370359564E+01 -0.63131467955E+02  0.17135107317E+02  0.66141966659E+02  0.41800000000E+01 0. -1.
         -5    1    3    3    0  502 -0.35594248783E+01  0.22978804412E+02 -0.73763558317E+02  0.77454695747E+02  0.41800000000E+01 0. -1.
        -11    1    4    4    0    0  0.48245658639E+02  0.32121825349E+02 -0.24380628265E+02  0.62879808173E+02  0.00000000000E+00 0. -1.
         11    1    4    4    0    0 -0.35849197804E+02  0.80308381947E+01  0.24224273774E+01  0.36817489047E+02  0.00000000000E+00 0.  1.
</event>
<event>
 8    1  0.6689467E-009  0.6961258E+02  0.7561462E-02  0.1361415E+00
          1   -1    0    0  501    0  0.00000000000E+00  0.00000000000E+00  0.41122352823E+03  0.41122352823E+03  0.00000000000E+00 0. -1.
         -1   -1    0    0    0  501 -0.00000000000E+00 -0.00000000000E+00 -0.32512438123E+02  0.32512438123E+02  0.00000000000E+00 0.  1.
         25    2    1    2    0    0  0.38515528287E+02  0.51591974291E+01  0.23307660230E+03  0.26736061442E+03  0.12508769870E+03 0.  0.
         23    2    1    2    0    0 -0.38515528287E+02 -0.51591974291E+01  0.14563448781E+03  0.17637535193E+03  0.91590378820E+02 0.  0.
          5    1    3    3  502    0 -0.22859384437E+01 -0.13718520894E+02 -0.11579179705E+02  0.18573452364E+02  0.41800000000E+01 0.  1.
         -5    1    3    3    0  502  0.40801466731E+02  0.18877718323E+02  0.24465578201E+03  0.24878716206E+03  0.41800000000E+01 0.  1.
        -11    1    4    4    0    0  0.14043188166E+02 -0.20456087463E+02  0.47942708452E+01  0.25271479598E+02  0.00000000000E+00 0.  1.
         11    1    4    4    0    0 -0.52558716453E+02  0.15296890034E+02  0.14084021696E+03  0.15110387233E+03  0.00000000000E+00 0. -1.
</event>
<event>
 8    1  0.6689467E-009  0.9680806E+02  0.7561462E-02  0.1287155E+00
         -2   -1    0    0    0  501 -0.00000000000E+00  0.00000000000E+00  0.28256332701E+02  0.28256332701E+02  0.00000000000E+00 0.  1.
          2   -1    0    0  501    0  0.00000000000E+00 -0.00000000000E+00 -0.51329153720E+03  0.51329153720E+03  0.00000000000E+00 0. -1.
         25    2    1    2    0    0 -0.46426392474E+01  0.36707065969E+01 -0.15533006606E+03  0.19953152172E+03  0.12510144104E+03 0.  0.
         23    2    1    2    0    0  0.46426392474E+01 -0.36707065969E+01 -0.32970513844E+03  0.34201634818E+03  0.90745115153E+02 0.  0.
          5    1    3    3  502    0  0.50280661836E+02  0.99442562921E+01 -0.23541122238E+02  0.56556962650E+02  0.41800000000E+01 0.  1.
         -5    1    3    3    0  502 -0.54923301084E+02 -0.62735496952E+01 -0.13178894382E+03  0.14297455907E+03  0.41800000000E+01 0.  1.
        -11    1    4    4    0    0  0.25371922144E+02 -0.38566954989E+02 -0.22567748885E+03  0.23035076172E+03  0.00000000000E+00 0.  1.
         11    1    4    4    0    0 -0.20729282897E+02  0.34896248392E+02 -0.10402764959E+03  0.11166558647E+03  0.00000000000E+00 0. -1.
</event>
<event>
 8    1  0.6689467E-009  0.3548958E+03  0.7561462E-02  0.1060623E+00
         -2   -1    0    0    0  501 -0.00000000000E+00  0.00000000000E+00  0.13538531345E+03  0.13538531345E+03  0.00000000000E+00 0.  1.
          2   -1    0    0  501    0  0.00000000000E+00 -0.00000000000E+00 -0.10316291416E+04  0.10316291416E+04  0.00000000000E+00 0. -1.
         25    2    1    2    0    0  0.14173803580E+03  0.32151775950E+03 -0.35293124710E+03  0.51348973074E+03  0.12509155820E+03 0.  0.
         23    2    1    2    0    0 -0.14173803580E+03 -0.32151775950E+03 -0.54331258104E+03  0.65352472430E+03  0.91883970767E+02 0.  0.
          5    1    3    3  502    0  0.57424046399E+02  0.18661442757E+03 -0.27229077910E+03  0.33508537190E+03  0.41800000000E+01 0. -1.
         -5    1    3    3    0  502  0.84313989397E+02  0.13490333193E+03 -0.80640468006E+02  0.17840435884E+03  0.41800000000E+01 0. -1.
        -11    1    4    4    0    0 -0.12065953683E+03 -0.21290317197E+03 -0.30705947632E+03  0.39264743277E+03  0.00000000000E+00 0.  1.
         11    1    4    4    0    0 -0.21078498962E+02 -0.10861458753E+03 -0.23625310472E+03  0.26087729153E+03  0.00000000000E+00 0. -1.
</event>
<event>
 8    1  0.6689467E-009  0.1292781E+03  0.7561462E-02  0.1228531E+00
         -1   -1    0    0    0  501 -0.00000000000E+00  0.00000000000E+00  0.97335431050E+03  0.97335431050E+03  0.00000000000E+00 0.  1.
          1   -1    0    0  501    0  0.00000000000E+00 -0.00000000000E+00 -0.24943938858E+02  0.24943938858E+02  0.00000000000E+00 0. -1.
         25    2    1    2    0    0 -0.10799516590E+03 -0.23730755622E+02  0.46922418360E+03  0.49804166520E+03  0.12509221072E+03 0.  0.
         23    2    1    2    0    0  0.10799516590E+03  0.23730755622E+02  0.47918618805E+03  0.50025658416E+03  0.91712281394E+02 0.  0.
          5    1    3    3  502    0 -0.40999188607E+02  0.77428643552E+01  0.27515631730E+02  0.50154439528E+02  0.41800000000E+01 0.  1.
         -5    1    3    3    0  502 -0.66995977297E+02 -0.31473619977E+02  0.44170855187E+03  0.44788722567E+03  0.41800000000E+01 0.  1.
        -11    1    4    4    0    0  0.23945027387E+02  0.49152174431E+02  0.15375684120E+03  0.16318843955E+03  0.00000000000E+00 0. -1.
         11    1    4    4    0    0  0.84050138517E+02 -0.25421418810E+02  0.32542934685E+03  0.33706814461E+03  0.00000000000E+00 0.  1.
</event>
<event>
 8    1  0.6689467E-009  0.2173289E+03  0.7561462E-02  0.1135890E+00
         -2   -1    0    0    0  501 -0.00000000000E+00  0.00000000000E+00  0.10529776201E+03  0.10529776201E+03  0.00000000000E+00 0.  1.
          2   -1    0    0  501    0  0.00000000000E+00 -0.00000000000E+00 -0.48304898630E+03  0.48304898630E+03  0.00000000000E+00 0. -1.
         25    2    1    2    0    0  0.16310868051E+03 -0.10953279271E+03 -0.22997470497E+03  0.32731944966E+03  0.12509109825E+03 0.  0.
         23    2    1    2    0    0 -0.16310868051E+03  0.10953279271E+03 -0.14777651931E+03  0.26102729865E+03  0.87723865863E+02 0.  0.
          5    1    3    3  502    0  0.15703401893E+03 -0.52337649405E+02 -0.12469708886E+03  0.20728181062E+03  0.41800000000E+01 0. -1.
         -5    1    3    3    0  502  0.60746615820E+01 -0.57195143306E+02 -0.10527761611E+03  0.12003763904E+03  0.41800000000E+01 0. -1.
        -11    1    4    4    0    0 -0.16814343069E+03  0.88952008714E+02 -0.14594713967E+03  0.23976079895E+03  0.00000000000E+00 0. -1.
         11    1    4    4    0    0  0.50347501804E+01  0.20580783998E+02 -0.18293796486E+01  0.21266499694E+02  0.00000000000E+00 0.  1.
</event>
<event>
 8    1  0.6689467E-009  0.2307830E+03  0.7561462E-02  0.1126090E+00
          3   -1    0    0  501    0  0.00000000000E+00  0.00000000000E+00  0.37012811131E+03  0.37012811131E+03  0.00000000000E+00 0. -1.
         -3   -1    0    0    0  501 -0.00000000000E+00 -0.00000000000E+00 -0.16631649678E+03  0.16631649678E+03  0.00000000000E+00 0.  1.
         25    2    1    2    0    0 -0.79424940748E+02  0.20881619819E+03  0.97786246495E+02  0.27408496870E+03  0.12509154338E+03 0.  0.
         23    2    1    2    0    0  0.79424940748E+02 -0.20881619819E+03  0.10602536804E+03  0.26235963939E+03  0.87628054157E+02 0.  0.
          5    1    3    3  502    0 -0.16042122952E+02  0.94484419655E+02 -0.20094476585E+02  0.98009773266E+02  0.41800000000E+01 0.  1.
         -5    1    3    3    0  502 -0.63382817797E+02  0.11433177854E+03  0.11788072308E+03  0.17607519544E+03  0.41800000000E+01 0.  1.
        -11    1    4    4    0    0  0.69193510245E+02 -0.21287568830E+03  0.11149317965E+03  0.25006904974E+03  0.00000000000E+00 0. -1.
         11    1    4    4    0    0  0.10231430504E+02  0.40594901109E+01 -0.54678116152E+01  0.12290589651E+02  0.00000000000E+00 0.  1.
</event>
<event>
 8    1  0.6689467E-009  0.1220884E+03  0.7561462E-02  0.1239691E+00
          1   -1    0    0  501    0  0.00000000000E+00  0.00000000000E+00  0.15268585384E+03  0.15268585384E+03  0.00000000000E+00 0. -1.
         -1   -1    0    0    0  501 -0.00000000000E+00 -0.00000000000E+00 -0.18363955747E+03  0.18363955747E+03  0.00000000000E+00 0.  1.
         25    2    1    2    0    0 -0.65266857550E+02  0.48368389274E+02  0.81279604232E+02  0.16983454818E+03  0.12505253262E+03 0.  0.
         23    2    1    2    0    0  0.65266857550E+02 -0.48368389274E+02 -0.11223330786E+03  0.16649086313E+03  0.92323498282E+02 0.  0.
          5    1    3    3  502    0 -0.77897368594E+02  0.67328514120E+02  0.20872768655E+02  0.10513930625E+03  0.41800000000E+01 0.  1.
         -5    1    3    3    0  502  0.12630511044E+02 -0.18960124846E+02  0.60406835577E+02  0.64695241926E+02  0.41800000000E+01 0.  1.
        -11    1    4    4    0    0  0.61345560509E+02 -0.71669739681E+02 -0.10630654870E+03  0.14212991127E+03  0.00000000000E+00 0.  1.
         11    1    4    4    0    0  0.39212970414E+01  0.23301350407E+02 -0.59267591624E+01  0.24360951859E+02  0.00000000000E+00 0. -1.
</event>
<event>
 8    1  0.6689467E-009  0.1158089E+03  0.7561462E-02  0.1250176E+00
          2   -1    0    0  501    0  0.00000000000E+00  0.00000000000E+00  0.15588436761E+04  0.15588436761E+04  0.00000000000E+00 0.  1.
         -2   -1    0    0    0  501 -0.00000000000E+00 -0.00000000000E+00 -0.12998624798E+02  0.12998624798E+02  0.00000000000E+00 0. -1.
         25    2    1    2    0    0  0.29339117422E+02  0.79960693559E+02  0.99707240971E+03  0.10084914517E+04  0.12508845487E+03 0.  0.
         23    2    1    2    0    0 -0.29339117422E+02 -0.79960693559E+02  0.54877264157E+03  0.56335084921E+03  0.94648142349E+02 0.  0.
          5    1    3    3  502    0  0.58762015866E+02  0.58854849675E+02  0.32727396489E+03  0.33770192232E+03  0.41800000000E+01 0.  1.
         -5    1    3    3    0  502 -0.29422898445E+02  0.21105843883E+02  0.66979844482E+03  0.67078952935E+03  0.41800000000E+01 0.  1.
        -11    1    4    4    0    0  0.17071122637E+02  0.25172273296E+01  0.21094778636E+02  0.27253428173E+02  0.00000000000E+00 0. -1.
         11    1    4    4    0    0 -0.46410240059E+02 -0.82477920888E+02  0.52767786293E+03  0.53609742104E+03  0.00000000000E+00 0.  1.
</event>
<event>
 8    1  0.6689467E-009  0.1116403E+03  0.7561462E-02  0.1257562E+00
         -1   -1    0    0    0  501 -0.00000000000E+00  0.00000000000E+00  0.91490541232E+02  0.91490541232E+02  0.00000000000E+00 0.  1.
          1   -1    0    0  501    0  0.00000000000E+00 -0.00000000000E+00 -0.23596286529E+03  0.23596286529E+03  0.00000000000E+00 0. -1.
         25    2    1    2    0    0 -0.60568652535E+02  0.12901656136E+02  0.71462897700E+01  0.13976240228E+03  0.12508974871E+03 0.  0.
         23    2    1    2    0    0  0.60568652535E+02 -0.12901656136E+02 -0.15161861383E+03  0.18769100425E+03  0.91677121546E+02 0.  0.
          5    1    3    3  502    0  0.39869276413E+01 -0.49000050075E+02 -0.41639233551E+01  0.49514756962E+02  0.41800000000E+01 0. -1.
         -5    1    3    3    0  502 -0.64555580177E+02  0.61901706211E+02  0.11310213125E+02  0.90247645314E+02  0.41800000000E+01 0. -1.
        -11    1    4    4    0    0  0.23596839993E+02 -0.34341151412E+02 -0.14582432716E+02  0.44144907768E+02  0.00000000000E+00 0.  1.
         11    1    4    4    0    0  0.36971812542E+02  0.21439495275E+02 -0.13703618111E+03  0.14354609648E+03  0.00000000000E+00 0. -1.
</event>
<event>
 8    1  0.6689467E-009  0.7916819E+02  0.7561462E-02  0.1331429E+00
         -1   -1    0    0    0  501 -0.00000000000E+00  0.00000000000E+00  0.17274935088E+03  0.17274935088E+03  0.00000000000E+00 0.  1.
          1   -1    0    0  501    0  0.00000000000E+00 -0.00000000000E+00 -0.83562819417E+02  0.83562819417E+02  0.00000000000E+00 0. -1.
         25    2    1    2    0    0  0.21265252705E+01  0.88467989007E+01 -0.57154686972E+01  0.12555156965E+03  0.12509093532E+03 0.  0.
         23    2    1    2    0    0 -0.21265252705E+01 -0.88467989007E+01  0.94902000158E+02  0.13076060064E+03  0.89493894127E+02 0.  0.
          5    1    3    3  502    0 -0.27874748210E+02  0.27025293896E+02 -0.53432446726E+02  0.66180562562E+02  0.41800000000E+01 0. -1.
         -5    1    3    3    0  502  0.30001273481E+02 -0.18178494995E+02  0.47716978028E+02  0.59371007090E+02  0.41800000000E+01 0. -1.
        -11    1    4    4    0    0  0.15596212519E+02 -0.42858390123E+02  0.74415688072E+02  0.87279883594E+02  0.00000000000E+00 0.  1.
         11    1    4    4    0    0 -0.17722737790E+02  0.34011591222E+02  0.20486312085E+02  0.43480717049E+02  0.00000000000E+00 0. -1.
</event>
<event>
 8    1  0.6689467E-009  0.1258017E+03  0.7561462E-02  0.1233822E+00
         -1   -1    0    0    0  501 -0.00000000000E+00  0.00000000000E+00  0.30269715775E+03  0.30269715775E+03  0.00000000000E+00 0. -1.
          1   -1    0    0  501    0  0.00000000000E+00 -0.00000000000E+00 -0.55829850067E+02  0.55829850067E+02  0.00000000000E+00 0.  1.
         25    2    1    2    0    0 -0.20938839498E+02  0.69404873232E+02  0.15325028259E+03  0.21068594016E+03  0.12508974713E+03 0.  0.
         23    2    1    2    0    0  0.20938839498E+02 -0.69404873232E+02  0.93617025091E+02  0.14784106766E+03  0.88528879308E+02 0.  0.
          5    1    3    3  502    0 -0.57688094502E+02  0.79987857308E+02  0.13715992730E+03  0.16898606931E+03  0.41800000000E+01 0.  1.
         -5    1    3    3    0  502  0.36749255004E+02 -0.10582984077E+02  0.16090355291E+02  0.41699870847E+02  0.41800000000E+01 0.  1.
        -11    1    4    4    0    0 -0.18267061027E+02 -0.72813702526E+02  0.61409828844E+02  0.96988081086E+02  0.00000000000E+00 0.  1.
         11    1    4    4    0    0  0.39205900525E+02  0.34088292949E+01  0.32207196247E+02  0.50852986571E+02  0.00000000000E+00 0. -1.
</event>
<event>
 8    1  0.6689467E-009  0.1316667E+03  0.7561462E-02  0.1225003E+00
          2   -1    0    0  501    0  0.00000000000E+00  0.00000000000E+00  0.26968178796E+02  0.26968178796E+02  0.00000000000E+00 0. -1.
         -2   -1    0    0    0  501 -0.00000000000E+00 -0.00000000000E+00 -0.70883359045E+03  0.70883359045E+03  0.00000000000E+00 0.  1.
         25    2    1    2    0    0  0.55800264977E+02 -0.60582324673E+02 -0.43654360952E+03  0.46152058705E+03  0.12508813545E+03 0.  0.
         23    2    1    2    0    0 -0.55800264977E+02  0.60582324673E+02 -0.24532180213E+03  0.27428118219E+03  0.90903754963E+02 0.  0.
          5    1    3    3  502    0 -0.35958133524E+02 -0.96611839958E+01 -0.61178345316E+02  0.71739725246E+02  0.41800000000E+01 0.  1.
         -5    1    3    3    0  502  0.91758398501E+02 -0.50921140677E+02 -0.37536526420E+03  0.38978086181E+03  0.41800000000E+01 0.  1.
        -11    1    4    4    0    0  0.49085881681E+01  0.59929110180E+02 -0.14565878042E+03  0.15758195581E+03  0.00000000000E+00 0.  1.
         11    1    4    4    0    0 -0.60708853145E+02  0.65321449274E+00 -0.99663021717E+02  0.11669922638E+03  0.00000000000E+00 0. -1.
</event>
<event>
 8    1  0.6689467E-009  0.6416204E+02  0.7561462E-02  0.1381152E+00
         -1   -1    0    0    0  501 -0.00000000000E+00  0.00000000000E+00  0.94940325953E+02  0.94940325953E+02  0.00000000000E+00 0.  1.
          1   -1    0    0  501    0  0.00000000000E+00 -0.00000000000E+00 -0.12698526950E+03  0.12698526950E+03  0.00000000000E+00 0. -1.
         25    2    1    2    0    0  0.52887512730E+01  0.12629938063E+02 -0.39058159035E+02  0.13176090243E+03  0.12509160403E+03 0.  0.
         23    2    1    2    0    0 -0.52887512730E+01 -0.12629938063E+02  0.70132154907E+01  0.90164693016E+02  0.88842559900E+02 0.  0.
          5    1    3    3  502    0  0.20750411703E+02  0.22659838032E+02 -0.80471710695E+02  0.86239297699E+02  0.41800000000E+01 0. -1.
         -5    1    3    3    0  502 -0.15461660429E+02 -0.10029899968E+02  0.41413551660E+02  0.45521604735E+02  0.41800000000E+01 0. -1.
        -11    1    4    4    0    0 -0.29568278862E+02 -0.34711993591E+02 -0.17873890491E+02  0.48976336890E+02  0.00000000000E+00 0. -1.
         11    1    4    4    0    0  0.24279527589E+02  0.22082055527E+02  0.24887105982E+02  0.41188356126E+02  0.00000000000E+00 0.  1.
</event>
<event>
 8    1  0.6689467E-009  0.7568437E+02  0.7561462E-02  0.1341765E+00
          4   -1    0    0  501    0  0.00000000000E+00  0.00000000000E+00  0.19008021957E+03  0.19008021957E+03  0.00000000000E+00 0. -1.
         -4   -1    0    0    0  501 -0.00000000000E+00 -0.00000000000E+00 -0.89701768694E+02  0.89701768694E+02  0.00000000000E+00 0.  1.
         25    2    1    2    0    0 -0.59159003762E+02 -0.23303237829E+02  0.77091252813E+02  0.16010630076E+03  0.12509251641E+03 0.  0.
         23    2    1    2    0    0  0.59159003762E+02  0.23303237829E+02  0.23287198067E+02  0.11967568751E+03  0.98676988036E+02 0.  0.
          5    1    3    3  502    0 -0.24313187108E+01 -0.10134915389E+02 -0.33345524977E+02  0.35185568869E+02  0.41800000000E+01 0.  1.
         -5    1    3    3    0  502 -0.56727685051E+02 -0.13168322440E+02  0.11043677779E+03  0.12492073189E+03  0.41800000000E+01 0.  1.
        -11    1    4    4    0    0  0.34858810098E+02  0.39398824939E+02 -0.28810427909E+02  0.59978702923E+02  0.00000000000E+00 0.  1.
         11    1    4    4    0    0  0.24300193664E+02 -0.16095587110E+02  0.52097625976E+02  0.59696984587E+02  0.00000000000E+00 0. -1.
</event>
<event>
 8    1  0.6689467E-009  0.1118684E+03  0.7561462E-02  0.1257149E+00
          1   -1    0    0  501    0  0.00000000000E+00  0.00000000000E+00  0.42125561689E+03  0.42125561689E+03  0.00000000000E+00 0. -1.
         -1   -1    0    0    0  501 -0.00000000000E+00 -0.00000000000E+00 -0.47580309375E+02  0.47580309375E+02  0.00000000000E+00 0.  1.
         25    2    1    2    0    0 -0.24111177467E+02  0.63543671971E+02  0.10410357984E+03  0.17636215831E+03  0.12508760299E+03 0.  0.
         23    2    1    2    0    0  0.24111177467E+02 -0.63543671971E+02  0.26957172767E+03  0.29247376796E+03  0.90845150971E+02 0.  0.
          5    1    3    3  502    0  0.15504088264E+02  0.88454259337E+02  0.90235882285E+02  0.12737550628E+03  0.41800000000E+01 0.  1.
         -5    1    3    3    0  502 -0.39615265731E+02 -0.24910587366E+02  0.13867697558E+02  0.48986652033E+02  0.41800000000E+01 0.  1.
        -11    1    4    4    0    0  0.14506063546E+02  0.66844794379E+01  0.25131434977E+01  0.16168612655E+02  0.00000000000E+00 0.  1.
         11    1    4    4    0    0  0.96051139213E+01 -0.70228151409E+02  0.26705858418E+03  0.27630515530E+03  0.00000000000E+00 0. -1.
</event>
<event>
 8    1  0.6689467E-009  0.6033390E+02  0.7561462E-02  0.1396436E+00
         -1   -1    0    0    0  501 -0.00000000000E+00  0.00000000000E+00  0.38922229497E+03  0.38922229497E+03  0.00000000000E+00 0.  1.
          1   -1    0    0  501    0  0.00000000000E+00 -0.00000000000E+00 -0.31025299470E+02  0.31025299470E+02  0.00000000000E+00 0. -1.
         25    2    1    2    0    0 -0.32912545124E+01  0.15878423186E+02  0.23671439097E+03  0.26822394069E+03  0.12508965901E+03 0.  0.
         23    2    1    2    0    0  0.32912545124E+01 -0.15878423186E+02  0.12148260454E+03  0.15202365375E+03  0.89945602532E+02 0.  0.
          5    1    3    3  502    0  0.10650508760E+02  0.11706758105E+02  0.24849887379E+03  0.24903743533E+03  0.41800000000E+01 0.  1.
         -5    1    3    3    0  502 -0.13941763272E+02  0.41716650817E+01 -0.11784482822E+02  0.19186505363E+02  0.41800000000E+01 0.  1.
        -11    1    4    4    0    0  0.36690603625E+02  0.18616057466E+02  0.72957679302E+02  0.83759064937E+02  0.00000000000E+00 0.  1.
         11    1    4    4    0    0 -0.33399349112E+02 -0.34494480652E+02  0.48524925233E+02  0.68264588810E+02  0.00000000000E+00 0. -1.
</event>
<event>
 8    1  0.6689467E-009  0.1319997E+03  0.7561462E-02  0.1224518E+00
         -1   -1    0    0    0  501 -0.00000000000E+00  0.00000000000E+00  0.13718249966E+03  0.13718249966E+03  0.00000000000E+00 0.  1.
          1   -1    0    0  501    0  0.00000000000E+00 -0.00000000000E+00 -0.25448651698E+03  0.25448651698E+03  0.00000000000E+00 0. -1.
         25    2    1    2    0    0 -0.65422264212E+02 -0.10715334855E+03 -0.15228112641E+03  0.23366463290E+03  0.12509079282E+03 0.  0.
         23    2    1    2    0    0  0.65422264212E+02  0.10715334855E+03  0.34977109092E+02  0.15800438374E+03  0.89331261941E+02 0.  0.
          5    1    3    3  502    0 -0.47915818955E+02 -0.11015899873E+03 -0.17001771964E+03  0.20821726177E+03  0.41800000000E+01 0. -1.
         -5    1    3    3    0  502 -0.17506445256E+02  0.30056501776E+01  0.17736593224E+02  0.25447371135E+02  0.41800000000E+01 0. -1.
        -11    1    4    4    0    0  0.56260161330E+02  0.91499350916E+02 -0.11584259445E+02  0.10803486492E+03  0.00000000000E+00 0. -1.
         11    1    4    4    0    0  0.91621028813E+01  0.15653997637E+02  0.46561368537E+02  0.49969518822E+02  0.00000000000E+00 0.  1.
</event>
<event>
 8    1  0.6689467E-009  0.1990050E+03  0.7561462E-02  0.1150581E+00
         -2   -1    0    0    0  501 -0.00000000000E+00  0.00000000000E+00  0.12818222545E+04  0.12818222545E+04  0.00000000000E+00 0. -1.
          2   -1    0    0  501    0  0.00000000000E+00 -0.00000000000E+00 -0.59597771619E+02  0.59597771619E+02  0.00000000000E+00 0.  1.
         25    2    1    2    0    0  0.13095691032E+03  0.10784563743E+03  0.10835415626E+04  0.11038521565E+04  0.12508745600E+03 0.  0.
         23    2    1    2    0    0 -0.13095691032E+03 -0.10784563743E+03  0.13868292036E+03  0.23756786970E+03  0.91788596469E+02 0.  0.
          5    1    3    3  502    0  0.40559884205E+02  0.11127631187E+03  0.68252974660E+03  0.69274226751E+03  0.41800000000E+01 0. -1.
         -5    1    3    3    0  502  0.90397026111E+02 -0.34306744427E+01  0.40101181596E+03  0.41110988895E+03  0.41800000000E+01 0. -1.
        -11    1    4    4    0    0 -0.24684800663E+01  0.12591301413E+02  0.24574427638E+02  0.27722495538E+02  0.00000000000E+00 0. -1.
         11    1    4    4    0    0 -0.12848843025E+03 -0.12043693884E+03  0.11410849272E+03  0.20984537416E+03  0.00000000000E+00 0.  1.
</event>
<event>
 8    1  0.6689467E-009  0.1418425E+03  0.7561462E-02  0.1210871E+00
          2   -1    0    0  501    0  0.00000000000E+00  0.00000000000E+00  0.40914034891E+03  0.40914034891E+03  0.00000000000E+00 0. -1.
         -2   -1    0    0    0  501 -0.00000000000E+00 -0.00000000000E+00 -0.66964297523E+02  0.66964297523E+02  0.00000000000E+00 0.  1.
         25    2    1    2    0    0  0.66154092644E+02 -0.75112952285E+02  0.73680517476E+02  0.17634071369E+03  0.12509559974E+03 0.  0.
         23    2    1    2    0    0 -0.66154092644E+02  0.75112952285E+02  0.26849553391E+03  0.29976393274E+03  0.88035470511E+02 0.  0.
          5    1    3    3  502    0 -0.47905979478E+00  0.29633235998E+02 -0.34481330069E+01  0.30128395165E+02  0.41800000000E+01 0.  1.
         -5    1    3    3    0  502  0.66633152439E+02 -0.10474618828E+03  0.77128650483E+02  0.14621231853E+03  0.41800000000E+01 0.  1.
        -11    1    4    4    0    0 -0.84799059368E+02  0.50622019200E+02  0.17038033057E+03  0.19693381209E+03  0.00000000000E+00 0.  1.
         11    1    4    4    0    0  0.18644966723E+02  0.24490933086E+02  0.98115203341E+02  0.10283012066E+03  0.00000000000E+00 0. -1.
</event>
<event>
 8    1  0.6689467E-009  0.6507020E+02  0.7561462E-02  0.1377708E+00
          1   -1    0    0  501    0  0.00000000000E+00  0.00000000000E+00  0.12360726691E+03  0.12360726691E+03  0.00000000000E+00 0.  1.
         -1   -1    0    0    0  501 -0.00000000000E+00 -0.00000000000E+00 -0.10793838374E+03  0.10793838374E+03  0.00000000000E+00 0. -1.
         25    2    1    2    0    0  0.94483397268E+01 -0.23173761408E+02  0.42110411787E+02  0.13435184641E+03  0.12510330735E+03 0.  0.
         23    2    1    2    0    0 -0.94483397268E+01  0.23173761408E+02 -0.26441528613E+02  0.97193804243E+02  0.90117627612E+02 0.  0.
          5    1    3    3  502    0  0.30843523893E+02 -0.47737895804E+02  0.70700251517E+02  0.90808742016E+02  0.41800000000E+01 0.  1.
         -5    1    3    3    0  502 -0.21395184166E+02  0.24564134396E+02 -0.28589839731E+02  0.43543104390E+02  0.41800000000E+01 0.  1.
        -11    1    4    4    0    0  0.65742548969E+01  0.23378707194E+02  0.29956299015E+02  0.38563773521E+02  0.00000000000E+00 0.  1.
         11    1    4    4    0    0 -0.16022594624E+02 -0.20494578597E+00 -0.56397827628E+02  0.58630030722E+02  0.00000000000E+00 0. -1.
</event>
<event>
 8    1  0.6689467E-009  0.1395027E+03  0.7561462E-02  0.1214000E+00
          1   -1    0    0  501    0  0.00000000000E+00  0.00000000000E+00  0.64872672252E+03  0.64872672252E+03  0.00000000000E+00 0. -1.
         -1   -1    0    0    0  501 -0.00000000000E+00 -0.00000000000E+00 -0.52555595860E+02  0.52555595860E+02  0.00000000000E+00 0.  1.
         25    2    1    2    0    0  0.70166652916E+02 -0.96623482179E+02  0.48490828711E+03  0.51482279449E+03  0.12508799435E+03 0.  0.
         23    2    1    2    0    0 -0.70166652916E+02  0.96623482179E+02  0.11126283956E+03  0.18645952389E+03  0.90156963654E+02 0.  0.
          5    1    3    3  502    0  0.10715730631E+02  0.52877681363E+01 -0.28533865354E+01  0.12976963803E+02  0.41800000000E+01 0.  1.
         -5    1    3    3    0  502  0.59450922284E+02 -0.10191125032E+03  0.48776167364E+03  0.50184583069E+03  0.41800000000E+01 0.  1.
        -11    1    4    4    0    0  0.17650247479E+02  0.40206142344E+02  0.44728112898E+02  0.62679097007E+02  0.00000000000E+00 0.  1.
         11    1    4    4    0    0 -0.87816900395E+02  0.56417339836E+02  0.66534726658E+02  0.12378042689E+03  0.00000000000E+00 0. -1.
</event>
<event>
 8    1  0.6689467E-009  0.3229277E+03  0.7561462E-02  0.1074310E+00
         -1   -1    0    0    0  501 -0.00000000000E+00  0.00000000000E+00  0.10440301349E+03  0.10440301349E+03  0.00000000000E+00 0.  1.
          1   -1    0    0  501    0  0.00000000000E+00 -0.00000000000E+00 -0.10758846503E+04  0.10758846503E+04  0.00000000000E+00 0. -1.
         25    2    1    2    0    0 -0.49102662486E+02  0.31265146465E+03 -0.51236708534E+03  0.61508520924E+03  0.12509106552E+03 0.  0.
         23    2    1    2    0    0  0.49102662486E+02 -0.31265146465E+03 -0.45911455146E+03  0.56520245453E+03  0.92225991124E+02 0.  0.
          5    1    3    3  502    0 -0.61511365431E+02  0.28852297189E+03 -0.38639234314E+03  0.48615395568E+03  0.41800000000E+01 0. -1.
         -5    1    3    3    0  502  0.12408702945E+02  0.24128492761E+02 -0.12597474220E+03  0.12893125356E+03  0.41800000000E+01 0. -1.
        -11    1    4    4    0    0  0.61747643819E+02 -0.29646070840E+03 -0.45073960710E+03  0.54301741827E+03  0.00000000000E+00 0. -1.
         11    1    4    4    0    0 -0.12644981332E+02 -0.16190756248E+02 -0.83749443617E+01  0.22185036259E+02  0.00000000000E+00 0.  1.
</event>
<event>
 8    1  0.6689467E-009  0.9389985E+02  0.7561462E-02  0.1293673E+00
          1   -1    0    0  501    0  0.00000000000E+00  0.00000000000E+00  0.38818228262E+03  0.38818228262E+03  0.00000000000E+00 0. -1.
         -1   -1    0    0    0  501 -0.00000000000E+00 -0.00000000000E+00 -0.44527886938E+02  0.44527886938E+02  0.00000000000E+00 0.  1.
         25    2    1    2    0    0 -0.13908092817E+02  0.75811878693E+02  0.18878900778E+03  0.23922630676E+03  0.12508821044E+03 0.  0.
         23    2    1    2    0    0  0.13908092817E+02 -0.75811878693E+02  0.15486538791E+03  0.19348386280E+03  0.86670876286E+02 0.  0.
          5    1    3    3  502    0  0.18251271879E+02  0.13439158976E+02 -0.12355692861E+02  0.26150630303E+02  0.41800000000E+01 0. -1.
         -5    1    3    3    0  502 -0.32159364696E+02  0.62372719717E+02  0.20114470064E+03  0.21307567646E+03  0.41800000000E+01 0. -1.
        -11    1    4    4    0    0  0.31339131958E+02 -0.68915636764E+02  0.59490110301E+02  0.96283848106E+02  0.00000000000E+00 0.  1.
         11    1    4    4    0    0 -0.17431039141E+02 -0.68962419281E+01  0.95375277607E+02  0.97200014696E+02  0.00000000000E+00 0. -1.
</event>
<event>
 8    1  0.6689467E-009  0.9809081E+02  0.7561462E-02  0.1284363E+00
         -3   -1    0    0    0  501 -0.00000000000E+00  0.00000000000E+00  0.41591098026E+03  0.41591098026E+03  0.00000000000E+00 0.  1.
          3   -1    0    0  501    0  0.00000000000E+00 -0.00000000000E+00 -0.43623534527E+02  0.43623534527E+02  0.00000000000E+00 0. -1.
         25    2    1    2    0    0  0.76727142636E+02 -0.14524565336E+02  0.18256336902E+03  0.23467962317E+03  0.12508846634E+03 0.  0.
         23    2    1    2    0    0 -0.76727142636E+02  0.14524565336E+02  0.18972407672E+03  0.22485489162E+03  0.92013475005E+02 0.  0.
          5    1    3    3  502    0  0.32191471747E+02  0.59019374058E+00 -0.11890163530E+02  0.34575823499E+02  0.41800000000E+01 0. -1.
         -5    1    3    3    0  502  0.44535670889E+02 -0.15114759077E+02  0.19445353255E+03  0.20010379968E+03  0.41800000000E+01 0. -1.
        -11    1    4    4    0    0 -0.81014392676E+02  0.40219358569E+02  0.16854876058E+03  0.19128411674E+03  0.00000000000E+00 0. -1.
         11    1    4    4    0    0  0.42872500404E+01 -0.25694793233E+02  0.21175316134E+02  0.33570774873E+02  0.00000000000E+00 0.  1.
</event>
<event>
 8    1  0.6689467E-009  0.1289185E+03  0.7561462E-02  0.1229069E+00
          1   -1    0    0  501    0  0.00000000000E+00  0.00000000000E+00  0.95358195720E+02  0.95358195720E+02  0.00000000000E+00 0. -1.
         -1   -1    0    0    0  501 -0.00000000000E+00 -0.00000000000E+00 -0.31475870906E+03  0.31475870906E+03  0.00000000000E+00 0.  1.
         25    2    1    2    0    0 -0.83851053648E+02  0.88602014652E+02 -0.18133398494E+03  0.25181508677E+03  0.12508999814E+03 0.  0.
         23    2    1    2    0    0  0.83851053648E+02 -0.88602014652E+02 -0.38066528397E+02  0.15830181800E+03  0.93429592746E+02 0.  0.
          5    1    3    3  502    0 -0.74973919846E+02  0.69215962413E+02 -0.41388021249E+02  0.11019246260E+03  0.41800000000E+01 0. -1.
         -5    1    3    3    0  502 -0.88771338018E+01  0.19386052239E+02 -0.13994596369E+03  0.14162262418E+03  0.41800000000E+01 0. -1.
        -11    1    4    4    0    0  0.26876230479E+02 -0.68472874897E+02  0.18155040053E+02  0.75765901570E+02  0.00000000000E+00 0. -1.
         11    1    4    4    0    0  0.56974823169E+02 -0.20129139755E+02 -0.56221568450E+02  0.82535916433E+02  0.00000000000E+00 0.  1.
</event>
<event>
 8    1  0.6689467E-009  0.1388470E+03  0.7561462E-02  0.1214889E+00
         -1   -1    0    0    0  501 -0.00000000000E+00  0.00000000000E+00  0.75207170976E+02  0.75207170976E+02  0.00000000000E+00 0.  1.
          1   -1    0    0  501    0  0.00000000000E+00 -0.00000000000E+00 -0.35766903962E+03  0.35766903962E+03  0.00000000000E+00 0. -1.
         25    2    1    2    0    0 -0.90184849719E+02 -0.55416578982E+02 -0.23271238119E+03  0.28461684256E+03  0.12508952939E+03 0.  0.
         23    2    1    2    0    0  0.90184849719E+02  0.55416578982E+02 -0.49749487454E+02  0.14825936804E+03  0.91112701442E+02 0.  0.
          5    1    3    3  502    0 -0.70584272822E+02  0.29491854300E+02 -0.10713544072E+03  0.13170946852E+03  0.41800000000E+01 0.  1.
         -5    1    3    3    0  502 -0.19600576897E+02 -0.84908433282E+02 -0.12557694047E+03  0.15290737404E+03  0.41800000000E+01 0.  1.
        -11    1    4    4    0    0  0.75384368480E+02  0.24000759041E+02  0.93994481588E+01  0.79669247966E+02  0.00000000000E+00 0.  1.
         11    1    4    4    0    0  0.14800481239E+02  0.31415819941E+02 -0.59148935612E+02  0.68590120073E+02  0.00000000000E+00 0. -1.
</event>
<event>
 8    1  0.6689467E-009  0.2489670E+03  0.7561462E-02  0.1113959E+00
          1   -1    0    0  501    0  0.00000000000E+00  0.00000000000E+00  0.25886404090E+03  0.25886404090E+03  0.00000000000E+00 0. -1.
         -1   -1    0    0    0  501 -0.00000000000E+00 -0.00000000000E+00 -0.27458835667E+03  0.27458835667E+03  0.00000000000E+00 0.  1.
         25    2    1    2    0    0  0.15776624454E+03  0.16504293001E+03  0.76126127979E+02  0.27124210667E+03  0.12509091256E+03 0.  0.
         23    2    1    2    0    0 -0.15776624454E+03 -0.16504293001E+03 -0.91850443746E+02  0.26221029091E+03  0.90489645706E+02 0.  0.
          5    1    3    3  502    0 -0.18398234074E+02  0.10230635401E+02  0.21555114683E+02  0.30418025688E+02  0.41800000000E+01 0. -1.
         -5    1    3    3    0  502  0.17616447861E+03  0.15481229461E+03  0.54571013295E+02  0.24082408098E+03  0.41800000000E+01 0. -1.
        -11    1    4    4    0    0 -0.62134288359E+02 -0.12226686802E+03 -0.29462713833E+02  0.14027796802E+03  0.00000000000E+00 0.  1.
         11    1    4    4    0    0 -0.95631956179E+02 -0.42776061995E+02 -0.62387729913E+02  0.12193232289E+03  0.00000000000E+00 0. -1.
</event>
<event>
 8    1  0.6689467E-009  0.6928523E+02  0.7561462E-02  0.1362541E+00
         -3   -1    0    0    0  501 -0.00000000000E+00  0.00000000000E+00  0.11193211235E+03  0.11193211235E+03  0.00000000000E+00 0.  1.
          3   -1    0    0  501    0  0.00000000000E+00 -0.00000000000E+00 -0.11444541052E+03  0.11444541052E+03  0.00000000000E+00 0. -1.
         25    2    1    2    0    0 -0.10066624412E+02 -0.10793110753E+02 -0.37425845546E+02  0.13140074012E+03  0.12509049694E+03 0.  0.
         23    2    1    2    0    0  0.10066624412E+02  0.10793110753E+02  0.34912547372E+02  0.94976782749E+02  0.87085447295E+02 0.  0.
          5    1    3    3  502    0 -0.35087699778E+02  0.17657043178E+02 -0.70579930948E+02  0.80882117320E+02  0.41800000000E+01 0.  1.
         -5    1    3    3    0  502  0.25021075366E+02 -0.28450153931E+02  0.33154085402E+02  0.50518622804E+02  0.41800000000E+01 0.  1.
        -11    1    4    4    0    0  0.18667405245E+02  0.32568397832E+02  0.53310157698E+02  0.65200808811E+02  0.00000000000E+00 0.  1.
         11    1    4    4    0    0 -0.86007808326E+01 -0.21775287079E+02 -0.18397610325E+02  0.29775973938E+02  0.00000000000E+00 0. -1.
</event>
<event>
 8    1  0.6689467E-009  0.1705391E+03  0.7561462E-02  0.1177287E+00
          1   -1    0    0  501    0  0.00000000000E+00  0.00000000000E+00  0.18164788702E+04  0.18164788702E+04  0.00000000000E+00 0. -1.
         -1   -1    0    0    0  501 -0.00000000000E+00 -0.00000000000E+00 -0.55847503910E+02  0.55847503910E+02  0.00000000000E+00 0.  1.
         25    2    1    2    0    0  0.15313956812E+02  0.15317217518E+03  0.16479369663E+04  0.16598314174E+04  0.12509139429E+03 0.  0.
         23    2    1    2    0    0 -0.15313956812E+02 -0.15317217518E+03  0.11269440001E+03  0.21249495668E+03  0.93583365500E+02 0.  0.
          5    1    3    3  502    0  0.87524964988E+01  0.16104070367E+03  0.16344188218E+04  0.16423620404E+04  0.41800000000E+01 0. -1.
         -5    1    3    3    0  502  0.65614603135E+01 -0.78685284883E+01  0.13518144475E+02  0.17469376980E+02  0.41800000000E+01 0. -1.
        -11    1    4    4    0    0  0.22086202061E+02 -0.18189514413E+02  0.53014066598E+02  0.60242427021E+02  0.00000000000E+00 0.  1.
         11    1    4    4    0    0 -0.37400158873E+02 -0.13498266077E+03  0.59680333413E+02  0.15225252966E+03  0.00000000000E+00 0. -1.
</event>
<event>
 8    1  0.6689467E-009  0.1570197E+03  0.7561462E-02  0.1192103E+00
          1   -1    0    0  501    0  0.00000000000E+00  0.00000000000E+00  0.20541764479E+02  0.20541764479E+02  0.00000000000E+00 0. -1.
         -1   -1    0    0    0  501 -0.00000000000E+00 -0.00000000000E+00 -0.12987879192E+04  0.12987879192E+04  0.00000000000E+00 0.  1.
         25    2    1    2    0    0  0.29057642954E+02 -0.11255927178E+03 -0.82152324601E+03  0.83908350991E+03  0.12508699604E+03 0.  0.
         23    2    1    2    0    0 -0.29057642954E+02  0.11255927178E+03 -0.45672290873E+03  0.48024617380E+03  0.92339784527E+02 0.  0.
          5    1    3    3  502    0  0.10944075408E+02 -0.13832876672E+03 -0.65359045935E+03  0.66817107198E+03  0.41800000000E+01 0. -1.
         -5    1    3    3    0  502  0.18113567546E+02  0.25769494937E+02 -0.16793278667E+03  0.17091243792E+03  0.41800000000E+01 0. -1.
        -11    1    4    4    0    0 -0.58891700520E+02  0.79037431277E+02 -0.36587887199E+03  0.37892281127E+03  0.00000000000E+00 0.  1.
         11    1    4    4    0    0  0.29834057566E+02  0.33521840507E+02 -0.90844036746E+02  0.10132336253E+03  0.00000000000E+00 0. -1.
</event>
<event>
 8    1  0.6689467E-009  0.1142370E+03  0.7561462E-02  0.1252919E+00
          1   -1    0    0  501    0  0.00000000000E+00  0.00000000000E+00  0.38502546118E+03  0.38502546118E+03  0.00000000000E+00 0. -1.
         -1   -1    0    0    0  501 -0.00000000000E+00 -0.00000000000E+00 -0.45193612375E+02  0.45193612375E+02  0.00000000000E+00 0.  1.
         25    2    1    2    0    0  0.46482854570E+02 -0.29955217710E+02  0.29192408658E+03  0.32237350611E+03  0.12508810607E+03 0.  0.
         23    2    1    2    0    0 -0.46482854570E+02  0.29955217710E+02  0.47907762223E+02  0.10784556744E+03  0.79230940284E+02 0.  0.
          5    1    3    3  502    0 -0.40837382471E+02 -0.14831347317E+02  0.13769717589E+03  0.14444945593E+03  0.41800000000E+01 0. -1.
         -5    1    3    3    0  502  0.87320237041E+02 -0.15123870393E+02  0.15422691069E+03  0.17792405019E+03  0.41800000000E+01 0. -1.
        -11    1    4    4    0    0 -0.67896145530E+02  0.31064887003E+02  0.32446968010E+02  0.81410807117E+02  0.00000000000E+00 0. -1.
         11    1    4    4    0    0  0.21413290960E+02 -0.11096692930E+01  0.15460794213E+02  0.26434760323E+02  0.00000000000E+00 0.  1.
</event>
<event>
 8    1  0.6689467E-009  0.1523125E+03  0.7561462E-02  0.1197660E+00
         -2   -1    0    0    0  501 -0.00000000000E+00  0.00000000000E+00  0.22759144435E+02  0.22759144435E+02  0.00000000000E+00 0. -1.
          2   -1    0    0  501    0  0.00000000000E+00 -0.00000000000E+00 -0.11532306781E+04  0.11532306781E+04  0.00000000000E+00 0.  1.
         25    2    1    2    0    0 -0.88904444214E+02 -0.78912636758E+02 -0.66635974196E+03  0.68834279501E+03  0.12509713547E+03 0.  0.
         23    2    1    2    0    0  0.88904444214E+02  0.78912636758E+02 -0.46411179167E+03  0.48764702749E+03  0.90932193465E+02 0.  0.
          5    1    3    3  502    0 -0.90906386062E+02 -0.10552275861E+03 -0.47275211675E+03  0.49286008147E+03  0.41800000000E+01 0. -1.
         -5    1    3    3    0  502  0.20019418483E+01  0.26610121855E+02 -0.19360762520E+03  0.19548271354E+03  0.41800000000E+01 0. -1.
        -11    1    4    4    0    0  0.62185179579E+01  0.50437756768E+02 -0.27005925256E+03  0.27479926705E+03  0.00000000000E+00 0.  1.
         11    1    4    4    0    0  0.82685926256E+02  0.28474879990E+02 -0.19405253911E+03  0.21284776044E+03  0.00000000000E+00 0. -1.
</event>
<event>
 8    1  0.6689467E-009  0.1084354E+03  0.7561462E-02  0.1263495E+00
         -2   -1    0    0    0  501 -0.00000000000E+00  0.00000000000E+00  0.48328917300E+03  0.48328917300E+03  0.00000000000E+00 0.  1.
          2   -1    0    0  501    0  0.00000000000E+00 -0.00000000000E+00 -0.32106326688E+02  0.32106326688E+02  0.00000000000E+00 0. -1.
         25    2    1    2    0    0  0.48858586523E+02  0.35892613134E+02  0.22850330033E+03  0.26746557284E+03  0.12509449722E+03 0.  0.
         23    2    1    2    0    0 -0.48858586523E+02 -0.35892613134E+02  0.22267954598E+03  0.24792992686E+03  0.90595956181E+02 0.  0.
          5    1    3    3  502    0  0.66949479277E+02  0.65038825318E+02  0.20607687774E+03  0.22626849872E+03  0.41800000000E+01 0.  1.
         -5    1    3    3    0  502 -0.18090892754E+02 -0.29146212184E+02  0.22426422589E+02  0.41197074113E+02  0.41800000000E+01 0.  1.
        -11    1    4    4    0    0 -0.18596929733E+02  0.18755365673E+02  0.14904848049E+03  0.15137060175E+03  0.00000000000E+00 0.  1.
         11    1    4    4    0    0 -0.30261656790E+02 -0.54647978807E+02  0.73631065490E+02  0.96559325104E+02  0.00000000000E+00 0. -1.
</event>
<event>
 8    1  0.6689467E-009  0.9664062E+02  0.7561462E-02  0.1287523E+00
         -4   -1    0    0    0  501 -0.00000000000E+00  0.00000000000E+00  0.24505834715E+03  0.24505834715E+03  0.00000000000E+00 0. -1.
          4   -1    0    0  501    0  0.00000000000E+00 -0.00000000000E+00 -0.51082578785E+02  0.51082578785E+02  0.00000000000E+00 0.  1.
         25    2    1    2    0    0  0.76272652861E+01  0.29490625352E+02  0.93322528787E+02  0.15901235852E+03  0.12509182077E+03 0.  0.
         23    2    1    2    0    0 -0.76272652861E+01 -0.29490625352E+02  0.10065323958E+03  0.13712856741E+03  0.88007370165E+02 0.  0.
          5    1    3    3  502    0  0.59132007278E+02  0.67535646817E+01  0.82040034124E+02  0.10144084246E+03  0.41800000000E+01 0. -1.
         -5    1    3    3    0  502 -0.51504741992E+02  0.22737060670E+02  0.11282494663E+02  0.57571516059E+02  0.41800000000E+01 0. -1.
        -11    1    4    4    0    0  0.28549963026E+02 -0.29406265702E+02  0.14140901190E+02  0.43356590477E+02  0.00000000000E+00 0.  1.
         11    1    4    4    0    0 -0.36177228312E+02 -0.84359649231E-01  0.86512338385E+02  0.93771976932E+02  0.00000000000E+00 0. -1.
</event>
<event>
 8    1  0.6689467E-009  0.1185089E+03  0.7561462E-02  0.1245577E+00
          2   -1    0    0  501    0  0.00000000000E+00  0.00000000000E+00  0.98474853186E+03  0.98474853186E+03  0.00000000000E+00 0. -1.
         -2   -1    0    0    0  501 -0.00000000000E+00 -0.00000000000E+00 -0.23476359636E+02  0.23476359636E+02  0.00000000000E+00 0.  1.
         25    2    1    2    0    0  0.45963307804E+02  0.78763483466E+02  0.68851677184E+03  0.70570475587E+03  0.12509014895E+03 0.  0.
         23    2    1    2    0    0 -0.45963307804E+02 -0.78763483466E+02  0.27275540038E+03  0.30252013563E+03  0.93843550806E+02 0.  0.
          5    1    3    3  502    0  0.58744922515E+02  0.52945428090E+02  0.18362518709E+03  0.19997466342E+03  0.41800000000E+01 0.  1.
         -5    1    3    3    0  502 -0.12781614710E+02  0.25818055376E+02  0.50489158475E+03  0.50573009245E+03  0.41800000000E+01 0.  1.
        -11    1    4    4    0    0  0.16268427402E+02 -0.62232559007E+02  0.10906060012E+03  0.12661661672E+03  0.00000000000E+00 0.  1.
         11    1    4    4    0    0 -0.62231735206E+02 -0.16530924459E+02  0.16369480026E+03  0.17590351891E+03  0.00000000000E+00 0. -1.
</event>
<event>
 8    1  0.6689467E-009  0.1161513E+03  0.7561462E-02  0.1249585E+00
         -2   -1    0    0    0  501 -0.00000000000E+00  0.00000000000E+00  0.26440343862E+03  0.26440343862E+03  0.00000000000E+00 0.  1.
          2   -1    0    0  501    0  0.00000000000E+00 -0.00000000000E+00 -0.20996286634E+03  0.20996286634E+03  0.00000000000E+00 0. -1.
         25    2    1    2    0    0 -0.32612478346E+01  0.45266445724E+02 -0.17721828218E+03  0.22160554536E+03  0.12507202463E+03 0.  0.
         23    2    1    2    0    0  0.32612478346E+01 -0.45266445724E+02  0.23165885446E+03  0.25276075961E+03  0.90346499103E+02 0.  0.
          5    1    3    3  502    0  0.49277847443E+02  0.59139680859E+02 -0.11961316958E+03  0.14230457069E+03  0.41800000000E+01 0.  1.
         -5    1    3    3    0  502 -0.52539095277E+02 -0.13873235135E+02 -0.57605112602E+02  0.79300974670E+02  0.41800000000E+01 0.  1.
        -11    1    4    4    0    0  0.27316704613E+02  0.18208524915E+02  0.86303118996E+02  0.92336239250E+02  0.00000000000E+00 0.  1.
         11    1    4    4    0    0 -0.24055456779E+02 -0.63474970639E+02  0.14535573547E+03  0.16042452036E+03  0.00000000000E+00 0. -1.
</event>
<event>
 8    1  0.6689467E-009  0.1033747E+03  0.7561462E-02  0.1273355E+00
         -4   -1    0    0    0  501 -0.00000000000E+00  0.00000000000E+00  0.44400155524E+03  0.44400155524E+03  0.00000000000E+00 0.  1.
          4   -1    0    0  501    0  0.00000000000E+00 -0.00000000000E+00 -0.27643319848E+02  0.27643319848E+02  0.00000000000E+00 0. -1.
         25    2    1    2    0    0  0.13632922594E+02  0.14476163914E+02  0.21947315752E+03  0.25339905453E+03  0.12508876073E+03 0.  0.
         23    2    1    2    0    0 -0.13632922594E+02 -0.14476163914E+02  0.19688507787E+03  0.21824582056E+03  0.92043948229E+02 0.  0.
          5    1    3    3  502    0  0.56453254889E+02  0.35643898363E+02  0.17745313173E+03  0.18964320140E+03  0.41800000000E+01 0.  1.
         -5    1    3    3    0  502 -0.42820332295E+02 -0.21167734449E+02  0.42020025794E+02  0.63755853122E+02  0.41800000000E+01 0.  1.
        -11    1    4    4    0    0  0.29074284555E+02 -0.34178995116E+02  0.72469356769E+02  0.85236878170E+02  0.00000000000E+00 0.  1.
         11    1    4    4    0    0 -0.42707207149E+02  0.19702831202E+02  0.12441572110E+03  0.13300894239E+03  0.00000000000E+00 0. -1.
</event>
<event>
 8    1  0.6689467E-009  0.1229683E+03  0.7561462E-02  0.1238279E+00
          2   -1    0    0  501    0  0.00000000000E+00  0.00000000000E+00  0.81493978615E+03  0.81493978615E+03  0.00000000000E+00 0. -1.
         -2   -1    0    0    0  501 -0.00000000000E+00 -0.00000000000E+00 -0.19955230722E+02  0.19955230722E+02  0.00000000000E+00 0.  1.
         25    2    1    2    0    0  0.38596641533E+02 -0.54128065926E+02  0.45066343203E+03  0.47240279098E+03  0.12508924692E+03 0.  0.
         23    2    1    2    0    0 -0.38596641533E+02  0.54128065926E+02  0.34432112340E+03  0.36249222590E+03  0.91782512264E+02 0.  0.
          5    1    3    3  502    0 -0.36848144603E+01 -0.86608784714E+02  0.30986370464E+03  0.32178820255E+03  0.41800000000E+01 0. -1.
         -5    1    3    3    0  502  0.42281455994E+02  0.32480718788E+02  0.14079972739E+03  0.15061458843E+03  0.41800000000E+01 0. -1.
        -11    1    4    4    0    0 -0.44450425618E+02 -0.63548314680E+01  0.21455649297E+03  0.21920472827E+03  0.00000000000E+00 0.  1.
         11    1    4    4    0    0  0.58537840851E+01  0.60482897394E+02  0.12976463043E+03  0.14328749763E+03  0.00000000000E+00 0. -1.
</event>
<event>
 8    1  0.6689467E-009  0.1389399E+03  0.7561462E-02  0.1214763E+00
         -2   -1    0    0    0  501 -0.00000000000E+00  0.00000000000E+00  0.59475069699E+03  0.59475069699E+03  0.00000000000E+00 0. -1.
          2   -1    0    0  501    0  0.00000000000E+00 -0.00000000000E+00 -0.40877653288E+02  0.40877653288E+02  0.00000000000E+00 0.  1.
         25    2    1    2    0    0  0.10165273421E+03 -0.39075199860E+02  0.24703051582E+03  0.29754216558E+03  0.12508842845E+03 0.  0.
         23    2    1    2    0    0 -0.10165273421E+03  0.39075199860E+02  0.30684252788E+03  0.33808618470E+03  0.91048238607E+02 0.  0.
          5    1    3    3  502    0 -0.25242695058E+02 -0.24874355850E+02  0.34915973619E+02  0.49925192503E+02  0.41800000000E+01 0.  1.
         -5    1    3    3    0  502  0.12689542927E+03 -0.14200844010E+02  0.21211454220E+03  0.24761697307E+03  0.41800000000E+01 0.  1.
        -11    1    4    4    0    0 -0.57071130140E+02  0.31043676900E+01  0.25332478203E+03  0.25969250314E+03  0.00000000000E+00 0. -1.
         11    1    4    4    0    0 -0.44581604072E+02  0.35970832170E+02  0.53517745851E+02  0.78393681567E+02  0.00000000000E+00 0.  1.
</event>
<event>
 8    1  0.6689467E-009  0.1084518E+03  0.7561462E-02  0.1263464E+00
          2   -1    0    0  501    0  0.00000000000E+00  0.00000000000E+00  0.12282360587E+04  0.12282360587E+04  0.00000000000E+00 0. -1.
         -2   -1    0    0    0  501 -0.00000000000E+00 -0.00000000000E+00 -0.12122827214E+02  0.12122827214E+02  0.00000000000E+00 0.  1.
         25    2    1    2    0    0 -0.38224947697E+02  0.40681614324E+02  0.72178390591E+03  0.73466698382E+03  0.12508968751E+03 0.  0.
         23    2    1    2    0    0  0.38224947697E+02 -0.40681614324E+02  0.49432932562E+03  0.50569190213E+03  0.90811218171E+02 0.  0.
          5    1    3    3  502    0 -0.44567649729E+02 -0.20263574714E+02  0.11875957238E+03  0.12852313525E+03  0.41800000000E+01 0.  1.
         -5    1    3    3    0  502  0.63427020316E+01  0.60945189038E+02  0.60302433353E+03  0.60614384857E+03  0.41800000000E+01 0.  1.
        -11    1    4    4    0    0 -0.39550829308E+01  0.26626245075E+02  0.14061398881E+03  0.14316736170E+03  0.00000000000E+00 0. -1.
         11    1    4    4    0    0  0.42180030628E+02 -0.67307859399E+02  0.35371533681E+03  0.36252454043E+03  0.00000000000E+00 0.  1.
</event>
<event>
 8    1  0.6689467E-009  0.1041330E+03  0.7561462E-02  0.1271837E+00
         -2   -1    0    0    0  501 -0.00000000000E+00  0.00000000000E+00  0.88197050936E+01  0.88197050936E+01  0.00000000000E+00 0.  1.
          2   -1    0    0  501    0  0.00000000000E+00 -0.00000000000E+00 -0.13847204717E+04  0.13847204717E+04  0.00000000000E+00 0. -1.
         25    2    1    2    0    0 -0.85498439788E+01  0.10716703625E+02 -0.90877237706E+03  0.91744424507E+03  0.12509501167E+03 0.  0.
         23    2    1    2    0    0  0.85498439788E+01 -0.10716703625E+02 -0.46712838952E+03  0.47609593169E+03  0.90942049186E+02 0.  0.
          5    1    3    3  502    0 -0.59779546952E+02  0.23749562352E+02 -0.32922752248E+03  0.33547856848E+03  0.41800000000E+01 0. -1.
         -5    1    3    3    0  502  0.51229702973E+02 -0.13032858726E+02 -0.57954485457E+03  0.58196567660E+03  0.41800000000E+01 0. -1.
        -11    1    4    4    0    0  0.84505577087E+01  0.39585291971E+02 -0.17098072526E+03  0.17570661819E+03  0.00000000000E+00 0.  1.
         11    1    4    4    0    0  0.99286270111E-01 -0.50301995597E+02 -0.29614766425E+03  0.30038931349E+03  0.00000000000E+00 0. -1.
</event>
<event>
 8    1  0.6689467E-009  0.9827713E+02  0.7561462E-02  0.1283961E+00
          1   -1    0    0  501    0  0.00000000000E+00  0.00000000000E+00  0.22318724071E+03  0.22318724071E+03  0.00000000000E+00 0. -1.
         -1   -1    0    0    0  501 -0.00000000000E+00 -0.00000000000E+00 -0.63935176021E+02  0.63935176021E+02  0.00000000000E+00 0.  1.
         25    2    1    2    0    0  0.16004669505E+02 -0.36555127909E+02  0.12738002847E+03  0.18293627735E+03  0.12509029977E+03 0.  0.
         23    2    1    2    0    0 -0.16004669505E+02  0.36555127909E+02  0.31872036221E+02  0.10418613938E+03  0.90810231384E+02 0.  0.
          5    1    3    3  502    0 -0.26101280241E+02 -0.58476002147E+02  0.11806794028E+03  0.13438091598E+03  0.41800000000E+01 0. -1.
         -5    1    3    3    0  502  0.42105949746E+02  0.21920874239E+02  0.93120881885E+01  0.48555361371E+02  0.41800000000E+01 0. -1.
        -11    1    4    4    0    0  0.29470708021E+02  0.63870536805E+01  0.38839067556E+02  0.49171030644E+02  0.00000000000E+00 0. -1.
         11    1    4    4    0    0 -0.45475377526E+02  0.30168074228E+02 -0.69670313350E+01  0.55015108738E+02  0.00000000000E+00 0.  1.
</event>
<event>
 8    1  0.6689467E-009  0.1059894E+03  0.7561462E-02  0.1268182E+00
         -1   -1    0    0    0  501 -0.00000000000E+00  0.00000000000E+00  0.28936407385E+03  0.28936407385E+03  0.00000000000E+00 0.  1.
          1   -1    0    0  501    0  0.00000000000E+00 -0.00000000000E+00 -0.65705263270E+02  0.65705263270E+02  0.00000000000E+00 0. -1.
         25    2    1    2    0    0  0.40856376183E+02 -0.68720066291E+02  0.62543915831E+02  0.16109743977E+03  0.12509577413E+03 0.  0.
         23    2    1    2    0    0 -0.40856376183E+02  0.68720066291E+02  0.16111489475E+03  0.19397189735E+03  0.72631925947E+02 0.  0.
          5    1    3    3  502    0  0.64339039693E+02 -0.19807604121E+02 -0.12300205087E+02  0.68561072445E+02  0.41800000000E+01 0.  1.
         -5    1    3    3    0  502 -0.23482663510E+02 -0.48912462170E+02  0.74844120918E+02  0.92536367321E+02  0.41800000000E+01 0.  1.
        -11    1    4    4    0    0 -0.48263322550E+02  0.47835226473E+02  0.15748134471E+03  0.17151656225E+03  0.00000000000E+00 0.  1.
         11    1    4    4    0    0  0.74069463666E+01  0.20884839819E+02  0.36335500432E+01  0.22455335104E+02  0.00000000000E+00 0. -1.
</event>
<event>
 8    1  0.6689467E-009  0.1078888E+03  0.7561462E-02  0.1264530E+00
          1   -1    0    0  501    0  0.00000000000E+00  0.00000000000E+00  0.14189224784E+03  0.14189224784E+03  0.00000000000E+00 0. -1.
         -1   -1    0    0    0  501 -0.00000000000E+00 -0.00000000000E+00 -0.10676053361E+03  0.10676053361E+03  0.00000000000E+00 0.  1.
         25    2    1    2    0    0  0.29673875954E+02 -0.20697109749E+02 -0.25858922051E+02  0.13276074263E+03  0.12509125336E+03 0.  0.
         23    2    1    2    0    0 -0.29673875954E+02  0.20697109749E+02  0.60990636280E+02  0.11589203882E+03  0.91663502456E+02 0.  0.
          5    1    3    3  502    0 -0.46454712629E+02 -0.22218213159E+02  0.16555185143E+01  0.51690448469E+02  0.41800000000E+01 0. -1.
         -5    1    3    3    0  502  0.76128588582E+02  0.15211034105E+01 -0.27514440565E+02  0.81070294157E+02  0.41800000000E+01 0. -1.
        -11    1    4    4    0    0 -0.47781199675E+02 -0.13072551865E+02  0.75131840505E+01  0.50103718317E+02  0.00000000000E+00 0.  1.
         11    1    4    4    0    0  0.18107323721E+02  0.33769661614E+02  0.53477452230E+02  0.65788320505E+02  0.00000000000E+00 0. -1.
</event>
<event>
 8    1  0.6689467E-009  0.1582028E+03  0.7561462E-02  0.1190741E+00
         -2   -1    0    0    0  501 -0.00000000000E+00  0.00000000000E+00  0.49411143807E+02  0.49411143807E+02  0.00000000000E+00 0.  1.
          2   -1    0    0  501    0  0.00000000000E+00 -0.00000000000E+00 -0.74649013857E+03  0.74649013857E+03  0.00000000000E+00 0. -1.
         25    2    1    2    0    0  0.10752820651E+03  0.92415809109E+02 -0.49379501784E+03  0.52875698193E+03  0.12508968511E+03 0.  0.
         23    2    1    2    0    0 -0.10752820651E+03 -0.92415809109E+02 -0.20328397692E+03  0.26714430044E+03  0.99693054020E+02 0.  0.
          5    1    3    3  502    0  0.10694837108E+03  0.71425586329E+02 -0.22565678397E+03  0.25976532681E+03  0.41800000000E+01 0.  1.
         -5    1    3    3    0  502  0.57983543642E+00  0.20990222780E+02 -0.26813823387E+03  0.26899165512E+03  0.41800000000E+01 0.  1.
        -11    1    4    4    0    0 -0.22328241115E+01 -0.54290093954E+02 -0.33753544049E+02  0.63966409474E+02  0.00000000000E+00 0.  1.
         11    1    4    4    0    0 -0.10529538240E+03 -0.38125715155E+02 -0.16953043287E+03  0.20317789097E+03  0.00000000000E+00 0. -1.
</event>
<event>
 8    1  0.6689467E-009  0.1679234E+03  0.7561462E-02  0.1180031E+00
         -1   -1    0    0    0  501 -0.00000000000E+00  0.00000000000E+00  0.14650896920E+03  0.14650896920E+03  0.00000000000E+00 0.  1.
          1   -1    0    0  501    0  0.00000000000E+00 -0.00000000000E+00 -0.30986509124E+03  0.30986509124E+03  0.00000000000E+00 0. -1.
         25    2    1    2    0    0 -0.13545992323E+03  0.75808631333E+02 -0.18993267105E+03  0.27535122094E+03  0.12509011133E+03 0.  0.
         23    2    1    2    0    0  0.13545992323E+03 -0.75808631333E+02  0.26576549006E+02  0.18102283951E+03  0.89255902214E+02 0.  0.
          5    1    3    3  502    0 -0.94299085722E+02  0.34644595017E+02 -0.29734585367E+02  0.10485315207E+03  0.41800000000E+01 0.  1.
         -5    1    3    3    0  502 -0.41160837508E+02  0.41164036315E+02 -0.16019808569E+03  0.17049806887E+03  0.41800000000E+01 0.  1.
        -11    1    4    4    0    0  0.14268217258E+03 -0.51686058803E+02  0.12734733918E+02  0.15228862234E+03  0.00000000000E+00 0.  1.
         11    1    4    4    0    0 -0.72222493507E+01 -0.24122572529E+02  0.13841815088E+02  0.28734217164E+02  0.00000000000E+00 0. -1.
</event>
<event>
 8    1  0.6689467E-009  0.6825415E+02  0.7561462E-02  0.1366133E+00
         -2   -1    0    0    0  501 -0.00000000000E+00  0.00000000000E+00  0.37210491123E+03  0.37210491123E+03  0.00000000000E+00 0. -1.
          2   -1    0    0  501    0  0.00000000000E+00 -0.00000000000E+00 -0.33638838004E+02  0.33638838004E+02  0.00000000000E+00 0.  1.
         25    2    1    2    0    0  0.23574871549E+02  0.17041410242E+02  0.15261419619E+03  0.19946092831E+03  0.12508950720E+03 0.  0.
         23    2    1    2    0    0 -0.23574871549E+02 -0.17041410242E+02  0.18585187703E+03  0.20628282092E+03  0.84649263317E+02 0.  0.
          5    1    3    3  502    0 -0.69340724908E+00  0.30517145955E+02 -0.11557675024E+02  0.32906371158E+02  0.41800000000E+01 0.  1.
         -5    1    3    3    0  502  0.24268278798E+02 -0.13475735713E+02  0.16417187121E+03  0.16655455715E+03  0.41800000000E+01 0.  1.
        -11    1    4    4    0    0 -0.20530423916E+02 -0.45021436041E+02  0.16200595603E+03  0.16939409021E+03  0.00000000000E+00 0. -1.
         11    1    4    4    0    0 -0.30444476330E+01  0.27980025798E+02  0.23845921000E+02  0.36888730710E+02  0.00000000000E+00 0.  1.
</event>
<event>
 8    1  0.6689467E-009  0.8266664E+02  0.7561462E-02  0.1321650E+00
         -2   -1    0    0    0  501 -0.00000000000E+00  0.00000000000E+00  0.38650940255E+02  0.38650940255E+02  0.00000000000E+00 0.  1.
          2   -1    0    0  501    0  0.00000000000E+00 -0.00000000000E+00 -0.39318352182E+03  0.39318352182E+03  0.00000000000E+00 0. -1.
         25    2    1    2    0    0 -0.33588973010E+02  0.45961942527E+02 -0.21411660658E+03  0.25442892277E+03  0.12508971285E+03 0.  0.
         23    2    1    2    0    0  0.33588973010E+02 -0.45961942527E+02 -0.14041597499E+03  0.17740553931E+03  0.92278708678E+02 0.  0.
          5    1    3    3  502    0 -0.50848556208E+02  0.43691859135E+02 -0.22408612703E+03  0.23393721155E+03  0.41800000000E+01 0.  1.
         -5    1    3    3    0  502  0.17259583199E+02  0.22700833920E+01  0.99695204467E+01  0.20491711220E+02  0.41800000000E+01 0.  1.
        -11    1    4    4    0    0  0.22575933472E+02  0.89261988660E+01 -0.11204503282E+03  0.11464483930E+03  0.00000000000E+00 0. -1.
         11    1    4    4    0    0  0.11013039538E+02 -0.54888141393E+02 -0.28370942166E+02  0.62760700003E+02  0.00000000000E+00 0.  1.
</event>
<event>
 7    1  0.6689467E-009  0.1053867E+03  0.7561462E-02  0.1269360E+00
         -2   -1    0    0    0  501 -0.00000000000E+00  0.00000000000E+00  0.12426855302E+03  0.12426855302E+03  0.00000000000E+00 0.  1.
          2   -1    0    0  501    0  0.00000000000E+00 -0.00000000000E+00 -0.19764919977E+03  0.19764919977E+03  0.00000000000E+00 0. -1.
         23    2    1    2    0    0  0.43367820342E+02 -0.54869030558E+02  0.57645449651E+02  0.12764620180E+03  0.89884240069E+02 0.  0.
          5    1    1    2  502    0 -0.81874836376E+02  0.11817121403E+02 -0.95135703550E+02  0.12614042841E+03  0.41800000000E+01 0. -1.
         -5    1    1    2    0  502  0.38507016034E+02  0.43051909155E+02 -0.35890392852E+02  0.68131122586E+02  0.41800000000E+01 0. -1.
        -11    1    3    3    0    0  0.29607208384E+02 -0.34657201846E+02  0.81567055831E+02  0.93439247776E+02  0.00000000000E+00 0. -1.
         11    1    3    3    0    0  0.13760611958E+02 -0.20211828712E+02 -0.23921606180E+02  0.34206954023E+02  0.00000000000E+00 0.  1.
</event>
<event>
 8    1  0.6689467E-009  0.1500382E+03  0.7561462E-02  0.1200426E+00
          1   -1    0    0  501    0  0.00000000000E+00  0.00000000000E+00  0.25988920428E+03  0.25988920428E+03  0.00000000000E+00 0. -1.
         -1   -1    0    0    0  501 -0.00000000000E+00 -0.00000000000E+00 -0.23881882635E+03  0.23881882635E+03  0.00000000000E+00 0.  1.
         25    2    1    2    0    0  0.11727672050E+03  0.63245901995E+02  0.19357833772E+03  0.26622033415E+03  0.12508725030E+03 0.  0.
         23    2    1    2    0    0 -0.11727672050E+03 -0.63245901995E+02 -0.17250795979E+03  0.23248769649E+03  0.80855794698E+02 0.  0.
          5    1    3    3  502    0  0.12487692902E+02  0.38790183154E+02 -0.40431401934E+01  0.41163578146E+02  0.41800000000E+01 0. -1.
         -5    1    3    3    0  502  0.10478902759E+03  0.24455718841E+02  0.19762147792E+03  0.22505675600E+03  0.41800000000E+01 0. -1.
        -11    1    4    4    0    0 -0.67212069929E+02  0.42994477263E+01 -0.10462388341E+03  0.12442710547E+03  0.00000000000E+00 0.  1.
         11    1    4    4    0    0 -0.50064650568E+02 -0.67545349721E+02 -0.67884076385E+02  0.10806059102E+03  0.00000000000E+00 0. -1.
</event>
<event>
 8    1  0.6689467E-009  0.1499813E+03  0.7561462E-02  0.1200496E+00
          1   -1    0    0  501    0  0.00000000000E+00  0.00000000000E+00  0.87149133958E+02  0.87149133958E+02  0.00000000000E+00 0. -1.
         -1   -1    0    0    0  501 -0.00000000000E+00 -0.00000000000E+00 -0.37243201708E+03  0.37243201708E+03  0.00000000000E+00 0.  1.
         25    2    1    2    0    0  0.10733467052E+03  0.22590307954E+02 -0.26938247135E+03  0.31661729329E+03  0.12509412868E+03 0.  0.
         23    2    1    2    0    0 -0.10733467052E+03 -0.22590307954E+02 -0.15900411778E+02  0.14296385775E+03  0.90303864924E+02 0.  0.
          5    1    3    3  502    0  0.18769116211E+02 -0.45084373450E+02 -0.12429791866E+03  0.13361259460E+03  0.41800000000E+01 0.  1.
         -5    1    3    3    0  502  0.88565554307E+02  0.67674681404E+02 -0.14508455269E+03  0.18300469869E+03  0.41800000000E+01 0.  1.
        -11    1    4    4    0    0 -0.10652148422E+03  0.98337884057E+01 -0.23781071714E+02  0.10958589949E+03  0.00000000000E+00 0.  1.
         11    1    4    4    0    0 -0.81318629466E+00 -0.32424096359E+02  0.78806599356E+01  0.33377958261E+02  0.00000000000E+00 0. -1.
</event>
<event>
 8    1  0.6689467E-009  0.1228001E+03  0.7561462E-02  0.1238548E+00
         -3   -1    0    0    0  501 -0.00000000000E+00  0.00000000000E+00  0.23992807652E+03  0.23992807652E+03  0.00000000000E+00 0.  1.
          3   -1    0    0  501    0  0.00000000000E+00 -0.00000000000E+00 -0.10282628070E+03  0.10282628070E+03  0.00000000000E+00 0. -1.
         25    2    1    2    0    0 -0.90120985916E+02 -0.48743363427E+02  0.13202526695E+03  0.20874793484E+03  0.12508925455E+03 0.  0.
         23    2    1    2    0    0  0.90120985916E+02  0.48743363427E+02  0.50765288739E+01  0.13400642238E+03  0.86222053526E+02 0.  0.
          5    1    3    3  502    0 -0.10227701377E+03 -0.19212138716E+02  0.40544811775E+02  0.11176335707E+03  0.41800000000E+01 0. -1.
         -5    1    3    3    0  502  0.12156027859E+02 -0.29531224711E+02  0.91480455177E+02  0.96984577772E+02  0.41800000000E+01 0. -1.
        -11    1    4    4    0    0  0.77954888253E+02  0.55152145898E+02  0.34496150074E+02  0.10153180866E+03  0.00000000000E+00 0.  1.
         11    1    4    4    0    0  0.12166097664E+02 -0.64087824709E+01 -0.29419621200E+02  0.32474613726E+02  0.00000000000E+00 0. -1.
</event>
<event>
 8    1  0.6689467E-009  0.1236133E+03  0.7561462E-02  0.1237253E+00
         -2   -1    0    0    0  501 -0.00000000000E+00  0.00000000000E+00  0.93977180323E+02  0.93977180323E+02  0.00000000000E+00 0.  1.
          2   -1    0    0  501    0  0.00000000000E+00 -0.00000000000E+00 -0.25633679887E+03  0.25633679887E+03  0.00000000000E+00 0. -1.
         25    2    1    2    0    0  0.22082026479E+02  0.10476298736E+03 -0.11876931467E+03  0.20301790976E+03  0.12508885706E+03 0.  0.
         23    2    1    2    0    0 -0.22082026479E+02 -0.10476298736E+03 -0.43590303876E+02  0.14729606943E+03  0.91285913828E+02 0.  0.
          5    1    3    3  502    0  0.10688473854E+02  0.70670631246E+02  0.71962840344E+01  0.71957212967E+02  0.41800000000E+01 0.  1.
         -5    1    3    3    0  502  0.11393552624E+02  0.34092356116E+02 -0.12596559870E+03  0.13106069679E+03  0.41800000000E+01 0.  1.
        -11    1    4    4    0    0  0.34962410527E+02 -0.38429846863E+02 -0.25841221485E+02  0.58025787436E+02  0.00000000000E+00 0.  1.
         11    1    4    4    0    0 -0.57044437005E+02 -0.66333140500E+02 -0.17749082391E+02  0.89270281996E+02  0.00000000000E+00 0. -1.
</event>
<event>
 8    1  0.6689467E-009  0.8627194E+02  0.7561462E-02  0.1312139E+00
         -2   -1    0    0    0  501 -0.00000000000E+00  0.00000000000E+00  0.65650555648E+02  0.65650555648E+02  0.00000000000E+00 0. -1.
          2   -1    0    0  501    0  0.00000000000E+00 -0.00000000000E+00 -0.34264056229E+03  0.34264056229E+03  0.00000000000E+00 0.  1.
         25    2    1    2    0    0  0.37748048812E+02  0.57686860462E+01 -0.27704727967E+03  0.30636730002E+03  0.12509010519E+03 0.  0.
         23    2    1    2    0    0 -0.37748048812E+02 -0.57686860462E+01  0.57273030030E-01  0.10192381792E+03  0.94500097630E+02 0.  0.
          5    1    3    3  502    0  0.80957032104E+02  0.91135935459E+01 -0.13436104574E+03  0.15718607332E+03  0.41800000000E+01 0. -1.
         -5    1    3    3    0  502 -0.43208983292E+02 -0.33449074997E+01 -0.14268623394E+03  0.14918122670E+03  0.41800000000E+01 0. -1.
        -11    1    4    4    0    0 -0.28457951063E+02  0.91165586750E+01  0.44806724139E+02  0.53857303580E+02  0.00000000000E+00 0. -1.
         11    1    4    4    0    0 -0.92900977485E+01 -0.14885244721E+02 -0.44749451109E+02  0.48066514343E+02  0.00000000000E+00 0.  1.
</event>
<event>
 8    1  0.6689467E-009  0.1182855E+03  0.7561462E-02  0.1245953E+00
         -2   -1    0    0    0  501 -0.00000000000E+00  0.00000000000E+00  0.42834982887E+02  0.42834982887E+02  0.00000000000E+00 0.  1.
          2   -1    0    0  501    0  0.00000000000E+00 -0.00000000000E+00 -0.56067099750E+03  0.56067099750E+03  0.00000000000E+00 0. -1.
         25    2    1    2    0    0  0.94948508542E+02  0.53043021124E+02 -0.32062514753E+03  0.36093755286E+03  0.12508657190E+03 0.  0.
         23    2    1    2    0    0 -0.94948508542E+02 -0.53043021124E+02 -0.19721086709E+03  0.24256842753E+03  0.90102911017E+02 0.  0.
          5    1    3    3  502    0  0.13136217006E+02  0.41975359050E+02 -0.24483292323E+03  0.24878730607E+03  0.41800000000E+01 0.  1.
         -5    1    3    3    0  502  0.81812291536E+02  0.11067662074E+02 -0.75792224298E+02  0.11215024679E+03  0.41800000000E+01 0.  1.
        -11    1    4    4    0    0 -0.52364091163E+02 -0.20933901176E+02 -0.17660960280E+03  0.18539465490E+03  0.00000000000E+00 0. -1.
         11    1    4    4    0    0 -0.42584417379E+02 -0.32109119948E+02 -0.20601264285E+02  0.57173772637E+02  0.00000000000E+00 0.  1.
</event>
<event>
 8    1  0.6689467E-009  0.1280723E+03  0.7561462E-02  0.1230344E+00
         -2   -1    0    0    0  501 -0.00000000000E+00  0.00000000000E+00  0.33818645551E+02  0.33818645551E+02  0.00000000000E+00 0.  1.
          2   -1    0    0  501    0  0.00000000000E+00 -0.00000000000E+00 -0.58972593207E+03  0.58972593207E+03  0.00000000000E+00 0. -1.
         25    2    1    2    0    0 -0.69199613527E+02  0.54688308726E+02 -0.25728964354E+03  0.29937504501E+03  0.12509220311E+03 0.  0.
         23    2    1    2    0    0  0.69199613527E+02 -0.54688308726E+02 -0.29861764298E+03  0.32416953261E+03  0.90188644250E+02 0.  0.
          5    1    3    3  502    0 -0.38022767575E+02 -0.36784866471E+02 -0.63274506436E+02  0.82583247817E+02  0.41800000000E+01 0. -1.
         -5    1    3    3    0  502 -0.31176845952E+02  0.91473175197E+02 -0.19401513710E+03  0.21679179719E+03  0.41800000000E+01 0. -1.
        -11    1    4    4    0    0 -0.68980118796E+00 -0.33227672698E+02 -0.19223506548E+03  0.19508683826E+03  0.00000000000E+00 0. -1.
         11    1    4    4    0    0  0.69889414715E+02 -0.21460636028E+02 -0.10638257750E+03  0.12908269436E+03  0.00000000000E+00 0.  1.
</event>
<event>
 8    1  0.6689467E-009  0.1741929E+03  0.7561462E-02  0.1173544E+00
         -2   -1    0    0    0  501 -0.00000000000E+00  0.00000000000E+00  0.54550628583E+02  0.54550628583E+02  0.00000000000E+00 0.  1.
          2   -1    0    0  501    0  0.00000000000E+00 -0.00000000000E+00 -0.61965974052E+03  0.61965974052E+03  0.00000000000E+00 0. -1.
         25    2    1    2    0    0  0.72643720427E+02 -0.11772974369E+03 -0.39662601436E+03  0.43828823257E+03  0.12508787662E+03 0.  0.
         23    2    1    2    0    0 -0.72643720427E+02  0.11772974369E+03 -0.16848309757E+03  0.23592213653E+03  0.90195884995E+02 0.  0.
          5    1    3    3  502    0 -0.33403900382E+02 -0.15324498965E+02 -0.56086188095E+02  0.67184773010E+02  0.41800000000E+01 0.  1.
         -5    1    3    3    0  502  0.10604762081E+03 -0.10240524472E+03 -0.34053982627E+03  0.37110345956E+03  0.41800000000E+01 0.  1.
        -11    1    4    4    0    0 -0.75729203873E+02  0.39100590071E+02 -0.10189381694E+03  0.13283869314E+03  0.00000000000E+00 0. -1.
         11    1    4    4    0    0  0.30854834458E+01  0.78629153617E+02 -0.66589280630E+02  0.10308344339E+03  0.00000000000E+00 0.  1.
</event>
<event>
 8    1  0.6689467E-009  0.8673761E+02  0.7561462E-02  0.1310950E+00
         -2   -1    0    0    0  501 -0.00000000000E+00  0.00000000000E+00  0.20279392983E+02  0.20279392983E+02  0.00000000000E+00 0.  1.
          2   -1    0    0  501    0  0.00000000000E+00 -0.00000000000E+00 -0.59953847565E+03  0.59953847565E+03  0.00000000000E+00 0. -1.
         25    2    1    2    0    0 -0.11568581976E+02  0.11685592665E+02 -0.27256557106E+03  0.30034908499E+03  0.12508875715E+03 0.  0.
         23    2    1    2    0    0  0.11568581976E+02 -0.11685592665E+02 -0.30669351162E+03  0.31946878364E+03  0.87914779708E+02 0.  0.
          5    1    3    3  502    0 -0.67253455633E+01  0.47505201342E+02 -0.33826361474E+02  0.58852948592E+02  0.41800000000E+01 0. -1.
         -5    1    3    3    0  502 -0.48432364125E+01 -0.35819608677E+02 -0.23873920958E+03  0.24149613640E+03  0.41800000000E+01 0. -1.
        -11    1    4    4    0    0 -0.34502319215E+02  0.12744274090E+02 -0.11035077555E+03  0.11631904494E+03  0.00000000000E+00 0.  1.
         11    1    4    4    0    0  0.46070901191E+02 -0.24429866755E+02 -0.19634273607E+03  0.20314973870E+03  0.00000000000E+00 0. -1.
</event>
<event>
 8    1  0.6689467E-009  0.2562840E+03  0.7561462E-02  0.1109397E+00
          1   -1    0    0  501    0  0.00000000000E+00  0.00000000000E+00  0.11461595352E+04  0.11461595352E+04  0.00000000000E+00 0. -1.
         -1   -1    0    0    0  501 -0.00000000000E+00 -0.00000000000E+00 -0.10654988105E+03  0.10654988105E+03  0.00000000000E+00 0.  1.
         25    2    1    2    0    0  0.24096847411E+03 -0.68148116837E+01  0.93660246121E+03  0.97518393717E+03  0.12508914339E+03 0.  0.
         23    2    1    2    0    0 -0.24096847411E+03  0.68148116837E+01  0.10300719290E+03  0.27752547905E+03  0.91091506513E+02 0.  0.
          5    1    3    3  502    0  0.79905760307E+02  0.55460934337E+02  0.28993277434E+03  0.30584200465E+03  0.41800000000E+01 0.  1.
         -5    1    3    3    0  502  0.16106271381E+03 -0.62275746021E+02  0.64666968687E+03  0.66934193253E+03  0.41800000000E+01 0.  1.
        -11    1    4    4    0    0 -0.18516687515E+03  0.16271084532E+02  0.35169118601E+02  0.18917818782E+03  0.00000000000E+00 0.  1.
         11    1    4    4    0    0 -0.55801598967E+02 -0.94562728483E+01  0.67838074300E+02  0.88347291232E+02  0.00000000000E+00 0. -1.
</event>
<event>
 8    1  0.6689467E-009  0.1155086E+03  0.7561462E-02  0.1250696E+00
         -4   -1    0    0    0  501 -0.00000000000E+00  0.00000000000E+00  0.80103554135E+02  0.80103554135E+02  0.00000000000E+00 0.  1.
          4   -1    0    0  501    0  0.00000000000E+00 -0.00000000000E+00 -0.25006454588E+03  0.25006454588E+03  0.00000000000E+00 0. -1.
         25    2    1    2    0    0 -0.74439116751E+02 -0.45551393829E+02 -0.64521600566E+02  0.16557966408E+03  0.12504989658E+03 0.  0.
         23    2    1    2    0    0  0.74439116751E+02  0.45551393829E+02 -0.10543939118E+03  0.16458843594E+03  0.91409936278E+02 0.  0.
          5    1    3    3  502    0 -0.10458362439E+03 -0.27512966539E+02 -0.71245839844E+02  0.12956905461E+03  0.41800000000E+01 0. -1.
         -5    1    3    3    0  502  0.30144507641E+02 -0.18038427290E+02  0.67242392789E+01  0.36010609463E+02  0.41800000000E+01 0. -1.
        -11    1    4    4    0    0  0.23007895247E+02  0.11375027515E+02 -0.99264963583E+02  0.10252944694E+03  0.00000000000E+00 0. -1.
         11    1    4    4    0    0  0.51431221504E+02  0.34176366314E+02 -0.61744276005E+01  0.62058989002E+02  0.00000000000E+00 0.  1.
</event>
<event>
 8    1  0.6689467E-009  0.1264499E+03  0.7561462E-02  0.1232821E+00
          1   -1    0    0  501    0  0.00000000000E+00  0.00000000000E+00  0.48541593391E+03  0.48541593391E+03  0.00000000000E+00 0. -1.
         -1   -1    0    0    0  501 -0.00000000000E+00 -0.00000000000E+00 -0.54619585807E+02  0.54619585807E+02  0.00000000000E+00 0.  1.
         25    2    1    2    0    0 -0.77596499140E+02 -0.76115775806E+01  0.82448854779E+02  0.16889114919E+03  0.12508898364E+03 0.  0.
         23    2    1    2    0    0  0.77596499140E+02  0.76115775806E+01  0.34834749332E+03  0.37114437053E+03  0.10160223855E+03 0.  0.
          5    1    3    3  502    0  0.30475696627E+02  0.49703242631E+01  0.42956455745E+02  0.53067897060E+02  0.41800000000E+01 0.  1.
         -5    1    3    3    0  502 -0.10807219577E+03 -0.12581901844E+02  0.39492399034E+02  0.11582325213E+03  0.41800000000E+01 0.  1.
        -11    1    4    4    0    0  0.62328124957E+02  0.42049776263E+02  0.13525635475E+03  0.15474902373E+03  0.00000000000E+00 0.  1.
         11    1    4    4    0    0  0.15268374183E+02 -0.34438198682E+02  0.21309113857E+03  0.21639534680E+03  0.00000000000E+00 0. -1.
</event>
<event>
 8    1  0.6689467E-009  0.1071865E+03  0.7561462E-02  0.1265871E+00
         -2   -1    0    0    0  501 -0.00000000000E+00  0.00000000000E+00  0.41694392447E+02  0.41694392447E+02  0.00000000000E+00 0.  1.
          2   -1    0    0  501    0  0.00000000000E+00 -0.00000000000E+00 -0.36184946980E+03  0.36184946980E+03  0.00000000000E+00 0. -1.
         25    2    1    2    0    0 -0.60085423367E+01 -0.27177823343E+02 -0.26065845196E+03  0.29045610363E+03  0.12508870011E+03 0.  0.
         23    2    1    2    0    0  0.60085423367E+01  0.27177823343E+02 -0.59496625394E+02  0.11308775862E+03  0.92055722545E+02 0.  0.
          5    1    3    3  502    0 -0.19567053808E+02  0.43410686176E+02 -0.15795168300E+03  0.16502594897E+03  0.41800000000E+01 0.  1.
         -5    1    3    3    0  502  0.13558511471E+02 -0.70588509519E+02 -0.10270676896E+03  0.12543015466E+03  0.41800000000E+01 0.  1.
        -11    1    4    4    0    0  0.44149034364E+02 -0.53152571486E+01 -0.38283960223E+02  0.58677515321E+02  0.00000000000E+00 0.  1.
         11    1    4    4    0    0 -0.38140492028E+02  0.32493080492E+02 -0.21212665171E+02  0.54410243297E+02  0.00000000000E+00 0. -1.
</event>
<event>
 8    1  0.6689467E-009  0.1210697E+03  0.7561462E-02  0.1241343E+00
         -2   -1    0    0    0  501 -0.00000000000E+00  0.00000000000E+00  0.20430028417E+02  0.20430028417E+02  0.00000000000E+00 0.  1.
          2   -1    0    0  501    0  0.00000000000E+00 -0.00000000000E+00 -0.78917622437E+03  0.78917622437E+03  0.00000000000E+00 0. -1.
         25    2    1    2    0    0  0.63976723811E+02 -0.12086834185E+02 -0.46188091192E+03  0.48292901498E+03  0.12508934390E+03 0.  0.
         23    2    1    2    0    0 -0.63976723811E+02  0.12086834185E+02 -0.30686528404E+03  0.32667723781E+03  0.91173474263E+02 0.  0.
          5    1    3    3  502    0  0.99025915708E+02  0.90853740150E+01 -0.31129304126E+03  0.32681723630E+03  0.41800000000E+01 0.  1.
         -5    1    3    3    0  502 -0.35049191896E+02 -0.21172208200E+02 -0.15058787066E+03  0.15611177868E+03  0.41800000000E+01 0.  1.
        -11    1    4    4    0    0 -0.67665183118E+02 -0.18890952964E+02 -0.13690910068E+03  0.15388160046E+03  0.00000000000E+00 0.  1.
         11    1    4    4    0    0  0.36884593069E+01  0.30977787149E+02 -0.16995618335E+03  0.17279563735E+03  0.00000000000E+00 0. -1.
</event>
<event>
 8    1  0.6689467E-009  0.1785616E+03  0.7561462E-02  0.1169202E+00
          2   -1    0    0  501    0  0.00000000000E+00  0.00000000000E+00  0.36832235848E+03  0.36832235848E+03  0.00000000000E+00 0.  1.
         -2   -1    0    0    0  501 -0.00000000000E+00 -0.00000000000E+00 -0.98726788327E+02  0.98726788327E+02  0.00000000000E+00 0. -1.
         25    2    1    2    0    0 -0.98526808443E+02  0.12059189617E+03  0.12417602138E+03  0.23519503858E+03  0.12508830674E+03 0.  0.
         23    2    1    2    0    0  0.98526808443E+02 -0.12059189617E+03  0.14541954877E+03  0.23185410822E+03  0.91430547042E+02 0.  0.
          5    1    3    3  502    0 -0.46677656918E+02  0.12105308465E+01  0.88540088968E+02  0.10018527234E+03  0.41800000000E+01 0.  1.
         -5    1    3    3    0  502 -0.51849151525E+02  0.11938136532E+03  0.35635932415E+02  0.13500976624E+03  0.41800000000E+01 0.  1.
        -11    1    4    4    0    0  0.91710099127E+02 -0.13550592252E+03  0.13708596015E+03  0.21345996766E+03  0.00000000000E+00 0.  1.
         11    1    4    4    0    0  0.68167093157E+01  0.14914026354E+02  0.83335886139E+01  0.18394140566E+02  0.00000000000E+00 0. -1.
</event>
<event>
 8    1  0.6689467E-009  0.1520864E+03  0.7561462E-02  0.1197932E+00
         -1   -1    0    0    0  501 -0.00000000000E+00  0.00000000000E+00  0.29972896592E+03  0.29972896592E+03  0.00000000000E+00 0.  1.
          1   -1    0    0  501    0  0.00000000000E+00 -0.00000000000E+00 -0.10939470187E+03  0.10939470187E+03  0.00000000000E+00 0. -1.
         25    2    1    2    0    0  0.11894012733E+03  0.43559434887E+02  0.21972935738E+02  0.17937553267E+03  0.12509433864E+03 0.  0.
         23    2    1    2    0    0 -0.11894012733E+03 -0.43559434887E+02  0.16836132832E+03  0.22974813512E+03  0.91621451968E+02 0.  0.
          5    1    3    3  502    0  0.79324156294E+02 -0.11373918582E+02  0.61269829004E+02  0.10096114174E+03  0.41800000000E+01 0.  1.
         -5    1    3    3    0  502  0.39615971032E+02  0.54933353469E+02 -0.39296893266E+02  0.78414390927E+02  0.41800000000E+01 0.  1.
        -11    1    4    4    0    0  0.72013590304E+01 -0.28074032485E+02  0.26309654457E+02  0.39143438652E+02  0.00000000000E+00 0. -1.
         11    1    4    4    0    0 -0.12614148636E+03 -0.15485402402E+02  0.14205167386E+03  0.19060469646E+03  0.00000000000E+00 0.  1.
</event>
<event>
 8    1  0.6689467E-009  0.1364284E+03  0.7561462E-02  0.1218217E+00
          2   -1    0    0  501    0  0.00000000000E+00  0.00000000000E+00  0.19914898519E+02  0.19914898519E+02  0.00000000000E+00 0. -1.
         -2   -1    0    0    0  501 -0.00000000000E+00 -0.00000000000E+00 -0.12533461320E+04  0.12533461320E+04  0.00000000000E+00 0.  1.
         25    2    1    2    0    0 -0.10151205785E+03 -0.97541598836E+01 -0.87004849381E+03  0.88489038486E+03  0.12508705016E+03 0.  0.
         23    2    1    2    0    0  0.10151205785E+03  0.97541598836E+01 -0.36338273966E+03  0.38837064565E+03  0.91569107196E+02 0.  0.
          5    1    3    3  502    0 -0.81628933182E+02 -0.57854305996E+02 -0.69634866691E+03  0.70351214756E+03  0.41800000000E+01 0. -1.
         -5    1    3    3    0  502 -0.19883124664E+02  0.48100146112E+02 -0.17369982690E+03  0.18137823730E+03  0.41800000000E+01 0. -1.
        -11    1    4    4    0    0  0.41757175330E+02 -0.27580029761E+02 -0.66411586643E+02  0.83155388121E+02  0.00000000000E+00 0. -1.
         11    1    4    4    0    0  0.59754882516E+02  0.37334189645E+02 -0.29697115302E+03  0.30521525753E+03  0.00000000000E+00 0.  1.
</event>
<event>
 8    1  0.6689467E-009  0.7099341E+02  0.7561462E-02  0.1356747E+00
         -1   -1    0    0    0  501 -0.00000000000E+00  0.00000000000E+00  0.36166224687E+03  0.36166224687E+03  0.00000000000E+00 0.  1.
          1   -1    0    0  501    0  0.00000000000E+00 -0.00000000000E+00 -0.64984256195E+02  0.64984256195E+02  0.00000000000E+00 0. -1.
         25    2    1    2    0    0 -0.95071106818E+01  0.46627933579E+02  0.29529837229E+03  0.32421278811E+03  0.12509298125E+03 0.  0.
         23    2    1    2    0    0  0.95071106818E+01 -0.46627933579E+02  0.13796183873E+01  0.10243371495E+03  0.90698474456E+02 0.  0.
          5    1    3    3  502    0 -0.14794426100E+02 -0.20882302511E+02  0.22509245362E+03  0.22658117901E+03  0.41800000000E+01 0. -1.
         -5    1    3    3    0  502  0.52873154180E+01  0.67510236090E+02  0.70205918663E+02  0.97631609106E+02  0.41800000000E+01 0. -1.
        -11    1    4    4    0    0  0.64759964532E+01 -0.13817681482E+02  0.45143269799E+02  0.47652719333E+02  0.00000000000E+00 0.  1.
         11    1    4    4    0    0  0.30311142286E+01 -0.32810252097E+02 -0.43763651412E+02  0.54780995619E+02  0.00000000000E+00 0. -1.
</event>
<event>
 8    1  0.6689467E-009  0.1158899E+03  0.7561462E-02  0.1250036E+00
          4   -1    0    0  501    0  0.00000000000E+00  0.00000000000E+00  0.25288743518E+02  0.25288743518E+02  0.00000000000E+00 0.  1.
         -4   -1    0    0    0  501 -0.00000000000E+00 -0.00000000000E+00 -0.60463076723E+03  0.60463076723E+03  0.00000000000E+00 0. -1.
         25    2    1    2    0    0  0.17853895697E+02 -0.54154642582E+02 -0.35383618094E+03  0.37960299835E+03  0.12508759535E+03 0.  0.
         23    2    1    2    0    0 -0.17853895697E+02  0.54154642582E+02 -0.22550584277E+03  0.25031651240E+03  0.92487752431E+02 0.  0.
          5    1    3    3  502    0  0.64120004589E+02 -0.29288838782E+02 -0.28080460820E+03  0.28954777059E+03  0.41800000000E+01 0.  1.
         -5    1    3    3    0  502 -0.46266108891E+02 -0.24865803799E+02 -0.73031572735E+02  0.90055227759E+02  0.41800000000E+01 0.  1.
        -11    1    4    4    0    0  0.37262705614E+02  0.31828222568E+02 -0.10909373390E+03  0.11959509922E+03  0.00000000000E+00 0.  1.
         11    1    4    4    0    0 -0.55116601311E+02  0.22326420014E+02 -0.11641210888E+03  0.13072141318E+03  0.00000000000E+00 0. -1.
</event>
<event>
 8    1  0.6689467E-009  0.1348011E+03  0.7561462E-02  0.1220501E+00
         -2   -1    0    0    0  501 -0.00000000000E+00  0.00000000000E+00  0.63638940077E+02  0.63638940077E+02  0.00000000000E+00 0.  1.
          2   -1    0    0  501    0  0.00000000000E+00 -0.00000000000E+00 -0.33525313473E+03  0.33525313473E+03  0.00000000000E+00 0. -1.
         25    2    1    2    0    0  0.39028742843E+02  0.89462222619E+02 -0.14584119478E+03  0.21550569687E+03  0.12508524792E+03 0.  0.
         23    2    1    2    0    0 -0.39028742843E+02 -0.89462222619E+02 -0.12577299988E+03  0.18338637793E+03  0.91021887866E+02 0.  0.
          5    1    3    3  502    0  0.76370537810E+02  0.78778315922E+02 -0.70057033494E+02  0.13024570030E+03  0.41800000000E+01 0.  1.
         -5    1    3    3    0  502 -0.37341794967E+02  0.10683906697E+02 -0.75784161287E+02  0.85259996573E+02  0.41800000000E+01 0.  1.
        -11    1    4    4    0    0 -0.55182134945E+02 -0.38521483388E+02 -0.29933678563E+02  0.73654584459E+02  0.00000000000E+00 0.  1.
         11    1    4    4    0    0  0.16153392102E+02 -0.50940739232E+02 -0.95839321312E+02  0.10973179348E+03  0.00000000000E+00 0. -1.
</event>
<event>
 8    1  0.6689467E-009  0.1474154E+03  0.7561462E-02  0.1203685E+00
         -2   -1    0    0    0  501 -0.00000000000E+00  0.00000000000E+00  0.79341865424E+02  0.79341865424E+02  0.00000000000E+00 0.  1.
          2   -1    0    0  501    0  0.00000000000E+00 -0.00000000000E+00 -0.42425750833E+03  0.42425750833E+03  0.00000000000E+00 0. -1.
         25    2    1    2    0    0 -0.75014513997E+01  0.12572342301E+03 -0.81156528230E+02  0.19518097907E+03  0.12508629682E+03 0.  0.
         23    2    1    2    0    0  0.75014513997E+01 -0.12572342301E+03 -0.26375911467E+03  0.30841839468E+03  0.98439751811E+02 0.  0.
          5    1    3    3  502    0  0.21345997602E+02  0.13470049971E+03 -0.89964477927E+02  0.16343486753E+03  0.41800000000E+01 0. -1.
         -5    1    3    3    0  502 -0.28847449002E+02 -0.89770767054E+01  0.88079496971E+01  0.31746111540E+02  0.41800000000E+01 0.  1.
        -11    1    4    4    0    0 -0.66626680914E+01 -0.72642053483E+02 -0.51832802045E+02  0.89486861874E+02  0.00000000000E+00 0.  1.
         11    1    4    4    0    0  0.14164119491E+02 -0.53081369526E+02 -0.21192631263E+03  0.21893153280E+03  0.00000000000E+00 0. -1.
</event>
<event>
 8    1  0.6689467E-009  0.1306409E+03  0.7561462E-02  0.1226508E+00
          2   -1    0    0  501    0  0.00000000000E+00  0.00000000000E+00  0.53544891149E+03  0.53544891149E+03  0.00000000000E+00 0. -1.
         -2   -1    0    0    0  501 -0.00000000000E+00 -0.00000000000E+00 -0.47032723449E+02  0.47032723449E+02  0.00000000000E+00 0.  1.
         25    2    1    2    0    0  0.19076339936E+02  0.79334399439E+02  0.11232373180E+03  0.18687421219E+03  0.12508995473E+03 0.  0.
         23    2    1    2    0    0 -0.19076339936E+02 -0.79334399439E+02  0.37609245624E+03  0.39560742275E+03  0.91661571089E+02 0.  0.
          5    1    3    3  502    0 -0.24024343924E+02  0.98672535686E+02  0.81876821764E+02  0.13051714348E+03  0.41800000000E+01 0. -1.
         -5    1    3    3    0  502  0.43100683860E+02 -0.19338136247E+02  0.30446910035E+02  0.56357068708E+02  0.41800000000E+01 0. -1.
        -11    1    4    4    0    0 -0.25137233975E+02  0.66630480489E+01  0.33919889004E+02  0.42741497532E+02  0.00000000000E+00 0.  1.
         11    1    4    4    0    0  0.60608940392E+01 -0.85997447488E+02  0.34217256724E+03  0.35286592522E+03  0.00000000000E+00 0. -1.
</event>
<event>
 8    1  0.6689467E-009  0.7412865E+02  0.7561462E-02  0.1346591E+00
         -2   -1    0    0    0  501 -0.00000000000E+00  0.00000000000E+00  0.10559573188E+03  0.10559573188E+03  0.00000000000E+00 0.  1.
          2   -1    0    0  501    0  0.00000000000E+00 -0.00000000000E+00 -0.13951442113E+03  0.13951442113E+03  0.00000000000E+00 0. -1.
         25    2    1    2    0    0  0.52616227650E+02  0.64037052232E+01 -0.73403008026E+01  0.13605462370E+03  0.12508999066E+03 0.  0.
         23    2    1    2    0    0 -0.52616227650E+02 -0.64037052232E+01 -0.26578388455E+02  0.10905552931E+03  0.91527170212E+02 0.  0.
          5    1    3    3  502    0  0.76572129007E+01 -0.49597738163E+01  0.56307228752E+02  0.57194481163E+02  0.41800000000E+01 0.  1.
         -5    1    3    3    0  502  0.44959014749E+02  0.11363479040E+02 -0.63647529555E+02  0.78860142541E+02  0.41800000000E+01 0.  1.
        -11    1    4    4    0    0 -0.59621256336E+02 -0.30215373712E+02  0.71025605808E+01  0.67216883165E+02  0.00000000000E+00 0. -1.
         11    1    4    4    0    0  0.70050286857E+01  0.23811668489E+02 -0.33680949036E+02  0.41838646143E+02  0.00000000000E+00 0.  1.
</event>
<event>
 8    1  0.6689467E-009  0.1017939E+03  0.7561462E-02  0.1276568E+00
         -1   -1    0    0    0  501 -0.00000000000E+00  0.00000000000E+00  0.13868877613E+02  0.13868877613E+02  0.00000000000E+00 0. -1.
          1   -1    0    0  501    0  0.00000000000E+00 -0.00000000000E+00 -0.93398330186E+03  0.93398330186E+03  0.00000000000E+00 0.  1.
         25    2    1    2    0    0 -0.27347445322E+02  0.57454380150E+01 -0.47898375839E+03  0.49583569474E+03  0.12508678010E+03 0.  0.
         23    2    1    2    0    0  0.27347445322E+02 -0.57454380150E+01 -0.44113066586E+03  0.45201648473E+03  0.94560802050E+02 0.  0.
          5    1    3    3  502    0 -0.66933884940E+02  0.50497149822E+01 -0.14919954730E+03  0.16365702517E+03  0.41800000000E+01 0.  1.
         -5    1    3    3    0  502  0.39586439618E+02  0.69572303281E+00 -0.32978421109E+03  0.33217866957E+03  0.41800000000E+01 0.  1.
        -11    1    4    4    0    0  0.36402417241E+02  0.37544345758E+02 -0.28427787841E+03  0.28904779196E+03  0.00000000000E+00 0.  1.
         11    1    4    4    0    0 -0.90549719188E+01 -0.43289783773E+02 -0.15685278744E+03  0.16296869277E+03  0.00000000000E+00 0. -1.
</event>
<event>
 8    1  0.6689467E-009  0.1044199E+03  0.7561462E-02  0.1271267E+00
          2   -1    0    0  501    0  0.00000000000E+00  0.00000000000E+00  0.11147894783E+03  0.11147894783E+03  0.00000000000E+00 0. -1.
         -2   -1    0    0    0  501 -0.00000000000E+00 -0.00000000000E+00 -0.10639366665E+03  0.10639366665E+03  0.00000000000E+00 0.  1.
         25    2    1    2    0    0  0.48978933273E+02  0.11845010897E+02 -0.17034943715E+02  0.13592908534E+03  0.12508911522E+03 0.  0.
         23    2    1    2    0    0 -0.48978933273E+02 -0.11845010897E+02  0.22120224895E+02  0.81943529142E+02  0.60714062878E+02 0.  0.
          5    1    3    3  502    0  0.13319500933E+02  0.65016647775E+02  0.81677706753E+01  0.66998197520E+02  0.41800000000E+01 0.  1.
         -5    1    3    3    0  502  0.35659432339E+02 -0.53171636878E+02 -0.25202714390E+02  0.68930887820E+02  0.41800000000E+01 0.  1.
        -11    1    4    4    0    0 -0.15582193928E+02  0.24366203832E+02  0.29053731039E+01  0.29068158691E+02  0.00000000000E+00 0.  1.
         11    1    4    4    0    0 -0.33396739345E+02 -0.36211214729E+02  0.19214851791E+02  0.52875370452E+02  0.00000000000E+00 0. -1.
</event>
<event>
 8    1  0.6689467E-009  0.2002529E+03  0.7561462E-02  0.1149526E+00
         -1   -1    0    0    0  501 -0.00000000000E+00  0.00000000000E+00  0.20283145103E+03  0.20283145103E+03  0.00000000000E+00 0.  1.
          1   -1    0    0  501    0  0.00000000000E+00 -0.00000000000E+00 -0.35141776115E+03  0.35141776115E+03  0.00000000000E+00 0. -1.
         25    2    1    2    0    0 -0.18378934115E+03 -0.32450286886E+02  0.86164303712E+02  0.24063078212E+03  0.12508934018E+03 0.  0.
         23    2    1    2    0    0  0.18378934115E+03  0.32450286886E+02 -0.23475061383E+03  0.31361843006E+03  0.91744895991E+02 0.  0.
          5    1    3    3  502    0  0.88422748853E+01 -0.54227620113E+01 -0.17046083226E+02  0.20387092150E+02  0.41800000000E+01 0.  1.
         -5    1    3    3    0  502 -0.19263161604E+03 -0.27027524875E+02  0.10321038694E+03  0.22024368997E+03  0.41800000000E+01 0.  1.
        -11    1    4    4    0    0  0.20174108367E+02 -0.14144396944E+02 -0.79768729038E+02  0.83487177133E+02  0.00000000000E+00 0. -1.
         11    1    4    4    0    0  0.16361523278E+03  0.46594683830E+02 -0.15498188479E+03  0.23013125293E+03  0.00000000000E+00 0.  1.
</event>
<event>
 8    1  0.6689467E-009  0.1974999E+03  0.7561462E-02  0.1151866E+00
          1   -1    0    0  501    0  0.00000000000E+00  0.00000000000E+00  0.34579724352E+03  0.34579724352E+03  0.00000000000E+00 0. -1.
         -1   -1    0    0    0  501 -0.00000000000E+00 -0.00000000000E+00 -0.12321819056E+03  0.12321819056E+03  0.00000000000E+00 0.  1.
         25    2    1    2    0    0  0.15022496303E+02  0.17208231297E+03  0.80495226686E+02  0.22795681284E+03  0.12508728619E+03 0.  0.
         23    2    1    2    0    0 -0.15022496303E+02 -0.17208231297E+03  0.14208382627E+03  0.24105862124E+03  0.89907993802E+02 0.  0.
          5    1    3    3  502    0  0.21544406938E+02  0.18451350930E+03  0.47399046035E+02  0.19176427861E+03  0.41800000000E+01 0. -1.
         -5    1    3    3    0  502 -0.65219106346E+01 -0.12431196326E+02  0.33096180650E+02  0.36192534231E+02  0.41800000000E+01 0. -1.
        -11    1    4    4    0    0 -0.49741687185E+02 -0.64249733181E+02  0.64699809842E+02  0.10386688140E+03  0.00000000000E+00 0. -1.
         11    1    4    4    0    0  0.34719190882E+02 -0.10783257979E+03  0.77384016432E+02  0.13719173984E+03  0.00000000000E+00 0.  1.
</event>
<event>
 8    1  0.6689467E-009  0.1418411E+03  0.7561462E-02  0.1210873E+00
          2   -1    0    0  501    0  0.00000000000E+00  0.00000000000E+00  0.13140616570E+04  0.13140616570E+04  0.00000000000E+00 0. -1.
         -2   -1    0    0    0  501 -0.00000000000E+00 -0.00000000000E+00 -0.17532406873E+02  0.17532406873E+02  0.00000000000E+00 0.  1.
         25    2    1    2    0    0  0.50310699086E+02  0.83568015561E+02  0.78661980909E+03  0.80245426793E+03  0.12508936167E+03 0.  0.
         23    2    1    2    0    0 -0.50310699086E+02 -0.83568015561E+02  0.50990944105E+03  0.52913979596E+03  0.10230594275E+03 0.  0.
          5    1    3    3  502    0 -0.37077019443E+01 -0.22620670727E+02  0.31999423425E+03  0.32084143148E+03  0.41800000000E+01 0.  1.
         -5    1    3    3    0  502  0.54018401030E+02  0.10618868629E+03  0.46662557484E+03  0.48161283645E+03  0.41800000000E+01 0.  1.
        -11    1    4    4    0    0 -0.77512295426E+02 -0.83549719449E+02  0.40054720760E+03  0.41644540708E+03  0.00000000000E+00 0. -1.
         11    1    4    4    0    0  0.27201596340E+02 -0.18296111907E-01  0.10936223345E+03  0.11269438888E+03  0.00000000000E+00 0.  1.
</event>
<event>
 8    1  0.6689467E-009  0.1967091E+03  0.7561462E-02  0.1152546E+00
         -2   -1    0    0    0  501 -0.00000000000E+00  0.00000000000E+00  0.97849780792E+02  0.97849780792E+02  0.00000000000E+00 0.  1.
          2   -1    0    0  501    0  0.00000000000E+00 -0.00000000000E+00 -0.42902198104E+03  0.42902198104E+03  0.00000000000E+00 0. -1.
         25    2    1    2    0    0 -0.15916405897E+03  0.57408726972E+02 -0.12432370037E+03  0.24440530980E+03  0.12509441787E+03 0.  0.
         23    2    1    2    0    0  0.15916405897E+03 -0.57408726972E+02 -0.20684849987E+03  0.28246645203E+03  0.91498825261E+02 0.  0.
          5    1    3    3  502    0 -0.77117385861E+02 -0.31011807784E+02 -0.81098025347E+02  0.11620320796E+03  0.41800000000E+01 0.  1.
         -5    1    3    3    0  502 -0.82046673110E+02  0.88420534756E+02 -0.43225675026E+02  0.12820210184E+03  0.41800000000E+01 0.  1.
        -11    1    4    4    0    0  0.29576793404E+01  0.16448062285E+02 -0.34931460102E+02  0.38723294344E+02  0.00000000000E+00 0.  1.
         11    1    4    4    0    0  0.15620637963E+03 -0.73856789257E+02 -0.17191703977E+03  0.24374315769E+03  0.00000000000E+00 0. -1.
</event>
<event>
 8    1  0.6689467E-009  0.5432453E+02  0.7561462E-02  0.1423320E+00
         -2   -1    0    0    0  501 -0.00000000000E+00  0.00000000000E+00  0.61746063526E+02  0.61746063526E+02  0.00000000000E+00 0.  1.
          2   -1    0    0  501    0  0.00000000000E+00 -0.00000000000E+00 -0.21634569294E+03  0.21634569294E+03  0.00000000000E+00 0. -1.
         25    2    1    2    0    0 -0.14646515067E+02 -0.22101001200E+02 -0.12628769584E+03  0.17971916227E+03  0.12508964989E+03 0.  0.
         23    2    1    2    0    0  0.14646515067E+02  0.22101001200E+02 -0.28311933570E+02  0.98372594193E+02  0.90402583194E+02 0.  0.
          5    1    3    3  502    0  0.13433866658E+02  0.89765880636E+01  0.20834139586E+02  0.26694225573E+02  0.41800000000E+01 0.  1.
         -5    1    3    3    0  502 -0.28080381725E+02 -0.31077589264E+02 -0.14712183543E+03  0.15302493670E+03  0.41800000000E+01 0.  1.
        -11    1    4    4    0    0  0.20825803901E+02 -0.55351774369E+01 -0.55240418787E+02  0.59294655452E+02  0.00000000000E+00 0. -1.
         11    1    4    4    0    0 -0.61792888343E+01  0.27636178637E+02  0.26928485217E+02  0.39077938741E+02  0.00000000000E+00 0.  1.
</event>
<event>
 7    1  0.6689467E-009  0.1178528E+03  0.7561462E-02  0.1246682E+00
          2   -1    0    0  501    0  0.00000000000E+00  0.00000000000E+00  0.89896416232E+03  0.89896416232E+03  0.00000000000E+00 0.  1.
         -2   -1    0    0    0  501 -0.00000000000E+00 -0.00000000000E+00 -0.20922210794E+02  0.20922210794E+02  0.00000000000E+00 0. -1.
         23    2    1    2    0    0  0.33106760995E+02  0.70197638793E+02  0.28512934919E+03  0.30900161965E+03  0.90329890171E+02 0.  0.
          5    1    1    2  502    0  0.62408642472E+01  0.28134759969E+02  0.51219098787E+02  0.58918431629E+02  0.41800000000E+01 0. -1.
         -5    1    1    2    0  502 -0.39347625242E+02 -0.98332398761E+02  0.54169350354E+03  0.55196632184E+03  0.41800000000E+01 0. -1.
        -11    1    3    3    0    0 -0.95594366156E+00  0.66298110593E+02  0.25460568973E+03  0.26309772051E+03  0.00000000000E+00 0.  1.
         11    1    3    3    0    0  0.34062704657E+02  0.38995281992E+01  0.30523659462E+02  0.45903899133E+02  0.00000000000E+00 0. -1.
</event>
<event>
 8    1  0.6689467E-009  0.1567805E+03  0.7561462E-02  0.1192380E+00
         -4   -1    0    0    0  501 -0.00000000000E+00  0.00000000000E+00  0.18444840695E+03  0.18444840695E+03  0.00000000000E+00 0.  1.
          4   -1    0    0  501    0  0.00000000000E+00 -0.00000000000E+00 -0.15378467557E+03  0.15378467557E+03  0.00000000000E+00 0. -1.
         25    2    1    2    0    0 -0.60509414180E+02  0.11255946930E+03  0.29279284784E+02  0.18120747564E+03  0.12509136412E+03 0.  0.
         23    2    1    2    0    0  0.60509414180E+02 -0.11255946930E+03  0.13844465953E+01  0.15702560688E+03  0.91236512378E+02 0.  0.
          5    1    3    3  502    0 -0.82970259232E+02  0.22725463877E+02  0.13423401948E+02  0.87167486745E+02  0.41800000000E+01 0.  1.
         -5    1    3    3    0  502  0.22460845053E+02  0.89834005425E+02  0.15855882836E+02  0.94039988897E+02  0.41800000000E+01 0.  1.
        -11    1    4    4    0    0  0.63424866630E+02 -0.80197139574E+02  0.37073876567E+02  0.10876013620E+03  0.00000000000E+00 0.  1.
         11    1    4    4    0    0 -0.29154524502E+01 -0.32362329728E+02 -0.35689429972E+02  0.48265470682E+02  0.00000000000E+00 0. -1.
</event>
<event>
 8    1  0.6689467E-009  0.1031252E+03  0.7561462E-02  0.1273858E+00
         -1   -1    0    0    0  501 -0.00000000000E+00  0.00000000000E+00  0.53025359781E+02  0.53025359781E+02  0.00000000000E+00 0.  1.
          1   -1    0    0  501    0  0.00000000000E+00 -0.00000000000E+00 -0.33206343452E+03  0.33206343452E+03  0.00000000000E+00 0. -1.
         25    2    1    2    0    0  0.23298979584E+02  0.45774074280E+02 -0.23779435216E+03  0.27355455180E+03  0.12509128891E+03 0.  0.
         23    2    1    2    0    0 -0.23298979584E+02 -0.45774074280E+02 -0.41243722578E+02  0.11153424251E+03  0.90004079205E+02 0.  0.
          5    1    3    3  502    0  0.39660003928E+02  0.74370062645E+02 -0.95527202349E+02  0.12746270403E+03  0.41800000000E+01 0.  1.
         -5    1    3    3    0  502 -0.16361024344E+02 -0.28595988365E+02 -0.14226714981E+03  0.14609184777E+03  0.41800000000E+01 0.  1.
        -11    1    4    4    0    0 -0.14710595958E+02 -0.65503643420E+02 -0.24588309622E+01  0.67180166600E+02  0.00000000000E+00 0.  1.
         11    1    4    4    0    0 -0.85883836264E+01  0.19729569141E+02 -0.38784891615E+02  0.44354075905E+02  0.00000000000E+00 0. -1.
</event>
<event>
 7    1  0.6689467E-009  0.1098621E+03  0.7561462E-02  0.1260825E+00
          1   -1    0    0  501    0  0.00000000000E+00  0.00000000000E+00  0.63809804774E+03  0.63809804774E+03  0.00000000000E+00 0. -1.
         -1   -1    0    0    0  501 -0.00000000000E+00 -0.00000000000E+00 -0.29084453476E+02  0.29084453476E+02  0.00000000000E+00 0.  1.
         23    2    1    2    0    0  0.55901383756E+02  0.50972630093E+02  0.35441212613E+03  0.37356580880E+03  0.90665785346E+02 0.  0.
          5    1    1    2  502    0 -0.46511298754E+02 -0.69817741548E+02  0.74602982219E+02  0.11234275812E+03  0.41800000000E+01 0. -1.
         -5    1    1    2    0  502 -0.93900850015E+01  0.18845111455E+02  0.17999848592E+03  0.18127393430E+03  0.41800000000E+01 0. -1.
        -11    1    3    3    0    0 -0.18282695078E+02  0.33321261906E+02  0.77081055341E+02  0.85942146393E+02  0.00000000000E+00 0.  1.
         11    1    3    3    0    0  0.74184078834E+02  0.17651368188E+02  0.27733107079E+03  0.28762366240E+03  0.00000000000E+00 0. -1.
</event>
<event>
 8    1  0.6689467E-009  0.1857343E+03  0.7561462E-02  0.1162366E+00
         -2   -1    0    0    0  501 -0.00000000000E+00  0.00000000000E+00  0.21725814271E+03  0.21725814271E+03  0.00000000000E+00 0.  1.
          2   -1    0    0  501    0  0.00000000000E+00 -0.00000000000E+00 -0.30752433978E+03  0.30752433978E+03  0.00000000000E+00 0. -1.
         25    2    1    2    0    0 -0.15546708563E+03 -0.68399924223E+02 -0.21006600108E+03  0.29769792396E+03  0.12509102595E+03 0.  0.
         23    2    1    2    0    0  0.15546708563E+03  0.68399924223E+02  0.11979980401E+03  0.22708455853E+03  0.91470428747E+02 0.  0.
          5    1    3    3  502    0 -0.12778113095E+02 -0.55291360002E+02 -0.10684056241E+03  0.12104872094E+03  0.41800000000E+01 0. -1.
         -5    1    3    3    0  502 -0.14268897253E+03 -0.13108564221E+02 -0.10322543866E+03  0.17664920302E+03  0.41800000000E+01 0. -1.
        -11    1    4    4    0    0  0.22868211097E+02  0.20983613215E+01 -0.14407492664E+02  0.27109666982E+02  0.00000000000E+00 0. -1.
         11    1    4    4    0    0  0.13259887453E+03  0.66301562902E+02  0.13420729667E+03  0.19997489155E+03  0.00000000000E+00 0.  1.
</event>
<event>
 8    1  0.6689467E-009  0.1275171E+03  0.7561462E-02  0.1231187E+00
         -2   -1    0    0    0  501 -0.00000000000E+00  0.00000000000E+00  0.84779251214E+02  0.84779251214E+02  0.00000000000E+00 0. -1.
          2   -1    0    0  501    0  0.00000000000E+00 -0.00000000000E+00 -0.23797046881E+03  0.23797046881E+03  0.00000000000E+00 0.  1.
         25    2    1    2    0    0  0.23547812062E+01  0.87820694423E+02 -0.12246903989E+03  0.19586797885E+03  0.12509028757E+03 0.  0.
         23    2    1    2    0    0 -0.23547812062E+01 -0.87820694423E+02 -0.30722177707E+02  0.12688174118E+03  0.86238649558E+02 0.  0.
          5    1    3    3  502    0  0.49354459822E+02  0.28468914456E+02 -0.10268369785E+03  0.11750640833E+03  0.41800000000E+01 0. -1.
         -5    1    3    3    0  502 -0.46999678615E+02  0.59351779967E+02 -0.19785342047E+02  0.78361570525E+02  0.41800000000E+01 0. -1.
        -11    1    4    4    0    0  0.17237348605E+02  0.11581766967E+02 -0.11570375826E+02  0.23772612598E+02  0.00000000000E+00 0.  1.
         11    1    4    4    0    0 -0.19592129811E+02 -0.99402461390E+02 -0.19151801880E+02  0.10310912858E+03  0.00000000000E+00 0. -1.
</event>
<event>
 8    1  0.6689467E-009  0.6268410E+02  0.7561462E-02  0.1386901E+00
          2   -1    0    0  501    0  0.00000000000E+00  0.00000000000E+00  0.30952479539E+02  0.30952479539E+02  0.00000000000E+00 0.  1.
         -2   -1    0    0    0  501 -0.00000000000E+00 -0.00000000000E+00 -0.38952670316E+03  0.38952670316E+03  0.00000000000E+00 0. -1.
         25    2    1    2    0    0 -0.75680496483E+01 -0.58392699994E+01 -0.24325497627E+03  0.27370114424E+03  0.12509180800E+03 0.  0.
         23    2    1    2    0    0  0.75680496483E+01  0.58392699994E+01 -0.11531924736E+03  0.14677803846E+03  0.90298899853E+02 0.  0.
          5    1    3    3  502    0 -0.24718596595E+02 -0.15597317519E+01  0.42976665064E+01  0.25483016269E+02  0.41800000000E+01 0. -1.
         -5    1    3    3    0  502  0.17150546946E+02 -0.42795382475E+01 -0.24755264278E+03  0.24821812797E+03  0.41800000000E+01 0. -1.
        -11    1    4    4    0    0  0.40640070619E+02 -0.14628845553E+02 -0.28786546012E+02  0.51906489897E+02  0.00000000000E+00 0.  1.
         11    1    4    4    0    0 -0.33072020971E+02  0.20468115552E+02 -0.86532701344E+02  0.94871548565E+02  0.00000000000E+00 0. -1.
</event>
<event>
 8    1  0.6689467E-009  0.1302005E+03  0.7561462E-02  0.1227158E+00
          1   -1    0    0  501    0  0.00000000000E+00  0.00000000000E+00  0.59026832731E+03  0.59026832731E+03  0.00000000000E+00 0. -1.
         -1   -1    0    0    0  501 -0.00000000000E+00 -0.00000000000E+00 -0.29772711925E+02  0.29772711925E+02  0.00000000000E+00 0.  1.
         25    2    1    2    0    0  0.64163424633E+02 -0.44534092742E+02  0.37258281775E+03  0.40070690643E+03  0.12509131983E+03 0.  0.
         23    2    1    2    0    0 -0.64163424633E+02  0.44534092742E+02  0.18791279763E+03  0.21933413280E+03  0.81829162427E+02 0.  0.
          5    1    3    3  502    0  0.98045643693E+02 -0.53837517529E+02  0.29075364439E+03  0.31155510053E+03  0.41800000000E+01 0. -1.
         -5    1    3    3    0  502 -0.33882219060E+02  0.93034247877E+01  0.81829173366E+02  0.89151805898E+02  0.41800000000E+01 0. -1.
        -11    1    4    4    0    0 -0.74783711367E+02  0.82022195922E+01  0.12760556575E+03  0.14813190170E+03  0.00000000000E+00 0.  1.
         11    1    4    4    0    0  0.10620286734E+02  0.36331873149E+02  0.60307231879E+02  0.71202231101E+02  0.00000000000E+00 0. -1.
</event>
<event>
 7    1  0.6689467E-009  0.9104481E+02  0.7561462E-02  0.1300341E+00
          1   -1    0    0  501    0  0.00000000000E+00  0.00000000000E+00  0.63282393270E+02  0.63282393270E+02  0.00000000000E+00 0. -1.
         -1   -1    0    0    0  501 -0.00000000000E+00 -0.00000000000E+00 -0.22613221493E+03  0.22613221493E+03  0.00000000000E+00 0.  1.
         23    2    1    2    0    0  0.16301251570E+01 -0.49240478216E+02 -0.67803615955E+02  0.12482390914E+03  0.92500788929E+02 0.  0.
          5    1    1    2  502    0  0.57320940633E+02  0.45828033655E+02 -0.65376671513E+02  0.98374186055E+02  0.41800000000E+01 0. -1.
         -5    1    1    2    0  502 -0.58951065790E+02  0.34124445613E+01 -0.29669534187E+02  0.66216513005E+02  0.41800000000E+01 0. -1.
        -11    1    3    3    0    0  0.23356303707E+01 -0.20065068151E+02 -0.87378460545E+02  0.89683094820E+02  0.00000000000E+00 0.  1.
         11    1    3    3    0    0 -0.70550521368E+00 -0.29175410065E+02  0.19574844591E+02  0.35140814316E+02  0.00000000000E+00 0. -1.
</event>
<event>
 8    1  0.6689467E-009  0.1323347E+03  0.7561462E-02  0.1224032E+00
          1   -1    0    0  501    0  0.00000000000E+00  0.00000000000E+00  0.19114850788E+03  0.19114850788E+03  0.00000000000E+00 0. -1.
         -1   -1    0    0    0  501 -0.00000000000E+00 -0.00000000000E+00 -0.10829808198E+03  0.10829808198E+03  0.00000000000E+00 0.  1.
         25    2    1    2    0    0  0.83067193608E+02 -0.38610416403E+02  0.27093726949E+02  0.15739157948E+03  0.12508843409E+03 0.  0.
         23    2    1    2    0    0 -0.83067193608E+02  0.38610416403E+02  0.55756698950E+02  0.14205501037E+03  0.93165946493E+02 0.  0.
          5    1    3    3  502    0 -0.26219291156E+02 -0.32385692067E+02 -0.74401217475E+01  0.42533658331E+02  0.41800000000E+01 0. -1.
         -5    1    3    3    0  502  0.10928648476E+03 -0.62247243357E+01  0.34533848697E+02  0.11485792115E+03  0.41800000000E+01 0. -1.
        -11    1    4    4    0    0 -0.87842059300E+02  0.49874761169E+02  0.18308927209E+02  0.10265932008E+03  0.00000000000E+00 0.  1.
         11    1    4    4    0    0  0.47748656918E+01 -0.11264344766E+02  0.37447771741E+02  0.39395690294E+02  0.00000000000E+00 0. -1.
</event>
<event>
 8    1  0.6689467E-009  0.1116687E+03  0.7561462E-02  0.1257511E+00
         -1   -1    0    0    0  501 -0.00000000000E+00  0.00000000000E+00  0.58421696052E+02  0.58421696052E+02  0.00000000000E+00 0.  1.
          1   -1    0    0  501    0  0.00000000000E+00 -0.00000000000E+00 -0.34322015425E+03  0.34322015425E+03  0.00000000000E+00 0. -1.
         25    2    1    2    0    0 -0.80171051762E+02 -0.42717821630E+02 -0.16035492112E+03  0.22273808610E+03  0.12508534865E+03 0.  0.
         23    2    1    2    0    0  0.80171051762E+02  0.42717821630E+02 -0.12444353708E+03  0.17890376420E+03  0.90929385235E+02 0.  0.
          5    1    3    3  502    0 -0.87452735502E+02 -0.64468894501E+02 -0.16628854061E+03  0.19867956725E+03  0.41800000000E+01 0. -1.
         -5    1    3    3    0  502  0.72816837398E+01  0.21751072871E+02  0.59336194890E+01  0.24058518852E+02  0.41800000000E+01 0. -1.
        -11    1    4    4    0    0  0.20925733590E+02  0.15800343431E+02  0.11158193309E+02  0.28496358657E+02  0.00000000000E+00 0.  1.
         11    1    4    4    0    0  0.59245318172E+02  0.26917478199E+02 -0.13560173039E+03  0.15040740555E+03  0.00000000000E+00 0. -1.
</event>
<event>
 8    1  0.6689467E-009  0.1870736E+03  0.7561462E-02  0.1161128E+00
          1   -1    0    0  501    0  0.00000000000E+00  0.00000000000E+00  0.36663865979E+02  0.36663865979E+02  0.00000000000E+00 0.  1.
         -1   -1    0    0    0  501 -0.00000000000E+00 -0.00000000000E+00 -0.12598564145E+04  0.12598564145E+04  0.00000000000E+00 0. -1.
         25    2    1    2    0    0 -0.16597980949E+03  0.35448596191E+02 -0.85910332515E+03  0.88459765154E+03  0.12509429116E+03 0.  0.
         23    2    1    2    0    0  0.16597980949E+03 -0.35448596191E+02 -0.36408922337E+03  0.41192262894E+03  0.91177790785E+02 0.  0.
          5    1    3    3  502    0 -0.47343347071E+02  0.65817871592E+02 -0.23636069738E+03  0.24991445816E+03  0.41800000000E+01 0. -1.
         -5    1    3    3    0  502 -0.11863646242E+03 -0.30369275400E+02 -0.62274262778E+03  0.63468319338E+03  0.41800000000E+01 0. -1.
        -11    1    4    4    0    0  0.48898733976E+02 -0.32729051629E+01 -0.21052651074E+03  0.21615552229E+03  0.00000000000E+00 0.  1.
         11    1    4    4    0    0  0.11708107552E+03 -0.32175691028E+02 -0.15356271263E+03  0.19576710665E+03  0.00000000000E+00 0. -1.
</event>
<event>
 8    1  0.6689467E-009  0.1329263E+03  0.7561462E-02  0.1223177E+00
          2   -1    0    0  501    0  0.00000000000E+00  0.00000000000E+00  0.70268986353E+03  0.70268986353E+03  0.00000000000E+00 0. -1.
         -2   -1    0    0    0  501 -0.00000000000E+00 -0.00000000000E+00 -0.36668259649E+02  0.36668259649E+02  0.00000000000E+00 0.  1.
         25    2    1    2    0    0 -0.50654487665E+02 -0.67981534099E+02  0.54659595307E+03  0.56709935592E+03  0.12508867847E+03 0.  0.
         23    2    1    2    0    0  0.50654487665E+02  0.67981534099E+02  0.11942565081E+03  0.17225876726E+03  0.90682030884E+02 0.  0.
          5    1    3    3  502    0 -0.53636229724E+02  0.23281085136E+02  0.18133222351E+03  0.19057203820E+03  0.41800000000E+01 0. -1.
         -5    1    3    3    0  502  0.29817420587E+01 -0.91262619235E+02  0.36526372956E+03  0.37652731772E+03  0.41800000000E+01 0. -1.
        -11    1    4    4    0    0 -0.17607607057E+02  0.36765662602E+02  0.74104396349E+02  0.84576612199E+02  0.00000000000E+00 0.  1.
         11    1    4    4    0    0  0.68262094722E+02  0.31215871497E+02  0.45321254466E+02  0.87682155058E+02  0.00000000000E+00 0. -1.
</event>
<event>
 8    1  0.6689467E-009  0.8375075E+02  0.7561462E-02  0.1318732E+00
          1   -1    0    0  501    0  0.00000000000E+00  0.00000000000E+00  0.47141707701E+02  0.47141707701E+02  0.00000000000E+00 0. -1.
         -1   -1    0    0    0  501 -0.00000000000E+00 -0.00000000000E+00 -0.39692079740E+03  0.39692079740E+03  0.00000000000E+00 0.  1.
         25    2    1    2    0    0  0.58588717545E+02  0.54800251234E+02 -0.16496860180E+03  0.22203135278E+03  0.12509027412E+03 0.  0.
         23    2    1    2    0    0 -0.58588717545E+02 -0.54800251234E+02 -0.18481048790E+03  0.22203115232E+03  0.93312436488E+02 0.  0.
          5    1    3    3  502    0  0.58709100817E+01  0.22971594994E+02 -0.15810563063E+03  0.15992818575E+03  0.41800000000E+01 0.  1.
         -5    1    3    3    0  502  0.52717807463E+02  0.31828656240E+02 -0.68629711704E+01  0.62103167029E+02  0.41800000000E+01 0.  1.
        -11    1    4    4    0    0 -0.30485961197E+02 -0.38870655448E+02 -0.18313890149E+03  0.18968441929E+03  0.00000000000E+00 0.  1.
         11    1    4    4    0    0 -0.28102756348E+02 -0.15929595786E+02 -0.16715864128E+01  0.32346733025E+02  0.00000000000E+00 0. -1.
</event>
<event>
 8    1  0.6689467E-009  0.8207934E+02  0.7561462E-02  0.1323252E+00
          2   -1    0    0  501    0  0.00000000000E+00  0.00000000000E+00  0.25127566235E+03  0.25127566235E+03  0.00000000000E+00 0. -1.
         -2   -1    0    0    0  501 -0.00000000000E+00 -0.00000000000E+00 -0.73501920245E+02  0.73501920245E+02  0.00000000000E+00 0.  1.
         25    2    1    2    0    0  0.39146911898E+02  0.67210764884E+02  0.13479082575E+03  0.19966471068E+03  0.12509061658E+03 0.  0.
         23    2    1    2    0    0 -0.39146911898E+02 -0.67210764884E+02  0.42982916353E+02  0.12511287192E+03  0.88067769326E+02 0.  0.
          5    1    3    3  502    0 -0.65156373836E+01  0.98165023646E+01  0.12491846831E+03  0.12554247637E+03  0.41800000000E+01 0. -1.
         -5    1    3    3    0  502  0.45662549281E+02  0.57394262520E+02  0.98723574456E+01  0.74122234307E+02  0.41800000000E+01 0. -1.
        -11    1    4    4    0    0 -0.34965818232E+02 -0.53942124769E+02 -0.14560359519E+02  0.65911799692E+02  0.00000000000E+00 0.  1.
         11    1    4    4    0    0 -0.41810936654E+01 -0.13268640115E+02  0.57543275872E+02  0.59201072227E+02  0.00000000000E+00 0. -1.
</event>
<event>
 8    1  0.6689467E-009  0.1105794E+03  0.7561462E-02  0.1259501E+00
         -2   -1    0    0    0  501 -0.00000000000E+00  0.00000000000E+00  0.24495868234E+02  0.24495868234E+02  0.00000000000E+00 0.  1.
          2   -1    0    0  501    0  0.00000000000E+00 -0.00000000000E+00 -0.68693392539E+03  0.68693392539E+03  0.00000000000E+00 0. -1.
         25    2    1    2    0    0 -0.47303780938E+02  0.30331261682E+02 -0.46635650137E+03  0.48609941988E+03  0.12508647613E+03 0.  0.
         23    2    1    2    0    0  0.47303780938E+02 -0.30331261682E+02 -0.19608155579E+03  0.22533037374E+03  0.95750549271E+02 0.  0.
          5    1    3    3  502    0 -0.22748556628E+02  0.76677209366E+02 -0.33838280897E+03  0.34773163369E+03  0.41800000000E+01 0. -1.
         -5    1    3    3    0  502 -0.24555224310E+02 -0.46345947684E+02 -0.12797369240E+03  0.13836778619E+03  0.41800000000E+01 0. -1.
        -11    1    4    4    0    0  0.46855037273E+02  0.10173295660E+02 -0.35339995371E+02  0.59563459732E+02  0.00000000000E+00 0.  1.
         11    1    4    4    0    0  0.44874366544E+00 -0.40504557342E+02 -0.16074156041E+03  0.16576691401E+03  0.00000000000E+00 0. -1.
</event>
<event>
 8    1  0.6689467E-009  0.7344574E+02  0.7561462E-02  0.1348753E+00
         -2   -1    0    0    0  501 -0.00000000000E+00  0.00000000000E+00  0.29433560687E+03  0.29433560687E+03  0.00000000000E+00 0. -1.
          2   -1    0    0  501    0  0.00000000000E+00 -0.00000000000E+00 -0.41468909763E+02  0.41468909763E+02  0.00000000000E+00 0.  1.
         25    2    1    2    0    0  0.18309841713E+02 -0.19966851017E+02  0.13992489909E+03  0.18963133262E+03  0.12508852659E+03 0.  0.
         23    2    1    2    0    0 -0.18309841713E+02  0.19966851017E+02  0.11294179802E+03  0.14617318401E+03  0.88751476280E+02 0.  0.
          5    1    3    3  502    0  0.93430476372E+01  0.14938298535E+02 -0.19217950143E+02  0.26405440916E+02  0.41800000000E+01 0.  1.
         -5    1    3    3    0  502  0.89667940758E+01 -0.34905149552E+02  0.15914284923E+03  0.16322589170E+03  0.41800000000E+01 0.  1.
        -11    1    4    4    0    0 -0.39141281686E+02 -0.22539011795E+02  0.60939433086E+02  0.75852893746E+02  0.00000000000E+00 0. -1.
         11    1    4    4    0    0  0.20831439973E+02  0.42505862812E+02  0.52002364934E+02  0.70320290269E+02  0.00000000000E+00 0.  1.
</event>
<event>
 7    1  0.6689467E-009  0.1172959E+03  0.7561462E-02  0.1247626E+00
         -1   -1    0    0    0  501 -0.00000000000E+00  0.00000000000E+00  0.26141619510E+02  0.26141619510E+02  0.00000000000E+00 0.  1.
          1   -1    0    0  501    0  0.00000000000E+00 -0.00000000000E+00 -0.69150005814E+03  0.69150005814E+03  0.00000000000E+00 0. -1.
         23    2    1    2    0    0  0.51571974533E+02  0.50503948728E+02 -0.38259404763E+03  0.40007508100E+03  0.92041011321E+02 0.  0.
          5    1    1    2  502    0 -0.66379480708E+02  0.29737302156E+00 -0.63457369799E+02  0.91927330384E+02  0.41800000000E+01 0.  1.
         -5    1    1    2    0  502  0.14807506175E+02 -0.50801321750E+02 -0.21930702120E+03  0.22563926626E+03  0.41800000000E+01 0.  1.
        -11    1    3    3    0    0  0.23966541530E+02  0.74601248046E+02 -0.29251890811E+03  0.30283172378E+03  0.00000000000E+00 0. -1.
         11    1    3    3    0    0  0.27605433003E+02 -0.24097299318E+02 -0.90075139515E+02  0.97243357225E+02  0.00000000000E+00 0.  1.
</event>
<event>
 8    1  0.6689467E-009  0.1049023E+03  0.7561462E-02  0.1270312E+00
         -2   -1    0    0    0  501 -0.00000000000E+00  0.00000000000E+00  0.39221854422E+03  0.39221854422E+03  0.00000000000E+00 0.  1.
          2   -1    0    0  501    0  0.00000000000E+00 -0.00000000000E+00 -0.51417903286E+02  0.51417903286E+02  0.00000000000E+00 0. -1.
         25    2    1    2    0    0  0.15105177353E+02  0.17811851815E+02  0.48297482245E+02  0.13610903241E+03  0.12509034121E+03 0.  0.
         23    2    1    2    0    0 -0.15105177353E+02 -0.17811851815E+02  0.29250315869E+03  0.30752741510E+03  0.92030346882E+02 0.  0.
          5    1    3    3  502    0  0.18095619090E+02  0.70851097273E+02  0.20778236566E+02  0.76134991494E+02  0.41800000000E+01 0.  1.
         -5    1    3    3    0  502 -0.29904417368E+01 -0.53039245457E+02  0.27519245680E+02  0.59974040911E+02  0.41800000000E+01 0.  1.
        -11    1    4    4    0    0 -0.29516664694E+02  0.24634452955E+02  0.21133810384E+03  0.21480661978E+03  0.00000000000E+00 0.  1.
         11    1    4    4    0    0  0.14411487340E+02 -0.42446304770E+02  0.81165054848E+02  0.92720795318E+02  0.00000000000E+00 0. -1.
</event>
<event>
 8    1  0.6689467E-009  0.1223569E+03  0.7561462E-02  0.1239259E+00
          4   -1    0    0  501    0  0.00000000000E+00  0.00000000000E+00  0.39890943418E+03  0.39890943418E+03  0.00000000000E+00 0. -1.
         -4   -1    0    0    0  501 -0.00000000000E+00 -0.00000000000E+00 -0.47961289513E+02  0.47961289513E+02  0.00000000000E+00 0.  1.
         25    2    1    2    0    0  0.33786967640E+02  0.68964074129E+02  0.25631736649E+03  0.29537121973E+03  0.12509181578E+03 0.  0.
         23    2    1    2    0    0 -0.33786967640E+02 -0.68964074129E+02  0.94630778179E+02  0.15149950397E+03  0.89997293410E+02 0.  0.
          5    1    3    3  502    0  0.61393249148E+02  0.85345056803E+02  0.23244553800E+03  0.25514958416E+03  0.41800000000E+01 0. -1.
         -5    1    3    3    0  502 -0.27606281508E+02 -0.16380982675E+02  0.23871828489E+02  0.40221635565E+02  0.41800000000E+01 0. -1.
        -11    1    4    4    0    0  0.12806694204E+02 -0.57816398598E+02  0.19410115065E+02  0.62317733673E+02  0.00000000000E+00 0.  1.
         11    1    4    4    0    0 -0.46593661844E+02 -0.11147675531E+02  0.75220663114E+02  0.89181770295E+02  0.00000000000E+00 0. -1.
</event>
<event>
 8    1  0.6689467E-009  0.9774623E+02  0.7561462E-02  0.1285108E+00
          2   -1    0    0  501    0  0.00000000000E+00  0.00000000000E+00  0.70212562224E+03  0.70212562224E+03  0.00000000000E+00 0. -1.
         -2   -1    0    0    0  501 -0.00000000000E+00 -0.00000000000E+00 -0.23133784010E+02  0.23133784010E+02  0.00000000000E+00 0.  1.
         25    2    1    2    0    0 -0.11643833811E+02 -0.51075492825E+02  0.50078784793E+03  0.51882566908E+03  0.12508925382E+03 0.  0.
         23    2    1    2    0    0  0.11643833811E+02  0.51075492825E+02  0.17820399029E+03  0.20643373717E+03  0.90077415886E+02 0.  0.
          5    1    3    3  502    0  0.56544555113E+02 -0.20657664664E+02  0.24571057449E+03  0.25301222231E+03  0.41800000000E+01 0.  1.
         -5    1    3    3    0  502 -0.68188388924E+02 -0.30417828160E+02  0.25507727344E+03  0.26581344676E+03  0.41800000000E+01 0.  1.
        -11    1    4    4    0    0 -0.58899405965E+01  0.38100302780E+02  0.18043462501E+03  0.18450739382E+03  0.00000000000E+00 0. -1.
         11    1    4    4    0    0  0.17533774407E+02  0.12975190045E+02 -0.22306347121E+01  0.21926343354E+02  0.00000000000E+00 0.  1.
</event>
<event>
 8    1  0.6689467E-009  0.1436443E+03  0.7561462E-02  0.1208508E+00
          1   -1    0    0  501    0  0.00000000000E+00  0.00000000000E+00  0.29667269613E+04  0.29667269613E+04  0.00000000000E+00 0. -1.
         -1   -1    0    0    0  501 -0.00000000000E+00 -0.00000000000E+00 -0.11278068086E+02  0.11278068086E+02  0.00000000000E+00 0.  1.
         25    2    1    2    0    0 -0.10281640508E+03 -0.25646537152E+01  0.24045671611E+04  0.24100142380E+04  0.12509038477E+03 0.  0.
         23    2    1    2    0    0  0.10281640508E+03  0.25646537152E+01  0.55088173217E+03  0.56799079148E+03  0.92547640486E+02 0.  0.
          5    1    3    3  502    0 -0.12561105903E+02 -0.53825644027E+02  0.64195667804E+03  0.64434527252E+03  0.41800000000E+01 0.  1.
         -5    1    3    3    0  502 -0.90255299178E+02  0.51260990312E+02  0.17626104830E+04  0.17656689654E+04  0.41800000000E+01 0.  1.
        -11    1    4    4    0    0  0.38247912468E+02 -0.36203655819E+02  0.12726917467E+03  0.13773543598E+03  0.00000000000E+00 0.  1.
         11    1    4    4    0    0  0.64568492614E+02  0.38768309534E+02  0.42361255750E+03  0.43025535550E+03  0.00000000000E+00 0. -1.
</event>
<event>
 8    1  0.6689467E-009  0.1255160E+03  0.7561462E-02  0.1234265E+00
         -2   -1    0    0    0  501 -0.00000000000E+00  0.00000000000E+00  0.28283835384E+02  0.28283835384E+02  0.00000000000E+00 0.  1.
          2   -1    0    0  501    0  0.00000000000E+00 -0.00000000000E+00 -0.81329738030E+03  0.81329738030E+03  0.00000000000E+00 0. -1.
         25    2    1    2    0    0 -0.10931596318E+02  0.88479601862E+02 -0.27687700881E+03  0.31663335574E+03  0.12509062402E+03 0.  0.
         23    2    1    2    0    0  0.10931596318E+02 -0.88479601862E+02 -0.50813653611E+03  0.52494785995E+03  0.97053472830E+02 0.  0.
          5    1    3    3  502    0  0.28223798357E+02 -0.40380892677E+01 -0.15947960224E+03  0.16206204025E+03  0.41800000000E+01 0.  1.
         -5    1    3    3    0  502 -0.39155394675E+02  0.92517691129E+02 -0.11739740657E+03  0.15457131549E+03  0.41800000000E+01 0.  1.
        -11    1    4    4    0    0  0.97414765395E+01  0.15160165553E+02 -0.24993055421E+02  0.30812007465E+02  0.00000000000E+00 0.  1.
         11    1    4    4    0    0  0.11901197787E+01 -0.10363976741E+03 -0.48314348069E+03  0.49413585248E+03  0.00000000000E+00 0. -1.
</event>
<event>
 8    1  0.6689467E-009  0.1286784E+03  0.7561462E-02  0.1229430E+00
         -1   -1    0    0    0  501 -0.00000000000E+00  0.00000000000E+00  0.23321099932E+02  0.23321099932E+02  0.00000000000E+00 0.  1.
          1   -1    0    0  501    0  0.00000000000E+00 -0.00000000000E+00 -0.87909064040E+03  0.87909064040E+03  0.00000000000E+00 0. -1.
         25    2    1    2    0    0  0.88058552947E+02  0.15457659491E+02 -0.37578554803E+03  0.40602575577E+03  0.12509551652E+03 0.  0.
         23    2    1    2    0    0 -0.88058552947E+02 -0.15457659491E+02 -0.47998399244E+03  0.49638598457E+03  0.89560955172E+02 0.  0.
          5    1    3    3  502    0 -0.25416664731E+02  0.17434886227E+02 -0.35046026456E+02  0.46858067333E+02  0.41800000000E+01 0. -1.
         -5    1    3    3    0  502  0.11347521768E+03 -0.19772267362E+01 -0.34073952157E+03  0.35916768843E+03  0.41800000000E+01 0. -1.
        -11    1    4    4    0    0 -0.41947781329E+02  0.27095828147E+02 -0.10599150976E+03  0.11716654985E+03  0.00000000000E+00 0.  1.
         11    1    4    4    0    0 -0.46110771618E+02 -0.42553487638E+02 -0.37399248268E+03  0.37921943472E+03  0.00000000000E+00 0. -1.
</event>
<event>
 8    1  0.6689467E-009  0.1135667E+03  0.7561462E-02  0.1254104E+00
         -2   -1    0    0    0  501 -0.00000000000E+00  0.00000000000E+00  0.27019415172E+02  0.27019415172E+02  0.00000000000E+00 0.  1.
          2   -1    0    0  501    0  0.00000000000E+00 -0.00000000000E+00 -0.57118138191E+03  0.57118138191E+03  0.00000000000E+00 0. -1.
         25    2    1    2    0    0 -0.41651164046E+02 -0.43834779777E+02 -0.30809752134E+03  0.33797661094E+03  0.12509116477E+03 0.  0.
         23    2    1    2    0    0  0.41651164046E+02  0.43834779777E+02 -0.23606444540E+03  0.26022418615E+03  0.91290181767E+02 0.  0.
          5    1    3    3  502    0 -0.66030599235E+02  0.35172184109E+01 -0.25177758651E+03  0.26034945041E+03  0.41800000000E+01 0. -1.
         -5    1    3    3    0  502  0.24379435189E+02 -0.47351998188E+02 -0.56319934826E+02  0.77627160526E+02  0.41800000000E+01 0. -1.
        -11    1    4    4    0    0  0.64290289302E+02  0.52711394913E+02 -0.15913558948E+03  0.17954349972E+03  0.00000000000E+00 0. -1.
         11    1    4    4    0    0 -0.22639125256E+02 -0.88766151361E+01 -0.76928855920E+02  0.80680686424E+02  0.00000000000E+00 0.  1.
</event>
<event>
 8    1  0.6689467E-009  0.4194046E+02  0.7561462E-02  0.1494399E+00
          1   -1    0    0  501    0  0.00000000000E+00  0.00000000000E+00  0.41611942782E+03  0.41611942782E+03  0.00000000000E+00 0. -1.
         -1   -1    0    0    0  501 -0.00000000000E+00 -0.00000000000E+00 -0.28962513570E+02  0.28962513570E+02  0.00000000000E+00 0.  1.
         25    2    1    2    0    0  0.16931652538E+02  0.57503564662E+01  0.23607125490E+03  0.26776393187E+03  0.12509251920E+03 0.  0.
         23    2    1    2    0    0 -0.16931652538E+02 -0.57503564662E+01  0.15108565934E+03  0.17731800952E+03  0.91077179273E+02 0.  0.
          5    1    3    3  502    0  0.15680913202E+02  0.43144291704E+01 -0.11370405553E+02  0.20279641524E+02  0.41800000000E+01 0.  1.
         -5    1    3    3    0  502  0.12507393356E+01  0.14359272958E+01  0.24744166046E+03  0.24748429034E+03  0.41800000000E+01 0.  1.
        -11    1    4    4    0    0 -0.34729297805E+02  0.12588267142E+02  0.16727560594E+02  0.40551200711E+02  0.00000000000E+00 0.  1.
         11    1    4    4    0    0  0.17797645267E+02 -0.18338623608E+02  0.13435809875E+03  0.13676680881E+03  0.00000000000E+00 0. -1.
</event>
<event>
 8    1  0.6689467E-009  0.1726963E+03  0.7561462E-02  0.1175065E+00
         -1   -1    0    0    0  501 -0.00000000000E+00  0.00000000000E+00  0.27123837559E+02  0.27123837559E+02  0.00000000000E+00 0. -1.
          1   -1    0    0  501    0  0.00000000000E+00 -0.00000000000E+00 -0.13569819805E+04  0.13569819805E+04  0.00000000000E+00 0.  1.
         25    2    1    2    0    0 -0.11951639297E+03  0.70351541405E+02 -0.97100461441E+03  0.98880245546E+03  0.12508727811E+03 0.  0.
         23    2    1    2    0    0  0.11951639297E+03 -0.70351541405E+02 -0.35885352850E+03  0.39530336257E+03  0.90859154607E+02 0.  0.
          5    1    3    3  502    0 -0.13517446518E+03  0.33025733962E+02 -0.61944177462E+03  0.63489244734E+03  0.41800000000E+01 0. -1.
         -5    1    3    3    0  502  0.15658072207E+02  0.37325807443E+02 -0.35156283979E+03  0.35391000812E+03  0.41800000000E+01 0. -1.
        -11    1    4    4    0    0  0.11238880790E+03 -0.19413810453E+02 -0.23587078544E+03  0.26199841145E+03  0.00000000000E+00 0. -1.
         11    1    4    4    0    0  0.71275850756E+01 -0.50937730951E+02 -0.12298274306E+03  0.13330495113E+03  0.00000000000E+00 0.  1.
</event>
<event>
 8    1  0.6689467E-009  0.1080694E+03  0.7561462E-02  0.1264187E+00
          3   -1    0    0  501    0  0.00000000000E+00  0.00000000000E+00  0.54381886647E+02  0.54381886647E+02  0.00000000000E+00 0. -1.
         -3   -1    0    0    0  501 -0.00000000000E+00 -0.00000000000E+00 -0.27722761558E+03  0.27722761558E+03  0.00000000000E+00 0.  1.
         25    2    1    2    0    0 -0.38298244014E+02 -0.43923995940E+02 -0.12882499105E+03  0.18878353115E+03  0.12508904988E+03 0.  0.
         23    2    1    2    0    0  0.38298244014E+02  0.43923995940E+02 -0.94020737881E+02  0.14282597107E+03  0.90350904521E+02 0.  0.
          5    1    3    3  502    0  0.26723435859E+02 -0.59725282789E+02 -0.37630852356E+02  0.75596328465E+02  0.41800000000E+01 0.  1.
         -5    1    3    3    0  502 -0.65021679873E+02  0.15801286850E+02 -0.91194138696E+02  0.11318720269E+03  0.41800000000E+01 0.  1.
        -11    1    4    4    0    0  0.49804009800E+02  0.14401590554E+02 -0.98023026852E+02  0.11088894894E+03  0.00000000000E+00 0.  1.
         11    1    4    4    0    0 -0.11505765787E+02  0.29522405386E+02  0.40022889707E+01  0.31937022139E+02  0.00000000000E+00 0. -1.
</event>
<event>
 8    1  0.6689467E-009  0.1103477E+03  0.7561462E-02  0.1259927E+00
          4   -1    0    0  501    0  0.00000000000E+00  0.00000000000E+00  0.33215715094E+02  0.33215715094E+02  0.00000000000E+00 0. -1.
         -4   -1    0    0    0  501 -0.00000000000E+00 -0.00000000000E+00 -0.52719063812E+03  0.52719063812E+03  0.00000000000E+00 0.  1.
         25    2    1    2    0    0  0.17076907097E+02 -0.77360042242E+02 -0.28169298742E+03  0.31823743509E+03  0.12509168254E+03 0.  0.
         23    2    1    2    0    0 -0.17076907097E+02  0.77360042242E+02 -0.21228193561E+03  0.24216891813E+03  0.85474954396E+02 0.  0.
          5    1    3    3  502    0  0.53925250314E+02 -0.25151526062E+02 -0.22479100362E+03  0.23257041857E+03  0.41800000000E+01 0.  1.
         -5    1    3    3    0  502 -0.36848343218E+02 -0.52208516180E+02 -0.56901983802E+02  0.85667016524E+02  0.41800000000E+01 0.  1.
        -11    1    4    4    0    0 -0.12097024292E+02 -0.59968621051E+01  0.57899054177E+00  0.13514273265E+02  0.00000000000E+00 0. -1.
         11    1    4    4    0    0 -0.49798828049E+01  0.83356904347E+02 -0.21286092615E+03  0.22865464486E+03  0.00000000000E+00 0.  1.
</event>
<event>
 8    1  0.6689467E-009  0.7182918E+02  0.7561462E-02  0.1353981E+00
          2   -1    0    0  501    0  0.00000000000E+00  0.00000000000E+00  0.20379264223E+03  0.20379264223E+03  0.00000000000E+00 0. -1.
         -2   -1    0    0    0  501 -0.00000000000E+00 -0.00000000000E+00 -0.76217880245E+02  0.76217880245E+02  0.00000000000E+00 0.  1.
         25    2    1    2    0    0  0.14331310938E+02  0.53220540068E+02  0.92009972252E+02  0.16477542251E+03  0.12508913826E+03 0.  0.
         23    2    1    2    0    0 -0.14331310938E+02 -0.53220540068E+02  0.35564789731E+02  0.11523509997E+03  0.94744190521E+02 0.  0.
          5    1    3    3  502    0 -0.86257383157E+00  0.51115323811E+02  0.12116082839E+03  0.13157104202E+03  0.41800000000E+01 0. -1.
         -5    1    3    3    0  502  0.15193884770E+02  0.21052162568E+01 -0.29150856139E+02  0.33204380487E+02  0.41800000000E+01 0. -1.
        -11    1    4    4    0    0 -0.16996844779E+02  0.53628186166E+01  0.51473364894E+02  0.54471642617E+02  0.00000000000E+00 0. -1.
         11    1    4    4    0    0  0.26655338406E+01 -0.58583358684E+02 -0.15908575162E+02  0.60763457350E+02  0.00000000000E+00 0.  1.
</event>
<event>
 8    1  0.6689467E-009  0.8234218E+02  0.7561462E-02  0.1322533E+00
          2   -1    0    0  501    0  0.00000000000E+00  0.00000000000E+00  0.11997383836E+03  0.11997383836E+03  0.00000000000E+00 0. -1.
         -2   -1    0    0    0  501 -0.00000000000E+00 -0.00000000000E+00 -0.11308554152E+03  0.11308554152E+03  0.00000000000E+00 0.  1.
         25    2    1    2    0    0  0.37630665162E+02  0.23205544381E+01 -0.11365354921E+02  0.13114603797E+03  0.12509460439E+03 0.  0.
         23    2    1    2    0    0 -0.37630665162E+02 -0.23205544381E+01  0.18253651761E+02  0.10191334192E+03  0.92906843264E+02 0.  0.
          5    1    3    3  502    0  0.29135325691E+02 -0.48550039617E+02  0.30624465912E+02  0.64508168958E+02  0.41800000000E+01 0.  1.
         -5    1    3    3    0  502  0.84953394713E+01  0.50870594056E+02 -0.41989820834E+02  0.66637869008E+02  0.41800000000E+01 0.  1.
        -11    1    4    4    0    0 -0.43011825203E+02 -0.12378662397E+02 -0.28980761069E+02  0.53321036207E+02  0.00000000000E+00 0.  1.
         11    1    4    4    0    0  0.53811600409E+01  0.10058107959E+02  0.47234412830E+02  0.48592305713E+02  0.00000000000E+00 0. -1.
</event>
<event>
 8    1  0.6689467E-009  0.9469421E+02  0.7561462E-02  0.1291866E+00
          1   -1    0    0  501    0  0.00000000000E+00  0.00000000000E+00  0.16886381430E+03  0.16886381430E+03  0.00000000000E+00 0. -1.
         -1   -1    0    0    0  501 -0.00000000000E+00 -0.00000000000E+00 -0.71687839061E+02  0.71687839061E+02  0.00000000000E+00 0.  1.
         25    2    1    2    0    0  0.64986508916E+01 -0.41148533280E+01  0.33659388306E+02  0.12977828172E+03  0.12510109314E+03 0.  0.
         23    2    1    2    0    0 -0.64986508916E+01  0.41148533280E+01  0.63516586929E+02  0.11077337164E+03  0.90427974474E+02 0.  0.
          5    1    3    3  502    0  0.27390057381E+02  0.49511018693E+02  0.43174794184E+02  0.71295802599E+02  0.41800000000E+01 0. -1.
         -5    1    3    3    0  502 -0.20891406490E+02 -0.53625872021E+02 -0.95154058781E+01  0.58482479121E+02  0.41800000000E+01 0. -1.
        -11    1    4    4    0    0 -0.38102562599E+02 -0.11359450242E+02  0.18861019589E+01  0.39804519429E+02  0.00000000000E+00 0.  1.
         11    1    4    4    0    0  0.31603911707E+02  0.15474303570E+02  0.61630484970E+02  0.70968852209E+02  0.00000000000E+00 0. -1.
</event>
<event>
 8    1  0.6689467E-009  0.1024486E+03  0.7561462E-02  0.1275229E+00
          1   -1    0    0  501    0  0.00000000000E+00  0.00000000000E+00  0.87542654212E+02  0.87542654212E+02  0.00000000000E+00 0. -1.
         -1   -1    0    0    0  501 -0.00000000000E+00 -0.00000000000E+00 -0.21737716165E+03  0.21737716165E+03  0.00000000000E+00 0.  1.
         25    2    1    2    0    0  0.57213386818E+02  0.56928427396E+02 -0.41256804519E+02  0.15447676942E+03  0.12508689338E+03 0.  0.
         23    2    1    2    0    0 -0.57213386818E+02 -0.56928427396E+02 -0.88577702915E+02  0.15044304644E+03  0.90955391762E+02 0.  0.
          5    1    3    3  502    0  0.55545308432E+02  0.48821580289E+02 -0.83273839168E+02  0.11144878950E+03  0.41800000000E+01 0. -1.
         -5    1    3    3    0  502  0.16680783856E+01  0.81068471065E+01  0.42017034649E+02  0.43027979922E+02  0.41800000000E+01 0. -1.
        -11    1    4    4    0    0 -0.78937722612E+02 -0.24743666448E+02 -0.58322930845E+02  0.10121747548E+03  0.00000000000E+00 0. -1.
         11    1    4    4    0    0  0.21724335794E+02 -0.32184760948E+02 -0.30254772070E+02  0.49225570956E+02  0.00000000000E+00 0.  1.
</event>
<event>
 8    1  0.6689467E-009  0.1049785E+03  0.7561462E-02  0.1270162E+00
         -2   -1    0    0    0  501 -0.00000000000E+00  0.00000000000E+00  0.12587941499E+03  0.12587941499E+03  0.00000000000E+00 0.  1.
          2   -1    0    0  501    0  0.00000000000E+00 -0.00000000000E+00 -0.10696668352E+03  0.10696668352E+03  0.00000000000E+00 0. -1.
         25    2    1    2    0    0  0.18684636670E+00 -0.18438109674E+02  0.48662259050E+02  0.13548845173E+03  0.12509638802E+03 0.  0.
         23    2    1    2    0    0 -0.18684636670E+00  0.18438109674E+02 -0.29749527580E+02  0.97357646780E+02  0.90848655441E+02 0.  0.
          5    1    3    3  502    0  0.60842704288E+02 -0.22921197018E+02  0.30037655726E+02  0.71742240690E+02  0.41800000000E+01 0.  1.
         -5    1    3    3    0  502 -0.60655857921E+02  0.44830873436E+01  0.18624603324E+02  0.63746211035E+02  0.41800000000E+01 0.  1.
        -11    1    4    4    0    0 -0.14605354415E+02 -0.29965543583E+02  0.80258382174E+01  0.34287960844E+02  0.00000000000E+00 0.  1.
         11    1    4    4    0    0  0.14418508048E+02  0.48403653257E+02 -0.37775365798E+02  0.63069685936E+02  0.00000000000E+00 0. -1.
</event>
<event>
 8    1  0.6689467E-009  0.1643978E+03  0.7561462E-02  0.1183819E+00
          2   -1    0    0  501    0  0.00000000000E+00  0.00000000000E+00  0.84867134597E+03  0.84867134597E+03  0.00000000000E+00 0.  1.
         -2   -1    0    0    0  501 -0.00000000000E+00 -0.00000000000E+00 -0.42317381834E+02  0.42317381834E+02  0.00000000000E+00 0. -1.
         25    2    1    2    0    0 -0.14991737363E+03 -0.39325176968E+01  0.51852011088E+03  0.55407676611E+03  0.12508906324E+03 0.  0.
         23    2    1    2    0    0  0.14991737363E+03  0.39325176968E+01  0.28783385325E+03  0.33691196169E+03  0.90391698975E+02 0.  0.
          5    1    3    3  502    0 -0.51691725070E+02  0.17116061327E+02  0.37433729696E+03  0.37829998452E+03  0.41800000000E+01 0.  1.
         -5    1    3    3    0  502 -0.98225648558E+02 -0.21048579024E+02  0.14418281392E+03  0.17577678158E+03  0.41800000000E+01 0.  1.
        -11    1    4    4    0    0  0.38618897499E+02 -0.38497073133E+02  0.71083927854E+02  0.89590003254E+02  0.00000000000E+00 0. -1.
         11    1    4    4    0    0  0.11129847613E+03  0.42429590830E+02  0.21674992540E+03  0.24732195844E+03  0.00000000000E+00 0.  1.
</event>
<event>
 8    1  0.6689467E-009  0.1026852E+03  0.7561462E-02  0.1274749E+00
          1   -1    0    0  501    0  0.00000000000E+00  0.00000000000E+00  0.34129588230E+03  0.34129588230E+03  0.00000000000E+00 0. -1.
         -1   -1    0    0    0  501 -0.00000000000E+00 -0.00000000000E+00 -0.37242507917E+02  0.37242507917E+02  0.00000000000E+00 0.  1.
         25    2    1    2    0    0 -0.13668945175E+02  0.16451567061E+02  0.12866336848E+03  0.18071973646E+03  0.12509143311E+03 0.  0.
         23    2    1    2    0    0  0.13668945175E+02 -0.16451567061E+02  0.17539000590E+03  0.19781865376E+03  0.88955446617E+02 0.  0.
          5    1    3    3  502    0  0.27609536279E+02 -0.44819109148E+02  0.49991909055E+02  0.72716589643E+02  0.41800000000E+01 0.  1.
         -5    1    3    3    0  502 -0.41278481454E+02  0.61270676209E+02  0.78671459428E+02  0.10800314682E+03  0.41800000000E+01 0.  1.
        -11    1    4    4    0    0 -0.16673086131E+02  0.23242951695E+02  0.20834043133E+02  0.35387624361E+02  0.00000000000E+00 0.  1.
         11    1    4    4    0    0  0.30342031306E+02 -0.39694518757E+02  0.15455596277E+03  0.16243102940E+03  0.00000000000E+00 0. -1.
</event>
<event>
 8    1  0.6689467E-009  0.1344078E+03  0.7561462E-02  0.1221058E+00
          1   -1    0    0  501    0  0.00000000000E+00  0.00000000000E+00  0.62590489570E+03  0.62590489570E+03  0.00000000000E+00 0. -1.
         -1   -1    0    0    0  501 -0.00000000000E+00 -0.00000000000E+00 -0.47291312802E+02  0.47291312802E+02  0.00000000000E+00 0.  1.
         25    2    1    2    0    0  0.11453812475E+03  0.31424349374E+02  0.18796730013E+03  0.25511694928E+03  0.12508589105E+03 0.  0.
         23    2    1    2    0    0 -0.11453812475E+03 -0.31424349374E+02  0.39064628277E+03  0.41807925922E+03  0.89884798450E+02 0.  0.
          5    1    3    3  502    0  0.13324590074E+02  0.12355110645E+02  0.14032865648E+03  0.14156199239E+03  0.41800000000E+01 0. -1.
         -5    1    3    3    0  502  0.10121353467E+03  0.19069238729E+02  0.47638643649E+02  0.11355495690E+03  0.41800000000E+01 0. -1.
        -11    1    4    4    0    0 -0.11805108254E+03 -0.26274809285E+01  0.33704961879E+03  0.35713499867E+03  0.00000000000E+00 0. -1.
         11    1    4    4    0    0  0.35129577908E+01 -0.28796868445E+02  0.53596663979E+02  0.60944260553E+02  0.00000000000E+00 0.  1.
</event>
<event>
 8    1  0.6689467E-009  0.1038950E+03  0.7561462E-02  0.1272312E+00
          1   -1    0    0  501    0  0.00000000000E+00  0.00000000000E+00  0.59590551810E+03  0.59590551810E+03  0.00000000000E+00 0. -1.
         -1   -1    0    0    0  501 -0.00000000000E+00 -0.00000000000E+00 -0.27345114502E+02  0.27345114502E+02  0.00000000000E+00 0.  1.
         25    2    1    2    0    0 -0.36631752791E+02 -0.48026259770E+02  0.39258485930E+03  0.41643628932E+03  0.12509158394E+03 0.  0.
         23    2    1    2    0    0  0.36631752791E+02  0.48026259770E+02  0.17597554429E+03  0.20681434327E+03  0.90312642832E+02 0.  0.
          5    1    3    3  502    0 -0.72836954930E+02 -0.41834803575E+02  0.15830471992E+03  0.17925743929E+03  0.41800000000E+01 0.  1.
         -5    1    3    3    0  502  0.36205202138E+02 -0.61914561952E+01  0.23428013938E+03  0.23717885003E+03  0.41800000000E+01 0.  1.
        -11    1    4    4    0    0  0.18921923119E+02  0.61579433578E+02  0.57790469172E+02  0.86543654541E+02  0.00000000000E+00 0.  1.
         11    1    4    4    0    0  0.17709829672E+02 -0.13553173808E+02  0.11818507512E+03  0.12027068873E+03  0.00000000000E+00 0. -1.
</event>
<event>
 8    1  0.6689467E-009  0.6992389E+02  0.7561462E-02  0.1360352E+00
         -2   -1    0    0    0  501 -0.00000000000E+00  0.00000000000E+00  0.44915392909E+02  0.44915392909E+02  0.00000000000E+00 0.  1.
          2   -1    0    0  501    0  0.00000000000E+00 -0.00000000000E+00 -0.31857823525E+03  0.31857823525E+03  0.00000000000E+00 0. -1.
         25    2    1    2    0    0  0.48401734455E+02  0.15652640440E+02 -0.16588579463E+03  0.21389345544E+03  0.12507829695E+03 0.  0.
         23    2    1    2    0    0 -0.48401734455E+02 -0.15652640440E+02 -0.10777704771E+03  0.14960017272E+03  0.90424480169E+02 0.  0.
          5    1    3    3  502    0  0.10934969829E+02 -0.11772538400E+02  0.17825337039E+02  0.24359418427E+02  0.41800000000E+01 0.  1.
         -5    1    3    3    0  502  0.37466764626E+02  0.27425178840E+02 -0.18371113167E+03  0.18953403701E+03  0.41800000000E+01 0.  1.
        -11    1    4    4    0    0 -0.15671447736E+02 -0.35180307876E+02 -0.36125924715E+01  0.38682026327E+02  0.00000000000E+00 0.  1.
         11    1    4    4    0    0 -0.32730286719E+02  0.19527667437E+02 -0.10416445524E+03  0.11091814639E+03  0.00000000000E+00 0. -1.
</event>
<event>
 8    1  0.6689467E-009  0.9540825E+02  0.7561462E-02  0.1290259E+00
         -1   -1    0    0    0  501 -0.00000000000E+00  0.00000000000E+00  0.60976385565E+03  0.60976385565E+03  0.00000000000E+00 0. -1.
          1   -1    0    0  501    0  0.00000000000E+00 -0.00000000000E+00 -0.21583931776E+02  0.21583931776E+02  0.00000000000E+00 0.  1.
         25    2    1    2    0    0 -0.27916215562E+02 -0.13633914516E+02  0.39183878821E+03  0.41249350307E+03  0.12509218766E+03 0.  0.
         23    2    1    2    0    0  0.27916215562E+02  0.13633914516E+02  0.19634113567E+03  0.21885428436E+03  0.91554123392E+02 0.  0.
          5    1    3    3  502    0  0.16872433873E+02 -0.50148007374E+02  0.84828924125E+02  0.10006458133E+03  0.41800000000E+01 0. -1.
         -5    1    3    3    0  502 -0.44788649435E+02  0.36514092858E+02  0.30700986409E+03  0.31242892175E+03  0.41800000000E+01 0. -1.
        -11    1    4    4    0    0  0.47135137487E+02  0.28873677814E+02  0.65376079948E+02  0.85612162020E+02  0.00000000000E+00 0.  1.
         11    1    4    4    0    0 -0.19218921925E+02 -0.15239763298E+02  0.13096505572E+03  0.13324212234E+03  0.00000000000E+00 0. -1.
</event>
<event>
 8    1  0.6689467E-009  0.1349977E+03  0.7561462E-02  0.1220223E+00
         -2   -1    0    0    0  501 -0.00000000000E+00  0.00000000000E+00  0.24251993084E+02  0.24251993084E+02  0.00000000000E+00 0.  1.
          2   -1    0    0  501    0  0.00000000000E+00 -0.00000000000E+00 -0.10596541910E+04  0.10596541910E+04  0.00000000000E+00 0. -1.
         25    2    1    2    0    0  0.95415717711E+02  0.68432082275E+02 -0.57212195962E+03  0.59729244207E+03  0.12509042970E+03 0.  0.
         23    2    1    2    0    0 -0.95415717711E+02 -0.68432082275E+02 -0.46328023833E+03  0.48661374204E+03  0.91527294576E+02 0.  0.
          5    1    3    3  502    0  0.80866258002E+02 -0.13137898648E+01 -0.43739725320E+03  0.44483132448E+03  0.41800000000E+01 0. -1.
         -5    1    3    3    0  502  0.14549459709E+02  0.69745872140E+02 -0.13472470642E+03  0.15246111759E+03  0.41800000000E+01 0. -1.
        -11    1    4    4    0    0 -0.78179382001E+02 -0.52520798010E+02 -0.44980832767E+03  0.45956281577E+03  0.00000000000E+00 0. -1.
         11    1    4    4    0    0 -0.17236335711E+02 -0.15911284265E+02 -0.13471910651E+02  0.27050926274E+02  0.00000000000E+00 0.  1.
</event>
<event>
 8    1  0.6689467E-009  0.7810451E+02  0.7561462E-02  0.1334518E+00
         -4   -1    0    0    0  501 -0.00000000000E+00  0.00000000000E+00  0.28494658617E+03  0.28494658617E+03  0.00000000000E+00 0. -1.
          4   -1    0    0  501    0  0.00000000000E+00 -0.00000000000E+00 -0.52492184409E+02  0.52492184409E+02  0.00000000000E+00 0.  1.
         25    2    1    2    0    0 -0.31268325804E+02  0.39366503664E+02  0.16629956737E+03  0.21407973246E+03  0.12508859233E+03 0.  0.
         23    2    1    2    0    0  0.31268325804E+02 -0.39366503664E+02  0.66154834387E+02  0.12335903812E+03  0.91178727582E+02 0.  0.
          5    1    3    3  502    0 -0.42726481835E+02  0.97676337187E+01 -0.70624035452E+00  0.44033283933E+02  0.41800000000E+01 0.  1.
         -5    1    3    3    0  502  0.11458156031E+02  0.29598869946E+02  0.16700580773E+03  0.17004644853E+03  0.41800000000E+01 0.  1.
        -11    1    4    4    0    0  0.37400415015E+02  0.28496785931E+01  0.71126830108E+02  0.80411054418E+02  0.00000000000E+00 0. -1.
         11    1    4    4    0    0 -0.61320892118E+01 -0.42216182257E+02 -0.49719957213E+01  0.42947983700E+02  0.00000000000E+00 0.  1.
</event>
<event>
 8    1  0.6689467E-009  0.1195435E+03  0.7561462E-02  0.1243852E+00
         -2   -1    0    0    0  501 -0.00000000000E+00  0.00000000000E+00  0.40787999270E+02  0.40787999270E+02  0.00000000000E+00 0.  1.
          2   -1    0    0  501    0  0.00000000000E+00 -0.00000000000E+00 -0.67360011837E+03  0.67360011837E+03  0.00000000000E+00 0. -1.
         25    2    1    2    0    0  0.58865505724E+02  0.48501148537E+02 -0.55170558307E+03  0.57082849500E+03  0.12509440890E+03 0.  0.
         23    2    1    2    0    0 -0.58865505724E+02 -0.48501148537E+02 -0.81106536024E+02  0.14355962264E+03  0.90628835874E+02 0.  0.
          5    1    3    3  502    0  0.64598778715E+02  0.78166323291E+02 -0.28789631702E+03  0.30526175335E+03  0.41800000000E+01 0. -1.
         -5    1    3    3    0  502 -0.57332729910E+01 -0.29665174753E+02 -0.26380926606E+03  0.26556674165E+03  0.41800000000E+01 0. -1.
        -11    1    4    4    0    0  0.17966823241E+02 -0.14438531121E+02 -0.47966863572E+02  0.53217458782E+02  0.00000000000E+00 0. -1.
         11    1    4    4    0    0 -0.76832328966E+02 -0.34062617416E+02 -0.33139672452E+02  0.90342163854E+02  0.00000000000E+00 0.  1.
</event>
<event>
 8    1  0.6689467E-009  0.9091680E+02  0.7561462E-02  0.1300647E+00
          2   -1    0    0  501    0  0.00000000000E+00  0.00000000000E+00  0.92717506744E+02  0.92717506744E+02  0.00000000000E+00 0. -1.
         -2   -1    0    0    0  501 -0.00000000000E+00 -0.00000000000E+00 -0.17758507316E+03  0.17758507316E+03  0.00000000000E+00 0.  1.
         25    2    1    2    0    0  0.38117726874E+02 -0.38908513912E+02 -0.90711657761E+02  0.16384069414E+03  0.12509330376E+03 0.  0.
         23    2    1    2    0    0 -0.38117726874E+02  0.38908513912E+02  0.58440913485E+01  0.10646188576E+03  0.91286067720E+02 0.  0.
          5    1    3    3  502    0  0.84010484520E+01  0.13185011232E+02 -0.10148230349E+03  0.10276454865E+03  0.41800000000E+01 0. -1.
         -5    1    3    3    0  502  0.29716678422E+02 -0.52093525143E+02  0.10770645734E+02  0.61076145489E+02  0.41800000000E+01 0. -1.
        -11    1    4    4    0    0 -0.88808383812E+01  0.65446645421E+02 -0.25451747905E+01  0.66095465820E+02  0.00000000000E+00 0.  1.
         11    1    4    4    0    0 -0.29236888493E+02 -0.26538131509E+02  0.83892661391E+01  0.40366419944E+02  0.00000000000E+00 0. -1.
</event>
<event>
 8    1  0.6689467E-009  0.1761457E+03  0.7561462E-02  0.1171586E+00
          1   -1    0    0  501    0  0.00000000000E+00  0.00000000000E+00  0.22103794506E+04  0.22103794506E+04  0.00000000000E+00 0. -1.
         -1   -1    0    0    0  501 -0.00000000000E+00 -0.00000000000E+00 -0.26253429825E+02  0.26253429825E+02  0.00000000000E+00 0.  1.
         25    2    1    2    0    0 -0.15872245781E+03  0.41558664051E+02  0.17641994706E+04  0.17762227414E+04  0.12509002313E+03 0.  0.
         23    2    1    2    0    0  0.15872245781E+03 -0.41558664051E+02  0.41992655021E+03  0.46041013904E+03  0.93376910383E+02 0.  0.
          5    1    3    3  502    0 -0.15260176701E+03  0.56364772017E+02  0.11150491347E+04  0.11268612746E+04  0.41800000000E+01 0.  1.
         -5    1    3    3    0  502 -0.61206907936E+01 -0.14806107966E+02  0.64915033587E+03  0.64936146686E+03  0.41800000000E+01 0.  1.
        -11    1    4    4    0    0  0.10935795073E+03 -0.14025033173E+01  0.34597122618E+03  0.36284599729E+03  0.00000000000E+00 0. -1.
         11    1    4    4    0    0  0.49364507080E+02 -0.40156160734E+02  0.73955324026E+02  0.97564141752E+02  0.00000000000E+00 0.  1.
</event>
<event>
 8    1  0.6689467E-009  0.1027764E+03  0.7561462E-02  0.1274564E+00
         -2   -1    0    0    0  501 -0.00000000000E+00  0.00000000000E+00  0.14837742636E+02  0.14837742636E+02  0.00000000000E+00 0.  1.
          2   -1    0    0  501    0  0.00000000000E+00 -0.00000000000E+00 -0.79714315660E+03  0.79714315660E+03  0.00000000000E+00 0. -1.
         25    2    1    2    0    0 -0.76668037353E+01  0.40421865318E+01 -0.52908081841E+03  0.54373652414E+03  0.12509107131E+03 0.  0.
         23    2    1    2    0    0  0.76668037353E+01 -0.40421865318E+01 -0.25322459556E+03  0.26824437510E+03  0.88075137390E+02 0.  0.
          5    1    3    3  502    0 -0.71330276482E+00 -0.56897578671E+02 -0.16709713870E+03  0.17656944645E+03  0.41800000000E+01 0. -1.
         -5    1    3    3    0  502 -0.69535009705E+01  0.60939765202E+02 -0.36198367971E+03  0.36716707769E+03  0.41800000000E+01 0. -1.
        -11    1    4    4    0    0  0.75776663660E+01  0.41142816235E+02 -0.14631311587E+03  0.15217647726E+03  0.00000000000E+00 0.  1.
         11    1    4    4    0    0  0.89137369342E-01 -0.45185002766E+02 -0.10691147969E+03  0.11606789784E+03  0.00000000000E+00 0. -1.
</event>
<event>
 8    1  0.6689467E-009  0.1531694E+03  0.7561462E-02  0.1196632E+00
         -2   -1    0    0    0  501 -0.00000000000E+00  0.00000000000E+00  0.14563127256E+02  0.14563127256E+02  0.00000000000E+00 0.  1.
          2   -1    0    0  501    0  0.00000000000E+00 -0.00000000000E+00 -0.23097078380E+04  0.23097078380E+04  0.00000000000E+00 0. -1.
         25    2    1    2    0    0 -0.12577386061E+03 -0.14884921788E+02 -0.17136917400E+04  0.17229126171E+04  0.12509149301E+03 0.  0.
         23    2    1    2    0    0  0.12577386061E+03  0.14884921788E+02 -0.58145297072E+03  0.60135834810E+03  0.86623788650E+02 0.  0.
          5    1    3    3  502    0 -0.12836705761E+03  0.26323579701E+02 -0.10929840963E+04  0.11008191220E+04  0.41800000000E+01 0.  1.
         -5    1    3    3    0  502  0.25931969983E+01 -0.41208501489E+02 -0.62070764373E+03  0.62209349510E+03  0.41800000000E+01 0.  1.
        -11    1    4    4    0    0  0.89604870034E+02  0.30055260791E+02 -0.51954750638E+03  0.52807382327E+03  0.00000000000E+00 0. -1.
         11    1    4    4    0    0  0.36168990573E+02 -0.15170339003E+02 -0.61905464342E+02  0.73284524833E+02  0.00000000000E+00 0.  1.
</event>
<event>
 8    1  0.6689467E-009  0.8343297E+02  0.7561462E-02  0.1319582E+00
         -1   -1    0    0    0  501 -0.00000000000E+00  0.00000000000E+00  0.96042577332E+02  0.96042577332E+02  0.00000000000E+00 0.  1.
          1   -1    0    0  501    0  0.00000000000E+00 -0.00000000000E+00 -0.14889374917E+03  0.14889374917E+03  0.00000000000E+00 0. -1.
         25    2    1    2    0    0  0.17483112871E+02  0.46157681178E+02 -0.71703019696E+01  0.13466041724E+03  0.12508326815E+03 0.  0.
         23    2    1    2    0    0 -0.17483112871E+02 -0.46157681178E+02 -0.45680869867E+02  0.11027590926E+03  0.87394756850E+02 0.  0.
          5    1    3    3  502    0  0.48563817571E+01 -0.20125651596E+02  0.44707056993E+02  0.49445117463E+02  0.41800000000E+01 0. -1.
         -5    1    3    3    0  502  0.12626731114E+02  0.66283332775E+02 -0.51877358963E+02  0.85215299772E+02  0.41800000000E+01 0. -1.
        -11    1    4    4    0    0 -0.39045827369E+02 -0.39576324624E+02 -0.61371122189E+02  0.82808675538E+02  0.00000000000E+00 0. -1.
         11    1    4    4    0    0  0.21562714498E+02 -0.65813565546E+01  0.15690252322E+02  0.27467233726E+02  0.00000000000E+00 0.  1.
</event>
<event>
 8    1  0.6689467E-009  0.1141807E+03  0.7561462E-02  0.1253018E+00
         -1   -1    0    0    0  501 -0.00000000000E+00  0.00000000000E+00  0.10587994732E+03  0.10587994732E+03  0.00000000000E+00 0.  1.
          1   -1    0    0  501    0  0.00000000000E+00 -0.00000000000E+00 -0.18254866355E+03  0.18254866355E+03  0.00000000000E+00 0. -1.
         25    2    1    2    0    0 -0.59839055228E+02  0.62975711477E+02 -0.44175866069E+02  0.15857666892E+03  0.12509356505E+03 0.  0.
         23    2    1    2    0    0  0.59839055228E+02 -0.62975711477E+02 -0.32492850164E+02  0.12985194194E+03  0.90879528762E+02 0.  0.
          5    1    3    3  502    0 -0.66796332741E+02  0.34794041617E+02  0.28164521033E+02  0.80517625677E+02  0.41800000000E+01 0. -1.
         -5    1    3    3    0  502  0.69572775129E+01  0.28181669860E+02 -0.72340387102E+02  0.78059043246E+02  0.41800000000E+01 0. -1.
        -11    1    4    4    0    0  0.69499042192E+02 -0.78796296940E+02 -0.35848753548E+02  0.11101399195E+03  0.00000000000E+00 0. -1.
         11    1    4    4    0    0 -0.96599869642E+01  0.15820585462E+02  0.33559033846E+01  0.18837949996E+02  0.00000000000E+00 0.  1.
</event>
<event>
 8    1  0.6689467E-009  0.1192395E+03  0.7561462E-02  0.1244357E+00
          2   -1    0    0  501    0  0.00000000000E+00  0.00000000000E+00  0.59755583158E+03  0.59755583158E+03  0.00000000000E+00 0. -1.
         -2   -1    0    0    0  501 -0.00000000000E+00 -0.00000000000E+00 -0.38864503883E+02  0.38864503883E+02  0.00000000000E+00 0.  1.
         25    2    1    2    0    0  0.51448494195E+02 -0.78816937252E+02  0.40549159213E+03  0.43466058030E+03  0.12508929462E+03 0.  0.
         23    2    1    2    0    0 -0.51448494195E+02  0.78816937252E+02  0.15319973557E+03  0.20175975516E+03  0.91530228185E+02 0.  0.
          5    1    3    3  502    0  0.75462357119E+00 -0.54922079739E+02  0.35456868690E+03  0.35882228251E+03  0.41800000000E+01 0. -1.
         -5    1    3    3    0  502  0.50693870623E+02 -0.23894857513E+02  0.50922905229E+02  0.75838297787E+02  0.41800000000E+01 0. -1.
        -11    1    4    4    0    0 -0.10576092352E+01 -0.18009317671E+02  0.43096881099E+02  0.46720394056E+02  0.00000000000E+00 0. -1.
         11    1    4    4    0    0 -0.50390884959E+02  0.96826254924E+02  0.11010285447E+03  0.15503936111E+03  0.00000000000E+00 0.  1.
</event>
<event>
 8    1  0.6689467E-009  0.7105300E+02  0.7561462E-02  0.1356548E+00
          1   -1    0    0  501    0  0.00000000000E+00  0.00000000000E+00  0.22552780295E+03  0.22552780295E+03  0.00000000000E+00 0. -1.
         -1   -1    0    0    0  501 -0.00000000000E+00 -0.00000000000E+00 -0.62057232141E+02  0.62057232141E+02  0.00000000000E+00 0.  1.
         25    2    1    2    0    0 -0.19822572299E+02 -0.39857265758E+02  0.11579288057E+03  0.17617346536E+03  0.12509021824E+03 0.  0.
         23    2    1    2    0    0  0.19822572299E+02  0.39857265758E+02  0.47677690235E+02  0.11141156973E+03  0.90320760164E+02 0.  0.
          5    1    3    3  502    0 -0.23907151637E+02  0.19965431352E+02  0.11157691614E+03  0.11591829435E+03  0.41800000000E+01 0. -1.
         -5    1    3    3    0  502  0.40845793376E+01 -0.59822697110E+02  0.42159644278E+01  0.60255171014E+02  0.41800000000E+01 0. -1.
        -11    1    4    4    0    0 -0.10918909755E+00  0.26674758916E+02 -0.23983195592E+02  0.35871274807E+02  0.00000000000E+00 0.  1.
         11    1    4    4    0    0  0.19931761397E+02  0.13182506843E+02  0.71660885827E+02  0.75540294920E+02  0.00000000000E+00 0. -1.
</event>
<event>
 8    1  0.6689467E-009  0.5983675E+02  0.7561462E-02  0.1398518E+00
          2   -1    0    0  501    0  0.00000000000E+00  0.00000000000E+00  0.46223447871E+02  0.46223447871E+02  0.00000000000E+00 0. -1.
         -2   -1    0    0    0  501 -0.00000000000E+00 -0.00000000000E+00 -0.27308572949E+03  0.27308572949E+03  0.00000000000E+00 0.  1.
         25    2    1    2    0    0 -0.29898706100E+02 -0.83764024396E+01 -0.16159300907E+03  0.20669781581E+03  0.12509032630E+03 0.  0.
         23    2    1    2    0    0  0.29898706100E+02  0.83764024396E+01 -0.65269272541E+02  0.11261136155E+03  0.86354757066E+02 0.  0.
          5    1    3    3  502    0 -0.30201195744E+02  0.27600657390E+02 -0.16525240205E+03  0.17029309234E+03  0.41800000000E+01 0. -1.
         -5    1    3    3    0  502  0.30248964380E+00 -0.35977059830E+02  0.36593929803E+01  0.36404723471E+02  0.41800000000E+01 0. -1.
        -11    1    4    4    0    0  0.67046929358E+01 -0.10475699023E+02  0.19274849963E+02  0.22939333436E+02  0.00000000000E+00 0. -1.
         11    1    4    4    0    0  0.23194013164E+02  0.18852101463E+02 -0.84544122504E+02  0.89672028115E+02  0.00000000000E+00 0.  1.
</event>
<event>
 8    1  0.6689467E-009  0.9042616E+02  0.7561462E-02  0.1301823E+00
          2   -1    0    0  501    0  0.00000000000E+00  0.00000000000E+00  0.35126137832E+03  0.35126137832E+03  0.00000000000E+00 0. -1.
         -2   -1    0    0    0  501 -0.00000000000E+00 -0.00000000000E+00 -0.48182884196E+02  0.48182884196E+02  0.00000000000E+00 0.  1.
         25    2    1    2    0    0 -0.30165885071E+02  0.61690506724E+02  0.20142299151E+03  0.24684841026E+03  0.12508883603E+03 0.  0.
         23    2    1    2    0    0  0.30165885071E+02 -0.61690506724E+02  0.10165550261E+03  0.15259585225E+03  0.90752155183E+02 0.  0.
          5    1    3    3  502    0 -0.33632888442E+02  0.58647941800E+02  0.27970408613E+02  0.73284162139E+02  0.41800000000E+01 0.  1.
         -5    1    3    3    0  502  0.34670033711E+01  0.30425649235E+01  0.17345258290E+03  0.17356424813E+03  0.41800000000E+01 0.  1.
        -11    1    4    4    0    0  0.28899152527E+01 -0.76023505542E+02  0.45787578484E+02  0.88794297950E+02  0.00000000000E+00 0.  1.
         11    1    4    4    0    0  0.27275969818E+02  0.14332998818E+02  0.55867924126E+02  0.63801554297E+02  0.00000000000E+00 0. -1.
</event>
<event>
 8    1  0.6689467E-009  0.1053371E+03  0.7561462E-02  0.1269457E+00
         -3   -1    0    0    0  501 -0.00000000000E+00  0.00000000000E+00  0.41819105711E+03  0.41819105711E+03  0.00000000000E+00 0.  1.
          3   -1    0    0  501    0  0.00000000000E+00 -0.00000000000E+00 -0.61221604883E+02  0.61221604883E+02  0.00000000000E+00 0. -1.
         25    2    1    2    0    0 -0.96299470480E+02  0.95142380096E+01  0.29130971376E+03  0.33147404188E+03  0.12509829083E+03 0.  0.
         23    2    1    2    0    0  0.96299470480E+02 -0.95142380096E+01  0.65659738466E+02  0.14793862012E+03  0.90611949140E+02 0.  0.
          5    1    3    3  502    0 -0.45922679076E+02 -0.13459848317E+02  0.16015860015E+02  0.50636351985E+02  0.41800000000E+01 0. -1.
         -5    1    3    3    0  502 -0.50376791403E+02  0.22974086327E+02  0.27529385375E+03  0.28083768990E+03  0.41800000000E+01 0. -1.
        -11    1    4    4    0    0  0.63652724040E+02 -0.28062134922E+02  0.81530470644E+02  0.10717448548E+03  0.00000000000E+00 0.  1.
         11    1    4    4    0    0  0.32646746440E+02  0.18547896913E+02 -0.15870732177E+02  0.40764134638E+02  0.00000000000E+00 0. -1.
</event>
<event>
 8    1  0.6689467E-009  0.1065285E+03  0.7561462E-02  0.1267137E+00
         -1   -1    0    0    0  501 -0.00000000000E+00  0.00000000000E+00  0.33694807655E+03  0.33694807655E+03  0.00000000000E+00 0.  1.
          1   -1    0    0  501    0  0.00000000000E+00 -0.00000000000E+00 -0.50278897811E+02  0.50278897811E+02  0.00000000000E+00 0. -1.
         25    2    1    2    0    0 -0.15548884704E+02  0.63233738225E+02  0.19595913657E+03  0.24142851221E+03  0.12508984706E+03 0.  0.
         23    2    1    2    0    0  0.15548884704E+02 -0.63233738225E+02  0.90710042171E+02  0.14579846215E+03  0.93747567164E+02 0.  0.
          5    1    3    3  502    0 -0.49275855374E+02 -0.90567367203E+01  0.12443018222E+03  0.13420311863E+03  0.41800000000E+01 0.  1.
         -5    1    3    3    0  502  0.33726970670E+02  0.72290474946E+02  0.71528954347E+02  0.10722539358E+03  0.41800000000E+01 0.  1.
        -11    1    4    4    0    0  0.33019031249E+02 -0.53591369778E+02  0.10418220414E+03  0.12172190846E+03  0.00000000000E+00 0.  1.
         11    1    4    4    0    0 -0.17470146545E+02 -0.96423684474E+01 -0.13472161969E+02  0.24076553692E+02  0.00000000000E+00 0. -1.
</event>
<event>
 8    1  0.6689467E-009  0.9568522E+02  0.7561462E-02  0.1289640E+00
          2   -1    0    0  501    0  0.00000000000E+00  0.00000000000E+00  0.20874490214E+03  0.20874490214E+03  0.00000000000E+00 0. -1.
         -2   -1    0    0    0  501 -0.00000000000E+00 -0.00000000000E+00 -0.83637219215E+02  0.83637219215E+02  0.00000000000E+00 0.  1.
         25    2    1    2    0    0  0.65990723167E+02 -0.26601410448E+02  0.96349114268E+02  0.17318426146E+03  0.12508887247E+03 0.  0.
         23    2    1    2    0    0 -0.65990723167E+02  0.26601410448E+02  0.28758568660E+02  0.11919785989E+03  0.91206710004E+02 0.  0.
          5    1    3    3  502    0  0.32080630188E+01 -0.10254424679E+02  0.10672942855E+03  0.10735030606E+03  0.41800000000E+01 0.  1.
         -5    1    3    3    0  502  0.62782660148E+02 -0.16346985769E+02 -0.10380314280E+02  0.65833955400E+02  0.41800000000E+01 0.  1.
        -11    1    4    4    0    0 -0.47837322491E+02 -0.29271949899E+02  0.68592072613E+01  0.56500488478E+02  0.00000000000E+00 0.  1.
         11    1    4    4    0    0 -0.18153400676E+02  0.55873360348E+02  0.21899361399E+02  0.62697371415E+02  0.00000000000E+00 0. -1.
</event>
<event>
 8    1  0.6689467E-009  0.1206799E+03  0.7561462E-02  0.1241980E+00
         -1   -1    0    0    0  501 -0.00000000000E+00  0.00000000000E+00  0.26282493302E+02  0.26282493302E+02  0.00000000000E+00 0.  1.
          1   -1    0    0  501    0  0.00000000000E+00 -0.00000000000E+00 -0.91299898487E+03  0.91299898487E+03  0.00000000000E+00 0. -1.
         25    2    1    2    0    0  0.36233083425E+02 -0.10096253955E+03 -0.39616593715E+03  0.42907059519E+03  0.12509138729E+03 0.  0.
         23    2    1    2    0    0 -0.36233083425E+02  0.10096253955E+03 -0.49055055442E+03  0.51021088298E+03  0.90382675035E+02 0.  0.
          5    1    3    3  502    0 -0.28097466238E+01 -0.50463622827E+01  0.86432153217E+01  0.11204375015E+02  0.41800000000E+01 0.  1.
         -5    1    3    3    0  502  0.39042830048E+02 -0.95916177263E+02 -0.40480915247E+03  0.41786622017E+03  0.41800000000E+01 0.  1.
        -11    1    4    4    0    0 -0.42336243008E+02  0.15771703101E+02 -0.90566051261E+02  0.10120925714E+03  0.00000000000E+00 0.  1.
         11    1    4    4    0    0  0.61031595838E+01  0.85190836444E+02 -0.39998450316E+03  0.40900162584E+03  0.00000000000E+00 0. -1.
</event>
<event>
 8    1  0.6689467E-009  0.1276657E+03  0.7561462E-02  0.1230961E+00
          3   -1    0    0  501    0  0.00000000000E+00  0.00000000000E+00  0.57125327117E+03  0.57125327117E+03  0.00000000000E+00 0. -1.
         -3   -1    0    0    0  501 -0.00000000000E+00 -0.00000000000E+00 -0.40718798675E+02  0.40718798675E+02  0.00000000000E+00 0.  1.
         25    2    1    2    0    0 -0.41778382813E+02  0.95268002469E+02  0.24028864593E+03  0.29018498538E+03  0.12508903553E+03 0.  0.
         23    2    1    2    0    0  0.41778382813E+02 -0.95268002469E+02  0.29024582656E+03  0.32178708447E+03  0.92102455604E+02 0.  0.
          5    1    3    3  502    0 -0.39295965161E+02  0.10877054789E+03  0.24815956974E+03  0.27381718248E+03  0.41800000000E+01 0.  1.
         -5    1    3    3    0  502 -0.24824176523E+01 -0.13502545422E+02 -0.78709238046E+01  0.16367802902E+02  0.41800000000E+01 0.  1.
        -11    1    4    4    0    0  0.48205012951E+02 -0.10387309338E+03  0.28913930461E+03  0.31099016105E+03  0.00000000000E+00 0. -1.
         11    1    4    4    0    0 -0.64266301376E+01  0.86050909062E+01  0.11065219539E+01  0.10796923417E+02  0.00000000000E+00 0.  1.
</event>
<event>
 8    1  0.6689467E-009  0.1296730E+03  0.7561462E-02  0.1227942E+00
          1   -1    0    0  501    0  0.00000000000E+00  0.00000000000E+00  0.53817264074E+03  0.53817264074E+03  0.00000000000E+00 0. -1.
         -1   -1    0    0    0  501 -0.00000000000E+00 -0.00000000000E+00 -0.33480187017E+02  0.33480187017E+02  0.00000000000E+00 0.  1.
         25    2    1    2    0    0 -0.53435366349E+02  0.54362017509E+02  0.32067363432E+03  0.35254750970E+03  0.12509036544E+03 0.  0.
         23    2    1    2    0    0  0.53435366349E+02 -0.54362017509E+02  0.18401881940E+03  0.21910531805E+03  0.91288811910E+02 0.  0.
          5    1    3    3  502    0  0.39912940895E+02  0.99214772178E+01  0.11718015036E+03  0.12425835425E+03  0.41800000000E+01 0.  1.
         -5    1    3    3    0  502 -0.93348307244E+02  0.44440540291E+02  0.20349348395E+03  0.22828915545E+03  0.41800000000E+01 0.  1.
        -11    1    4    4    0    0  0.67638161109E+02 -0.67232313270E+02  0.17143717520E+03  0.19617800546E+03  0.00000000000E+00 0.  1.
         11    1    4    4    0    0 -0.14202794759E+02  0.12870295761E+02  0.12581644209E+02  0.22927312598E+02  0.00000000000E+00 0. -1.
</event>
<event>
 8    1  0.6689467E-009  0.1643596E+03  0.7561462E-02  0.1183861E+00
          2   -1    0    0  501    0  0.00000000000E+00  0.00000000000E+00  0.43509421589E+03  0.43509421589E+03  0.00000000000E+00 0. -1.
         -2   -1    0    0    0  501 -0.00000000000E+00 -0.00000000000E+00 -0.10876775303E+03  0.10876775303E+03  0.00000000000E+00 0.  1.
         25    2    1    2    0    0  0.13787269058E+03 -0.35220855725E+02  0.15227234563E+02  0.19007554528E+03  0.12508979477E+03 0.  0.
         23    2    1    2    0    0 -0.13787269058E+03  0.35220855725E+02  0.31109922830E+03  0.35378642363E+03  0.90181573564E+02 0.  0.
          5    1    3    3  502    0  0.91986601906E+02  0.25255736153E+02  0.48489047186E+02  0.10708896879E+03  0.41800000000E+01 0. -1.
         -5    1    3    3    0  502  0.45886088678E+02 -0.60476591879E+02 -0.33261812623E+02  0.82986576495E+02  0.41800000000E+01 0. -1.
        -11    1    4    4    0    0 -0.12073161697E+03  0.53583375263E+02  0.29683949772E+03  0.32490150638E+03  0.00000000000E+00 0.  1.
         11    1    4    4    0    0 -0.17141073614E+02 -0.18362519538E+02  0.14259730578E+02  0.28884917251E+02  0.00000000000E+00 0. -1.
</event>
<event>
 8    1  0.6689467E-009  0.1387424E+03  0.7561462E-02  0.1215031E+00
         -2   -1    0    0    0  501 -0.00000000000E+00  0.00000000000E+00  0.15190844840E+02  0.15190844840E+02  0.00000000000E+00 0.  1.
          2   -1    0    0  501    0  0.00000000000E+00 -0.00000000000E+00 -0.13087091478E+04  0.13087091478E+04  0.00000000000E+00 0. -1.
         25    2    1    2    0    0 -0.66669884870E+02 -0.58922706800E+02 -0.75892648515E+03  0.77429559139E+03  0.12508994386E+03 0.  0.
         23    2    1    2    0    0  0.66669884870E+02  0.58922706800E+02 -0.53459181781E+03  0.54960440125E+03  0.91432091093E+02 0.  0.
          5    1    3    3  502    0 -0.18642834942E+01 -0.83135037087E+02 -0.37117848995E+03  0.38040222627E+03  0.41800000000E+01 0.  1.
         -5    1    3    3    0  502 -0.64805601376E+02  0.24212330287E+02 -0.38774799519E+03  0.39389336512E+03  0.41800000000E+01 0.  1.
        -11    1    4    4    0    0 -0.23305762694E+01 -0.19970706699E+02 -0.51766826176E+02  0.55534358772E+02  0.00000000000E+00 0.  1.
         11    1    4    4    0    0  0.69000461140E+02  0.78893413499E+02 -0.48282499163E+03  0.49407004248E+03  0.00000000000E+00 0. -1.
</event>
<event>
 8    1  0.6689467E-009  0.1296580E+03  0.7561462E-02  0.1227964E+00
          1   -1    0    0  501    0  0.00000000000E+00  0.00000000000E+00  0.75336653434E+03  0.75336653434E+03  0.00000000000E+00 0. -1.
         -1   -1    0    0    0  501 -0.00000000000E+00 -0.00000000000E+00 -0.25553134960E+02  0.25553134960E+02  0.00000000000E+00 0.  1.
         25    2    1    2    0    0 -0.77290155009E+02 -0.37990301611E+02  0.41756216779E+03  0.44432292718E+03  0.12509064143E+03 0.  0.
         23    2    1    2    0    0  0.77290155009E+02  0.37990301611E+02  0.31025123160E+03  0.33459674212E+03  0.91006164926E+02 0.  0.
          5    1    3    3  502    0 -0.14891800155E+02  0.41996864536E+02  0.78240395772E+02  0.90136198462E+02  0.41800000000E+01 0. -1.
         -5    1    3    3    0  502 -0.62398354854E+02 -0.79987166147E+02  0.33932177201E+03  0.35418672872E+03  0.41800000000E+01 0. -1.
        -11    1    4    4    0    0  0.31990833657E+02  0.55827356170E+02  0.10098251192E+03  0.11973961269E+03  0.00000000000E+00 0.  1.
         11    1    4    4    0    0  0.45299321351E+02 -0.17837054559E+02  0.20926871968E+03  0.21485712943E+03  0.00000000000E+00 0. -1.
</event>
<event>
 8    1  0.6689467E-009  0.1880811E+03  0.7561462E-02  0.1160204E+00
          1   -1    0    0  501    0  0.00000000000E+00  0.00000000000E+00  0.23002235393E+03  0.23002235393E+03  0.00000000000E+00 0. -1.
         -1   -1    0    0    0  501 -0.00000000000E+00 -0.00000000000E+00 -0.16815786950E+03  0.16815786950E+03  0.00000000000E+00 0.  1.
         25    2    1    2    0    0 -0.11244192334E+03  0.11837278148E+03  0.45966144500E+02  0.21074837693E+03  0.12508673158E+03 0.  0.
         23    2    1    2    0    0  0.11244192334E+03 -0.11837278148E+03  0.15898339927E+02  0.18743184650E+03  0.90678764603E+02 0.  0.
          5    1    3    3  502    0 -0.11215216089E+03  0.29756250298E+02  0.16539885283E+02  0.11727992935E+03  0.41800000000E+01 0. -1.
         -5    1    3    3    0  502 -0.28976245500E+00  0.88616531180E+02  0.29426259217E+02  0.93468447576E+02  0.41800000000E+01 0. -1.
        -11    1    4    4    0    0  0.14371258385E+02 -0.49386421927E+02  0.39964972504E+02  0.65136401233E+02  0.00000000000E+00 0. -1.
         11    1    4    4    0    0  0.98070664960E+02 -0.68986359551E+02 -0.24066632577E+02  0.12229544527E+03  0.00000000000E+00 0.  1.
</event>
<event>
 8    1  0.6689467E-009  0.5227939E+02  0.7561462E-02  0.1433421E+00
         -2   -1    0    0    0  501 -0.00000000000E+00  0.00000000000E+00  0.20662670851E+02  0.20662670851E+02  0.00000000000E+00 0. -1.
          2   -1    0    0  501    0  0.00000000000E+00 -0.00000000000E+00 -0.61516727971E+03  0.61516727971E+03  0.00000000000E+00 0.  1.
         25    2    1    2    0    0  0.21351104550E+02 -0.13309971347E+02 -0.38678258661E+03  0.40728555712E+03  0.12509088987E+03 0.  0.
         23    2    1    2    0    0 -0.21351104550E+02  0.13309971347E+02 -0.20772202225E+03  0.22854439344E+03  0.91929735370E+02 0.  0.
          5    1    3    3  502    0  0.15779923302E+02 -0.44353102908E+01  0.31356560483E+01  0.17204147629E+02  0.41800000000E+01 0.  1.
         -5    1    3    3    0  502  0.55711812484E+01 -0.88746610566E+01 -0.38991824266E+03  0.39008140949E+03  0.41800000000E+01 0.  1.
        -11    1    4    4    0    0  0.23365063703E+02 -0.10596702989E+02 -0.16012586634E+02  0.30242672613E+02  0.00000000000E+00 0. -1.
         11    1    4    4    0    0 -0.44716168253E+02  0.23906674336E+02 -0.19170943561E+03  0.19830172083E+03  0.00000000000E+00 0.  1.
</event>
<event>
 8    1  0.6689467E-009  0.4574291E+03  0.7561462E-02  0.1025529E+00
         -4   -1    0    0    0  501 -0.00000000000E+00  0.00000000000E+00  0.19376625564E+03  0.19376625564E+03  0.00000000000E+00 0. -1.
          4   -1    0    0  501    0  0.00000000000E+00 -0.00000000000E+00 -0.16601722406E+04  0.16601722406E+04  0.00000000000E+00 0.  1.
         25    2    1    2    0    0 -0.12873044351E+03 -0.43701722392E+03 -0.21930502530E+03  0.52086227193E+03  0.12508889284E+03 0.  0.
         23    2    1    2    0    0  0.12873044351E+03  0.43701722392E+03 -0.12471009596E+04  0.13330762243E+04  0.11948152647E+03 0.  0.
          5    1    3    3  502    0 -0.12279727700E+03 -0.33316052542E+03 -0.21813858973E+03  0.41674575423E+03  0.41800000000E+01 0. -1.
         -5    1    3    3    0  502 -0.59331665080E+01 -0.10385669850E+03 -0.11664355765E+01  0.10411651771E+03  0.41800000000E+01 0. -1.
        -11    1    4    4    0    0  0.10883959911E+03  0.35866538106E+03 -0.86827000855E+03  0.94571651231E+03  0.00000000000E+00 0. -1.
         11    1    4    4    0    0  0.19890844396E+02  0.78351842863E+02 -0.37883095108E+03  0.38735971198E+03  0.00000000000E+00 0.  1.
</event>
<event>
 8    1  0.6689467E-009  0.1334939E+03  0.7561462E-02  0.1222362E+00
         -2   -1    0    0    0  501 -0.00000000000E+00  0.00000000000E+00  0.18699733082E+02  0.18699733082E+02  0.00000000000E+00 0.  1.
          2   -1    0    0  501    0  0.00000000000E+00 -0.00000000000E+00 -0.10027133512E+04  0.10027133512E+04  0.00000000000E+00 0. -1.
         25    2    1    2    0    0  0.81325001370E+02  0.17212172680E+02 -0.56358518505E+03  0.58325478711E+03  0.12509145111E+03 0.  0.
         23    2    1    2    0    0 -0.81325001370E+02 -0.17212172680E+02 -0.42042843311E+03  0.43815829721E+03  0.91173523103E+02 0.  0.
          5    1    3    3  502    0  0.58126312834E+02  0.70770458715E+02 -0.34427683238E+03  0.35627396169E+03  0.41800000000E+01 0. -1.
         -5    1    3    3    0  502  0.23198688536E+02 -0.53558286035E+02 -0.21930835267E+03  0.22698082541E+03  0.41800000000E+01 0. -1.
        -11    1    4    4    0    0 -0.48212211292E+02 -0.50516573383E+02 -0.17770321138E+03  0.19093133017E+03  0.00000000000E+00 0.  1.
         11    1    4    4    0    0 -0.33112790079E+02  0.33304400702E+02 -0.24272522173E+03  0.24722696705E+03  0.00000000000E+00 0. -1.
</event>
<event>
 8    1  0.6689467E-009  0.7919675E+02  0.7561462E-02  0.1331347E+00
          1   -1    0    0  501    0  0.00000000000E+00  0.00000000000E+00  0.18440453993E+03  0.18440453993E+03  0.00000000000E+00 0. -1.
         -1   -1    0    0    0  501 -0.00000000000E+00 -0.00000000000E+00 -0.11046031190E+03  0.11046031190E+03  0.00000000000E+00 0.  1.
         25    2    1    2    0    0 -0.52591978888E+02 -0.49887682686E+02  0.98970198990E+02  0.17519277672E+03  0.12507082633E+03 0.  0.
         23    2    1    2    0    0  0.52591978888E+02  0.49887682686E+02 -0.25025970955E+02  0.11967207512E+03  0.91871699741E+02 0.  0.
          5    1    3    3  502    0 -0.44888771524E+02 -0.42104430117E+02  0.12898148822E+03  0.14297370929E+03  0.41800000000E+01 0.  1.
         -5    1    3    3    0  502 -0.77032073643E+01 -0.77832525692E+01 -0.30011289233E+02  0.32219067424E+02  0.41800000000E+01 0.  1.
        -11    1    4    4    0    0  0.92111439114E+01  0.39254004056E+02 -0.53282993033E+02  0.66819154088E+02  0.00000000000E+00 0.  1.
         11    1    4    4    0    0  0.43380834977E+02  0.10633678631E+02  0.28257022078E+02  0.52852921028E+02  0.00000000000E+00 0. -1.
</event>
<event>
 8    1  0.6689467E-009  0.8743459E+02  0.7561462E-02  0.1309186E+00
         -2   -1    0    0    0  501 -0.00000000000E+00  0.00000000000E+00  0.23770644961E+03  0.23770644961E+03  0.00000000000E+00 0. -1.
          2   -1    0    0  501    0  0.00000000000E+00 -0.00000000000E+00 -0.13205497797E+03  0.13205497797E+03  0.00000000000E+00 0.  1.
         25    2    1    2    0    0  0.39397082232E+01 -0.10735033323E+02 -0.89692391035E+02  0.15434417137E+03  0.12508651400E+03 0.  0.
         23    2    1    2    0    0 -0.39397082232E+01  0.10735033323E+02  0.19534386268E+03  0.21541725621E+03  0.90081115367E+02 0.  0.
          5    1    3    3  502    0  0.11674346733E+02  0.35990459326E+02 -0.98848636523E+02  0.10592510975E+03  0.41800000000E+01 0. -1.
         -5    1    3    3    0  502 -0.77346385093E+01 -0.46725492649E+02  0.91562454878E+01  0.48419061614E+02  0.41800000000E+01 0. -1.
        -11    1    4    4    0    0 -0.46271928459E+02  0.60780955161E+01  0.12176468423E+03  0.13040196675E+03  0.00000000000E+00 0.  1.
         11    1    4    4    0    0  0.42332220235E+02  0.46569378071E+01  0.73579178452E+02  0.85015289457E+02  0.00000000000E+00 0. -1.
</event>
<event>
 8    1  0.6689467E-009  0.1155516E+03  0.7561462E-02  0.1250621E+00
         -2   -1    0    0    0  501 -0.00000000000E+00  0.00000000000E+00  0.39639581226E+03  0.39639581226E+03  0.00000000000E+00 0. -1.
          2   -1    0    0  501    0  0.00000000000E+00 -0.00000000000E+00 -0.38103270708E+02  0.38103270708E+02  0.00000000000E+00 0.  1.
         25    2    1    2    0    0 -0.12946173061E+02 -0.50035753201E+02  0.22740514775E+03  0.26463873812E+03  0.12509748398E+03 0.  0.
         23    2    1    2    0    0  0.12946173061E+02  0.50035753201E+02  0.13088739380E+03  0.16986034484E+03  0.95130683264E+02 0.  0.
          5    1    3    3  502    0  0.25361699566E+02  0.32091428302E+02  0.10100735570E+03  0.10905518731E+03  0.41800000000E+01 0. -1.
         -5    1    3    3    0  502 -0.38307872627E+02 -0.82127181503E+02  0.12639779205E+03  0.15558355081E+03  0.41800000000E+01 0. -1.
        -11    1    4    4    0    0  0.39159597626E+02 -0.38465847049E+01  0.20764390771E+02  0.44490788083E+02  0.00000000000E+00 0.  1.
         11    1    4    4    0    0 -0.26213424565E+02  0.53882337906E+02  0.11012300303E+03  0.12536955676E+03  0.00000000000E+00 0. -1.
</event>
<event>
 8    1  0.6689467E-009  0.1662660E+03  0.7561462E-02  0.1181799E+00
          1   -1    0    0  501    0  0.00000000000E+00  0.00000000000E+00  0.83591863031E+02  0.83591863031E+02  0.00000000000E+00 0. -1.
         -1   -1    0    0    0  501 -0.00000000000E+00 -0.00000000000E+00 -0.39082312699E+03  0.39082312699E+03  0.00000000000E+00 0.  1.
         25    2    1    2    0    0 -0.12395077581E+03  0.65563219562E+02 -0.20269108686E+03  0.27639272349E+03  0.12508769055E+03 0.  0.
         23    2    1    2    0    0  0.12395077581E+03 -0.65563219562E+02 -0.10454017710E+03  0.19802226652E+03  0.92853857363E+02 0.  0.
          5    1    3    3  502    0 -0.11306511331E+03  0.85118848883E+02 -0.10549669672E+03  0.17656716485E+03  0.41800000000E+01 0.  1.
         -5    1    3    3    0  502 -0.10885662503E+02 -0.19555629321E+02 -0.97194390132E+02  0.99825558648E+02  0.41800000000E+01 0.  1.
        -11    1    4    4    0    0  0.13094323028E+03 -0.33224743462E+02 -0.84175282605E+02  0.15917126417E+03  0.00000000000E+00 0. -1.
         11    1    4    4    0    0 -0.69924544748E+01 -0.32338476100E+02 -0.20364894493E+02  0.38851002352E+02  0.00000000000E+00 0.  1.
</event>
<event>
 8    1  0.6689467E-009  0.8780917E+02  0.7561462E-02  0.1308246E+00
         -1   -1    0    0    0  501 -0.00000000000E+00  0.00000000000E+00  0.63437145898E+02  0.63437145898E+02  0.00000000000E+00 0.  1.
          1   -1    0    0  501    0  0.00000000000E+00 -0.00000000000E+00 -0.34228743819E+03  0.34228743819E+03  0.00000000000E+00 0. -1.
         25    2    1    2    0    0  0.12877523097E+01  0.59314031787E+02 -0.26203439643E+03  0.29636033129E+03  0.12509040081E+03 0.  0.
         23    2    1    2    0    0 -0.12877523097E+01 -0.59314031787E+02 -0.16815895857E+02  0.10936425280E+03  0.90321385969E+02 0.  0.
          5    1    3    3  502    0 -0.15717858421E+02  0.24607285862E+02  0.19197521049E+01  0.29558880881E+02  0.41800000000E+01 0. -1.
         -5    1    3    3    0  502  0.17005610730E+02  0.34706745926E+02 -0.26395414854E+03  0.26680145041E+03  0.41800000000E+01 0. -1.
        -11    1    4    4    0    0 -0.25078981779E+02 -0.74778468912E+02 -0.63762243667E+01  0.79129204325E+02  0.00000000000E+00 0.  1.
         11    1    4    4    0    0  0.23791229470E+02  0.15464437125E+02 -0.10439671490E+02  0.30235048472E+02  0.00000000000E+00 0. -1.
</event>
<event>
 8    1  0.6689467E-009  0.1287949E+03  0.7561462E-02  0.1229255E+00
          4   -1    0    0  501    0  0.00000000000E+00  0.00000000000E+00  0.26192825879E+03  0.26192825879E+03  0.00000000000E+00 0. -1.
         -4   -1    0    0    0  501 -0.00000000000E+00 -0.00000000000E+00 -0.10253673777E+03  0.10253673777E+03  0.00000000000E+00 0.  1.
         25    2    1    2    0    0  0.10575809559E+03  0.42886557234E+02  0.34558354402E+02  0.17281754721E+03  0.12509034011E+03 0.  0.
         23    2    1    2    0    0 -0.10575809559E+03 -0.42886557234E+02  0.12483316662E+03  0.19164744935E+03  0.90118775951E+02 0.  0.
          5    1    3    3  502    0  0.78068132276E+02  0.52341199635E+02 -0.32496520362E+02  0.99537584318E+02  0.41800000000E+01 0.  1.
         -5    1    3    3    0  502  0.27689963313E+02 -0.94546424007E+01  0.67054874764E+02  0.73279962888E+02  0.41800000000E+01 0.  1.
        -11    1    4    4    0    0 -0.40409783609E+01 -0.31316939934E+02  0.67000054994E+02  0.74068128113E+02  0.00000000000E+00 0. -1.
         11    1    4    4    0    0 -0.10171711723E+03 -0.11569617300E+02  0.57833111628E+02  0.11757932124E+03  0.00000000000E+00 0.  1.
</event>
<event>
 8    1  0.6689467E-009  0.1797431E+03  0.7561462E-02  0.1168052E+00
         -2   -1    0    0    0  501 -0.00000000000E+00  0.00000000000E+00  0.91205845290E+02  0.91205845290E+02  0.00000000000E+00 0.  1.
          2   -1    0    0  501    0  0.00000000000E+00 -0.00000000000E+00 -0.39278053946E+03  0.39278053946E+03  0.00000000000E+00 0. -1.
         25    2    1    2    0    0  0.10416706714E+03 -0.11410999250E+03 -0.16541143951E+03  0.25861220150E+03  0.12508980045E+03 0.  0.
         23    2    1    2    0    0 -0.10416706714E+03  0.11410999250E+03 -0.13616325466E+03  0.22537418325E+03  0.91549015780E+02 0.  0.
          5    1    3    3  502    0  0.80687148970E+01  0.15996729238E+02 -0.66440078536E+02  0.68940234568E+02  0.41800000000E+01 0.  1.
         -5    1    3    3    0  502  0.96098352247E+02 -0.13010672174E+03 -0.98971360974E+02  0.18967196693E+03  0.41800000000E+01 0.  1.
        -11    1    4    4    0    0 -0.71720777530E+02  0.12731876332E+02 -0.48910599767E+02  0.87739485832E+02  0.00000000000E+00 0. -1.
         11    1    4    4    0    0 -0.32446289613E+02  0.10137811617E+03 -0.87252654889E+02  0.13763469742E+03  0.00000000000E+00 0.  1.
</event>
<event>
 8    1  0.6689467E-009  0.6584152E+02  0.7561462E-02  0.1374834E+00
         -3   -1    0    0    0  501 -0.00000000000E+00  0.00000000000E+00  0.20510571625E+03  0.20510571625E+03  0.00000000000E+00 0.  1.
          3   -1    0    0  501    0  0.00000000000E+00 -0.00000000000E+00 -0.78904305206E+02  0.78904305206E+02  0.00000000000E+00 0. -1.
         25    2    1    2    0    0  0.98433278737E+01 -0.33739961194E+02  0.50343937197E+01  0.13003039622E+03  0.12508909919E+03 0.  0.
         23    2    1    2    0    0 -0.98433278737E+01  0.33739961194E+02  0.12116701732E+03  0.15397962524E+03  0.88277986025E+02 0.  0.
          5    1    3    3  502    0  0.16554623144E+02 -0.27161928057E+02  0.63245578479E+02  0.70917568207E+02  0.41800000000E+01 0.  1.
         -5    1    3    3    0  502 -0.67112952700E+01 -0.65780331362E+01 -0.58211184760E+02  0.59112828009E+02  0.41800000000E+01 0.  1.
        -11    1    4    4    0    0  0.26660749502E+02 -0.13282758151E+02  0.17808499739E+02  0.34704032778E+02  0.00000000000E+00 0. -1.
         11    1    4    4    0    0 -0.36504077376E+02  0.47022719345E+02  0.10335851758E+03  0.11927559246E+03  0.00000000000E+00 0.  1.
</event>
<event>
 8    1  0.6689467E-009  0.2537962E+03  0.7561462E-02  0.1110929E+00
         -1   -1    0    0    0  501 -0.00000000000E+00  0.00000000000E+00  0.38097935731E+03  0.38097935731E+03  0.00000000000E+00 0.  1.
          1   -1    0    0  501    0  0.00000000000E+00 -0.00000000000E+00 -0.18875744573E+03  0.18875744573E+03  0.00000000000E+00 0. -1.
         25    2    1    2    0    0  0.22131854394E+02  0.23321913772E+03  0.17542156830E+03  0.31827850313E+03  0.12508994265E+03 0.  0.
         23    2    1    2    0    0 -0.22131854394E+02 -0.23321913772E+03  0.16800343274E+02  0.25145829991E+03  0.89822268320E+02 0.  0.
          5    1    3    3  502    0  0.61535043520E+02  0.96607764374E+02  0.11909606138E+03  0.16529055011E+03  0.41800000000E+01 0.  1.
         -5    1    3    3    0  502 -0.39403189126E+02  0.13661137334E+03  0.56325506924E+02  0.15298795302E+03  0.41800000000E+01 0.  1.
        -11    1    4    4    0    0  0.33899789673E+02 -0.63176685631E+02  0.71324215161E+00  0.71700753563E+02  0.00000000000E+00 0. -1.
         11    1    4    4    0    0 -0.56031644067E+02 -0.17004245208E+03  0.16087101123E+02  0.17975754635E+03  0.00000000000E+00 0.  1.
</event>
<event>
 8    1  0.6689467E-009  0.1204394E+03  0.7561462E-02  0.1242374E+00
         -1   -1    0    0    0  501 -0.00000000000E+00  0.00000000000E+00  0.22428291535E+02  0.22428291535E+02  0.00000000000E+00 0.  1.
          1   -1    0    0  501    0  0.00000000000E+00 -0.00000000000E+00 -0.67685531424E+03  0.67685531424E+03  0.00000000000E+00 0. -1.
         25    2    1    2    0    0  0.58332077160E+02  0.97498711948E+00 -0.34103691842E+03  0.36791005717E+03  0.12509216048E+03 0.  0.
         23    2    1    2    0    0 -0.58332077160E+02 -0.97498711948E+00 -0.31339010429E+03  0.33137354861E+03  0.90506847408E+02 0.  0.
          5    1    3    3  502    0  0.97509124414E+02  0.82995957249E+01 -0.24106612096E+03  0.26020618692E+03  0.41800000000E+01 0. -1.
         -5    1    3    3    0  502 -0.39177047254E+02 -0.73246086054E+01 -0.99970797455E+02  0.10770387025E+03  0.41800000000E+01 0. -1.
        -11    1    4    4    0    0 -0.28712256090E+02  0.41868543617E+02 -0.20391159227E+03  0.21013639869E+03  0.00000000000E+00 0.  1.
         11    1    4    4    0    0 -0.29619821070E+02 -0.42843530736E+02 -0.10947851202E+03  0.12123714992E+03  0.00000000000E+00 0. -1.
</event>
<event>
 8    1  0.6689467E-009  0.1234732E+03  0.7561462E-02  0.1237475E+00
          2   -1    0    0  501    0  0.00000000000E+00  0.00000000000E+00  0.53719013353E+03  0.53719013353E+03  0.00000000000E+00 0.  1.
         -2   -1    0    0    0  501 -0.00000000000E+00 -0.00000000000E+00 -0.73066233805E+02  0.73066233805E+02  0.00000000000E+00 0. -1.
         25    2    1    2    0    0 -0.42879610597E+02  0.71044584433E+02  0.22136768085E+02  0.15173430152E+03  0.12508903939E+03 0.  0.
         23    2    1    2    0    0  0.42879610597E+02 -0.71044584433E+02  0.44198713164E+03  0.45852206581E+03  0.89464329873E+02 0.  0.
          5    1    3    3  502    0 -0.76570162525E+02  0.33881195873E+02  0.46440188902E+02  0.95838868775E+02  0.41800000000E+01 0.  1.
         -5    1    3    3    0  502  0.33690551928E+02  0.37163388560E+02 -0.24303420817E+02  0.55895432746E+02  0.41800000000E+01 0.  1.
        -11    1    4    4    0    0 -0.58046019081E+01 -0.63196891960E+02  0.15771655834E+03  0.17000603911E+03  0.00000000000E+00 0. -1.
         11    1    4    4    0    0  0.48684212505E+02 -0.78476924726E+01  0.28427057329E+03  0.28851602671E+03  0.00000000000E+00 0.  1.
</event>
<event>
 8    1  0.6689467E-009  0.3191406E+03  0.7561462E-02  0.1076045E+00
         -1   -1    0    0    0  501 -0.00000000000E+00  0.00000000000E+00  0.52665805392E+02  0.52665805392E+02  0.00000000000E+00 0.  1.
          1   -1    0    0  501    0  0.00000000000E+00 -0.00000000000E+00 -0.20539518163E+04  0.20539518163E+04  0.00000000000E+00 0. -1.
         25    2    1    2    0    0 -0.14405962967E+03  0.27263128600E+03 -0.90433246562E+03  0.96361039394E+03  0.12508712136E+03 0.  0.
         23    2    1    2    0    0  0.14405962967E+03 -0.27263128600E+03 -0.10969535453E+04  0.11430072277E+04  0.89874619108E+02 0.  0.
          5    1    3    3  502    0 -0.16140100366E+03  0.25700320379E+03 -0.77868580177E+03  0.83574516512E+03  0.41800000000E+01 0.  1.
         -5    1    3    3    0  502  0.17341373990E+02  0.15628082216E+02 -0.12564666385E+03  0.12786522883E+03  0.41800000000E+01 0.  1.
        -11    1    4    4    0    0  0.78064453921E+02 -0.18924256156E+03 -0.84670022880E+03  0.87109590948E+03  0.00000000000E+00 0.  1.
         11    1    4    4    0    0  0.65995175748E+02 -0.83388724445E+02 -0.25025331646E+03  0.27191131823E+03  0.00000000000E+00 0. -1.
</event>
<event>
 7    1  0.6689467E-009  0.1606818E+03  0.7561462E-02  0.1187929E+00
          1   -1    0    0  501    0  0.00000000000E+00  0.00000000000E+00  0.31435769989E+03  0.31435769989E+03  0.00000000000E+00 0. -1.
         -1   -1    0    0    0  501 -0.00000000000E+00 -0.00000000000E+00 -0.10282227502E+03  0.10282227502E+03  0.00000000000E+00 0.  1.
         23    2    1    2    0    0  0.22270156241E+02  0.14366366349E+03  0.73857585080E+02  0.18103505539E+03  0.78635490338E+02 0.  0.
          5    1    1    2  502    0  0.65974057465E+01  0.84785919588E+01  0.63228263798E+02  0.64270506666E+02  0.41800000000E+01 0.  1.
         -5    1    1    2    0  502 -0.28867561987E+02 -0.15214225545E+03  0.74449575996E+02  0.17187441285E+03  0.41800000000E+01 0.  1.
        -11    1    3    3    0    0 -0.55679197252E+01  0.11439209069E+03  0.80646952200E+02  0.14007313462E+03  0.00000000000E+00 0. -1.
         11    1    3    3    0    0  0.27838075966E+02  0.29271572802E+02 -0.67893671202E+01  0.40961920776E+02  0.00000000000E+00 0.  1.
</event>
<event>
 8    1  0.6689467E-009  0.1480326E+03  0.7561462E-02  0.1202912E+00
         -2   -1    0    0    0  501 -0.00000000000E+00  0.00000000000E+00  0.26198145646E+03  0.26198145646E+03  0.00000000000E+00 0.  1.
          2   -1    0    0  501    0  0.00000000000E+00 -0.00000000000E+00 -0.93486927753E+02  0.93486927753E+02  0.00000000000E+00 0. -1.
         25    2    1    2    0    0 -0.43771089094E+02 -0.10117789324E+03  0.10149310862E+03  0.19521710864E+03  0.12512391493E+03 0.  0.
         23    2    1    2    0    0  0.43771089094E+02  0.10117789324E+03  0.67001420082E+02  0.16025127557E+03  0.95070535434E+02 0.  0.
          5    1    3    3  502    0 -0.32803422984E+02  0.18965645456E+02  0.52633247389E+02  0.64988394331E+02  0.41800000000E+01 0. -1.
         -5    1    3    3    0  502 -0.10967666109E+02 -0.12014353870E+03  0.48859861232E+02  0.13022871431E+03  0.41800000000E+01 0. -1.
        -11    1    4    4    0    0 -0.55152884388E+01  0.85255753375E+02  0.14784907992E+02  0.86703837253E+02  0.00000000000E+00 0. -1.
         11    1    4    4    0    0  0.49286377532E+02  0.15922139866E+02  0.52216512090E+02  0.73547438317E+02  0.00000000000E+00 0.  1.
</event>
<event>
 7    1  0.6689467E-009  0.1253112E+03  0.7561462E-02  0.1234584E+00
          2   -1    0    0  501    0  0.00000000000E+00  0.00000000000E+00  0.87175851188E+03  0.87175851188E+03  0.00000000000E+00 0. -1.
         -2   -1    0    0    0  501 -0.00000000000E+00 -0.00000000000E+00 -0.28218672774E+02  0.28218672774E+02  0.00000000000E+00 0.  1.
         25    2    1    2    0    0  0.22710838821E+02 -0.77115911071E+01  0.61765302579E+03  0.63064937114E+03  0.12509243868E+03 0.  0.
          5    1    3    3  502    0 -0.47097168374E+02  0.20956320665E+02  0.24060691486E+03  0.24610256098E+03  0.41800000000E+01 0. -1.
         -5    1    3    3    0  502  0.69808007196E+02 -0.28667911772E+02  0.37704611094E+03  0.38454681016E+03  0.41800000000E+01 0. -1.
        -11    1    1    2    0    0  0.32331125749E+02  0.46034776148E+02  0.33241767683E+02  0.65341544410E+02  0.00000000000E+00 0.  1.
         11    1    1    2    0    0 -0.55041964571E+02 -0.38323185041E+02  0.19264504563E+03  0.20398626910E+03  0.00000000000E+00 0. -1.
</event>
<event>
 8    1  0.6689467E-009  0.1176554E+03  0.7561462E-02  0.1247016E+00
         -1   -1    0    0    0  501 -0.00000000000E+00  0.00000000000E+00  0.10699401601E+03  0.10699401601E+03  0.00000000000E+00 0.  1.
          1   -1    0    0  501    0  0.00000000000E+00 -0.00000000000E+00 -0.20326212430E+03  0.20326212430E+03  0.00000000000E+00 0. -1.
         25    2    1    2    0    0  0.55579136812E+02  0.47302299393E+02  0.16634133813E+02  0.14578157355E+03  0.12509606230E+03 0.  0.
         23    2    1    2    0    0 -0.55579136812E+02 -0.47302299393E+02 -0.11290224210E+03  0.16447456676E+03  0.94754518954E+02 0.  0.
          5    1    3    3  502    0  0.13558402254E+01  0.78052209330E+02 -0.80866271734E+01  0.78592948939E+02  0.41800000000E+01 0.  1.
         -5    1    3    3    0  502  0.54223296587E+02 -0.30749909936E+02  0.24720760986E+02  0.67188624614E+02  0.41800000000E+01 0.  1.
        -11    1    4    4    0    0 -0.10469939660E+02 -0.48417284450E+02 -0.78671156598E+01  0.50157198674E+02  0.00000000000E+00 0.  1.
         11    1    4    4    0    0 -0.45109197152E+02  0.11149850568E+01 -0.10503512644E+03  0.11431736808E+03  0.00000000000E+00 0. -1.
</event>
<event>
 8    1  0.6689467E-009  0.2564640E+03  0.7561462E-02  0.1109287E+00
          1   -1    0    0  501    0  0.00000000000E+00  0.00000000000E+00  0.11200460434E+04  0.11200460434E+04  0.00000000000E+00 0. -1.
         -1   -1    0    0    0  501 -0.00000000000E+00 -0.00000000000E+00 -0.60541757563E+02  0.60541757563E+02  0.00000000000E+00 0.  1.
         25    2    1    2    0    0 -0.11976814865E+03  0.20394464485E+03  0.53724493464E+03  0.60018103627E+03  0.12508928371E+03 0.  0.
         23    2    1    2    0    0  0.11976814865E+03 -0.20394464485E+03  0.52225935122E+03  0.58040676472E+03  0.90439786638E+02 0.  0.
          5    1    3    3  502    0 -0.67943224934E+01  0.11755853078E+03  0.31477237508E+03  0.33610309653E+03  0.41800000000E+01 0.  1.
         -5    1    3    3    0  502 -0.11297382616E+03  0.86386114067E+02  0.22247255956E+03  0.26407793974E+03  0.41800000000E+01 0.  1.
        -11    1    4    4    0    0  0.78675511628E+02 -0.49383055862E+02  0.20768515608E+03  0.22751185989E+03  0.00000000000E+00 0. -1.
         11    1    4    4    0    0  0.41092637024E+02 -0.15456158899E+03  0.31457419514E+03  0.35289490483E+03  0.00000000000E+00 0.  1.
</event>
<event>
 8    1  0.6689467E-009  0.1121593E+03  0.7561462E-02  0.1256623E+00
          2   -1    0    0  501    0  0.00000000000E+00  0.00000000000E+00  0.85060187214E+03  0.85060187214E+03  0.00000000000E+00 0.  1.
         -2   -1    0    0    0  501 -0.00000000000E+00 -0.00000000000E+00 -0.25019414574E+02  0.25019414574E+02  0.00000000000E+00 0. -1.
         25    2    1    2    0    0 -0.54782275634E+02  0.25248969722E+02  0.67983558246E+03  0.69387483885E+03  0.12508902674E+03 0.  0.
         23    2    1    2    0    0  0.54782275634E+02 -0.25248969722E+02  0.14574687510E+03  0.18174644786E+03  0.90282952505E+02 0.  0.
          5    1    3    3  502    0 -0.77120076355E+02  0.44642050213E+02  0.30305643270E+03  0.31591310929E+03  0.41800000000E+01 0.  1.
         -5    1    3    3    0  502  0.22337800721E+02 -0.19393080491E+02  0.37677914976E+03  0.37796172955E+03  0.41800000000E+01 0.  1.
        -11    1    4    4    0    0  0.68954325106E+00  0.28776633824E+02  0.61974326690E+02  0.68332915149E+02  0.00000000000E+00 0.  1.
         11    1    4    4    0    0  0.54092732383E+02 -0.54025603546E+02  0.83772548415E+02  0.11341353272E+03  0.00000000000E+00 0. -1.
</event>
<event>
 8    1  0.6689467E-009  0.7912451E+02  0.7561462E-02  0.1331554E+00
          2   -1    0    0  501    0  0.00000000000E+00  0.00000000000E+00  0.12657695391E+03  0.12657695391E+03  0.00000000000E+00 0.  1.
         -2   -1    0    0    0  501 -0.00000000000E+00 -0.00000000000E+00 -0.14083983603E+03  0.14083983603E+03  0.00000000000E+00 0. -1.
         25    2    1    2    0    0  0.53238730299E+02 -0.53202288946E+01  0.48879331856E+02  0.14456723939E+03  0.12509128819E+03 0.  0.
         23    2    1    2    0    0 -0.53238730299E+02  0.53202288946E+01 -0.63142213982E+02  0.12284955055E+03  0.90787695452E+02 0.  0.
          5    1    3    3  502    0  0.34852274008E+02 -0.17864085526E+02 -0.38033437217E+02  0.54752363435E+02  0.41800000000E+01 0.  1.
         -5    1    3    3    0  502  0.18386456291E+02  0.12543856631E+02  0.86912769073E+02  0.89814875950E+02  0.41800000000E+01 0.  1.
        -11    1    4    4    0    0 -0.59270543588E+02 -0.25708752176E+02 -0.16802146086E+02  0.66755145036E+02  0.00000000000E+00 0.  1.
         11    1    4    4    0    0  0.60318132891E+01  0.31028981071E+02 -0.46340067896E+02  0.56094405518E+02  0.00000000000E+00 0. -1.
</event>
<event>
 8    1  0.6689467E-009  0.1051736E+03  0.7561462E-02  0.1269778E+00
         -2   -1    0    0    0  501 -0.00000000000E+00  0.00000000000E+00  0.12736267730E+03  0.12736267730E+03  0.00000000000E+00 0.  1.
          2   -1    0    0  501    0  0.00000000000E+00 -0.00000000000E+00 -0.13479752325E+03  0.13479752325E+03  0.00000000000E+00 0. -1.
         25    2    1    2    0    0  0.28321772237E+02 -0.23149709940E+02 -0.67778030373E+02  0.14689809280E+03  0.12508859427E+03 0.  0.
         23    2    1    2    0    0 -0.28321772237E+02  0.23149709940E+02  0.60343184423E+02  0.11526210775E+03  0.91137378307E+02 0.  0.
          5    1    3    3  502    0  0.76669686310E+02 -0.79357008238E+01 -0.27228278309E+02  0.81853941177E+02  0.41800000000E+01 0.  1.
         -5    1    3    3    0  502 -0.48347914073E+02 -0.15214009116E+02 -0.40549752064E+02  0.65044151628E+02  0.41800000000E+01 0.  1.
        -11    1    4    4    0    0 -0.24463500737E+02 -0.24423344387E+02  0.57944741218E+02  0.67472628926E+02  0.00000000000E+00 0.  1.
         11    1    4    4    0    0 -0.38582714995E+01  0.47573054326E+02  0.23984432049E+01  0.47789478828E+02  0.00000000000E+00 0. -1.
</event>
<event>
 8    1  0.6689467E-009  0.3214551E+03  0.7561462E-02  0.1074982E+00
          4   -1    0    0  501    0  0.00000000000E+00  0.00000000000E+00  0.17363970868E+04  0.17363970868E+04  0.00000000000E+00 0. -1.
         -4   -1    0    0    0  501 -0.00000000000E+00 -0.00000000000E+00 -0.15206945740E+03  0.15206945740E+03  0.00000000000E+00 0.  1.
         25    2    1    2    0    0  0.91514328447E+02  0.29524485630E+03  0.15231100688E+04  0.15591843377E+04  0.12508844777E+03 0.  0.
         23    2    1    2    0    0 -0.91514328447E+02 -0.29524485630E+03  0.61217560527E+02  0.32928220643E+03  0.95576065375E+02 0.  0.
          5    1    3    3  502    0 -0.30660309513E+02  0.41676926055E+02  0.24687612644E+03  0.25227428516E+03  0.41800000000E+01 0. -1.
         -5    1    3    3    0  502  0.12217463796E+03  0.25356793025E+03  0.12762339424E+04  0.13069100526E+04  0.41800000000E+01 0. -1.
        -11    1    4    4    0    0 -0.65908651258E+02 -0.23442879394E+03  0.65721000520E+01  0.24360624425E+03  0.00000000000E+00 0.  1.
         11    1    4    4    0    0 -0.25605677189E+02 -0.60816062366E+02  0.54645460475E+02  0.85675962186E+02  0.00000000000E+00 0. -1.
</event>
<event>
 8    1  0.6689467E-009  0.1856157E+03  0.7561462E-02  0.1162476E+00
          2   -1    0    0  501    0  0.00000000000E+00  0.00000000000E+00  0.10137470292E+04  0.10137470292E+04  0.00000000000E+00 0. -1.
         -2   -1    0    0    0  501 -0.00000000000E+00 -0.00000000000E+00 -0.37846552443E+02  0.37846552443E+02  0.00000000000E+00 0.  1.
         25    2    1    2    0    0 -0.15200081419E+03  0.27294631801E+02  0.65351473266E+03  0.68306550119E+03  0.12509088168E+03 0.  0.
         23    2    1    2    0    0  0.15200081419E+03 -0.27294631801E+02  0.32238574410E+03  0.36852808045E+03  0.89616592453E+02 0.  0.
          5    1    3    3  502    0 -0.17040879630E+03  0.31664818808E+02  0.62491817554E+03  0.64852295035E+03  0.41800000000E+01 0.  1.
         -5    1    3    3    0  502  0.18407982111E+02 -0.43701870073E+01  0.28596557118E+02  0.34542550845E+02  0.41800000000E+01 0.  1.
        -11    1    4    4    0    0  0.19128035102E+02  0.28535766111E+02  0.58020421992E+02  0.67428043443E+02  0.00000000000E+00 0.  1.
         11    1    4    4    0    0  0.13287277909E+03 -0.55830397911E+02  0.26436532211E+03  0.30110003701E+03  0.00000000000E+00 0. -1.
</event>
<event>
 8    1  0.6689467E-009  0.9561201E+02  0.7561462E-02  0.1289804E+00
         -2   -1    0    0    0  501 -0.00000000000E+00  0.00000000000E+00  0.13703072211E+03  0.13703072211E+03  0.00000000000E+00 0.  1.
          2   -1    0    0  501    0  0.00000000000E+00 -0.00000000000E+00 -0.14595298109E+03  0.14595298109E+03  0.00000000000E+00 0. -1.
         25    2    1    2    0    0  0.85720837629E+01  0.47584062521E+01  0.85971637676E+02  0.15210515261E+03  0.12509489164E+03 0.  0.
         23    2    1    2    0    0 -0.85720837629E+01 -0.47584062521E+01 -0.94893896655E+02  0.13087855059E+03  0.89600336679E+02 0.  0.
          5    1    3    3  502    0  0.54300450534E+02 -0.11895299807E+02  0.86908858005E+02  0.10325046772E+03  0.41800000000E+01 0.  1.
         -5    1    3    3    0  502 -0.45728366771E+02  0.16653706059E+02 -0.93722032881E+00  0.48854684883E+02  0.41800000000E+01 0.  1.
        -11    1    4    4    0    0 -0.11158691060E+02  0.40139115059E+02 -0.27720867054E+02  0.50041097251E+02  0.00000000000E+00 0.  1.
         11    1    4    4    0    0  0.25866072972E+01 -0.44897521311E+02 -0.67173029601E+02  0.80837453343E+02  0.00000000000E+00 0. -1.
</event>
<event>
 8    1  0.6689467E-009  0.9647439E+02  0.7561462E-02  0.1287890E+00
          1   -1    0    0  501    0  0.00000000000E+00  0.00000000000E+00  0.56246666530E+02  0.56246666530E+02  0.00000000000E+00 0. -1.
         -1   -1    0    0    0  501 -0.00000000000E+00 -0.00000000000E+00 -0.25640485313E+03  0.25640485313E+03  0.00000000000E+00 0.  1.
         25    2    1    2    0    0  0.27022132068E+02 -0.49899350583E+01 -0.17169733657E+03  0.21420183035E+03  0.12508938271E+03 0.  0.
         23    2    1    2    0    0 -0.27022132068E+02  0.49899350583E+01 -0.28460850032E+02  0.98449689312E+02  0.90151130152E+02 0.  0.
          5    1    3    3  502    0  0.57692846676E+02 -0.39453345474E+02 -0.14428080713E+03  0.16037286158E+03  0.41800000000E+01 0.  1.
         -5    1    3    3    0  502 -0.30670714608E+02  0.34463410415E+02 -0.27416529442E+02  0.53828968769E+02  0.41800000000E+01 0.  1.
        -11    1    4    4    0    0 -0.44590056744E+02 -0.17645142563E+02 -0.44664340534E+02  0.65532644780E+02  0.00000000000E+00 0.  1.
         11    1    4    4    0    0  0.17567924676E+02  0.22635077622E+02  0.16203490501E+02  0.32917044533E+02  0.00000000000E+00 0. -1.
</event>
<event>
 8    1  0.6689467E-009  0.2054849E+03  0.7561462E-02  0.1145192E+00
          1   -1    0    0  501    0  0.00000000000E+00  0.00000000000E+00  0.14418142824E+04  0.14418142824E+04  0.00000000000E+00 0. -1.
         -1   -1    0    0    0  501 -0.00000000000E+00 -0.00000000000E+00 -0.34200403604E+02  0.34200403604E+02  0.00000000000E+00 0.  1.
         25    2    1    2    0    0 -0.15320105266E+03 -0.11413269266E+03  0.64500259908E+03  0.68423159054E+03  0.12509069749E+03 0.  0.
         23    2    1    2    0    0  0.15320105266E+03  0.11413269266E+03  0.76261127971E+03  0.79178309546E+03  0.94062065911E+02 0.  0.
          5    1    3    3  502    0 -0.13596582664E+03 -0.60448579156E+02  0.30303403328E+03  0.33762084423E+03  0.41800000000E+01 0. -1.
         -5    1    3    3    0  502 -0.17235226029E+02 -0.53684113505E+02  0.34196856580E+03  0.34661074631E+03  0.41800000000E+01 0. -1.
        -11    1    4    4    0    0  0.92415666564E+02  0.21670011378E+02  0.25116315705E+03  0.26850172491E+03  0.00000000000E+00 0. -1.
         11    1    4    4    0    0  0.60785386100E+02  0.92462681282E+02  0.51144812266E+03  0.52328137055E+03  0.00000000000E+00 0.  1.
</event>
<event>
 8    1  0.6689467E-009  0.2879736E+03  0.7561462E-02  0.1091412E+00
          1   -1    0    0  501    0  0.00000000000E+00  0.00000000000E+00  0.24811430359E+03  0.24811430359E+03  0.00000000000E+00 0. -1.
         -1   -1    0    0    0  501 -0.00000000000E+00 -0.00000000000E+00 -0.34836440091E+03  0.34836440091E+03  0.00000000000E+00 0.  1.
         25    2    1    2    0    0  0.22923698384E+03  0.14617158068E+03 -0.26279267952E+02  0.30042243732E+03  0.12508922882E+03 0.  0.
         23    2    1    2    0    0 -0.22923698384E+03 -0.14617158068E+03 -0.73970829365E+02  0.29605626718E+03  0.90895016261E+02 0.  0.
          5    1    3    3  502    0  0.13875303102E+03  0.14693845799E+03  0.11064346554E+02  0.20244309378E+03  0.41800000000E+01 0. -1.
         -5    1    3    3    0  502  0.90483952815E+02 -0.76687730264E+00 -0.37343614507E+02  0.97979343549E+02  0.41800000000E+01 0. -1.
        -11    1    4    4    0    0 -0.13332292068E+03 -0.12951365116E+03 -0.70026535693E+02  0.19862654082E+03  0.00000000000E+00 0.  1.
         11    1    4    4    0    0 -0.95914063152E+02 -0.16657929527E+02 -0.39442936728E+01  0.97429726362E+02  0.00000000000E+00 0. -1.
</event>
<event>
 8    1  0.6689467E-009  0.5981728E+02  0.7561462E-02  0.1398600E+00
          1   -1    0    0  501    0  0.00000000000E+00  0.00000000000E+00  0.86723309247E+02  0.86723309247E+02  0.00000000000E+00 0. -1.
         -1   -1    0    0    0  501 -0.00000000000E+00 -0.00000000000E+00 -0.17571950218E+03  0.17571950218E+03  0.00000000000E+00 0.  1.
         25    2    1    2    0    0  0.49070430415E+02 -0.28231999210E+02 -0.43487129230E+02  0.14402512063E+03  0.12508857679E+03 0.  0.
         23    2    1    2    0    0 -0.49070430415E+02  0.28231999210E+02 -0.45509063703E+02  0.11841769079E+03  0.93523909742E+02 0.  0.
          5    1    3    3  502    0  0.86610493527E+01 -0.43339272651E+01  0.43677571945E+02  0.44933277117E+02  0.41800000000E+01 0. -1.
         -5    1    3    3    0  502  0.40409381062E+02 -0.23898071945E+02 -0.87164701176E+02  0.99091843517E+02  0.41800000000E+01 0. -1.
        -11    1    4    4    0    0 -0.38066739422E+02  0.32596166918E+02 -0.72965209477E+02  0.88518407927E+02  0.00000000000E+00 0.  1.
         11    1    4    4    0    0 -0.11003690993E+02 -0.43641677073E+01  0.27456145774E+02  0.29899282868E+02  0.00000000000E+00 0. -1.
</event>
<event>
 8    1  0.6689467E-009  0.1252687E+03  0.7561462E-02  0.1234650E+00
          2   -1    0    0  501    0  0.00000000000E+00  0.00000000000E+00  0.20458176208E+03  0.20458176208E+03  0.00000000000E+00 0. -1.
         -2   -1    0    0    0  501 -0.00000000000E+00 -0.00000000000E+00 -0.12020428961E+03  0.12020428961E+03  0.00000000000E+00 0.  1.
         25    2    1    2    0    0  0.10976393314E+03  0.36219849723E+01  0.18596481822E+02  0.16749395580E+03  0.12508859381E+03 0.  0.
         23    2    1    2    0    0 -0.10976393314E+03 -0.36219849723E+01  0.65780990645E+02  0.15729209589E+03  0.91391601942E+02 0.  0.
          5    1    3    3  502    0  0.18512157088E+02  0.35877513168E+02  0.51148755315E+02  0.65295968340E+02  0.41800000000E+01 0. -1.
         -5    1    3    3    0  502  0.91251776049E+02 -0.32255528196E+02 -0.32552273493E+02  0.10219798746E+03  0.41800000000E+01 0. -1.
        -11    1    4    4    0    0 -0.63428489788E+02  0.11234152453E+02  0.83542659194E+02  0.10549291637E+03  0.00000000000E+00 0. -1.
         11    1    4    4    0    0 -0.46335443348E+02 -0.14856137425E+02 -0.17761668549E+02  0.51799179521E+02  0.00000000000E+00 0.  1.
</event>
<event>
 8    1  0.6689467E-009  0.1114284E+03  0.7561462E-02  0.1257947E+00
         -2   -1    0    0    0  501 -0.00000000000E+00  0.00000000000E+00  0.31144095815E+02  0.31144095815E+02  0.00000000000E+00 0.  1.
          2   -1    0    0  501    0  0.00000000000E+00 -0.00000000000E+00 -0.51803916015E+03  0.51803916015E+03  0.00000000000E+00 0. -1.
         25    2    1    2    0    0  0.24711490592E+02  0.26339643431E+02 -0.39876938503E+03  0.41948675344E+03  0.12509068427E+03 0.  0.
         23    2    1    2    0    0 -0.24711490592E+02 -0.26339643431E+02 -0.88125679306E+02  0.12969650252E+03  0.88037564884E+02 0.  0.
          5    1    3    3  502    0 -0.39784267417E+02 -0.24050370451E+02 -0.11474805156E+03  0.12387814976E+03  0.41800000000E+01 0. -1.
         -5    1    3    3    0  502  0.64495758009E+02  0.50390013883E+02 -0.28402133347E+03  0.29560860367E+03  0.41800000000E+01 0. -1.
        -11    1    4    4    0    0 -0.15851136269E+02 -0.58634285147E+02 -0.47888613932E+02  0.77346992573E+02  0.00000000000E+00 0.  1.
         11    1    4    4    0    0 -0.88603543234E+01  0.32294641716E+02 -0.40237065374E+02  0.52349509952E+02  0.00000000000E+00 0. -1.
</event>
<event>
 8    1  0.6689467E-009  0.1043855E+03  0.7561462E-02  0.1271335E+00
         -2   -1    0    0    0  501 -0.00000000000E+00  0.00000000000E+00  0.31964619736E+02  0.31964619736E+02  0.00000000000E+00 0.  1.
          2   -1    0    0  501    0  0.00000000000E+00 -0.00000000000E+00 -0.48423605692E+03  0.48423605692E+03  0.00000000000E+00 0. -1.
         25    2    1    2    0    0  0.53473852633E+02 -0.22694467259E+02 -0.21526421577E+03  0.25565753233E+03  0.12509036528E+03 0.  0.
         23    2    1    2    0    0 -0.53473852633E+02  0.22694467259E+02 -0.23700722142E+03  0.26054314433E+03  0.91300686167E+02 0.  0.
          5    1    3    3  502    0  0.19711404563E+02  0.39574361535E+02 -0.15904670027E+03  0.16513023596E+03  0.41800000000E+01 0.  1.
         -5    1    3    3    0  502  0.33762448070E+02 -0.62268828794E+02 -0.56217515497E+02  0.90527296368E+02  0.41800000000E+01 0.  1.
        -11    1    4    4    0    0  0.14034993322E+02  0.21756498431E+02 -0.13987612484E+03  0.14225208808E+03  0.00000000000E+00 0. -1.
         11    1    4    4    0    0 -0.67508845955E+02  0.93796882820E+00 -0.97131096573E+02  0.11829105625E+03  0.00000000000E+00 0.  1.
</event>
<event>
 8    1  0.6689467E-009  0.8132111E+02  0.7561462E-02  0.1325344E+00
         -1   -1    0    0    0  501 -0.00000000000E+00  0.00000000000E+00  0.14385274341E+03  0.14385274341E+03  0.00000000000E+00 0.  1.
          1   -1    0    0  501    0  0.00000000000E+00 -0.00000000000E+00 -0.13193980851E+03  0.13193980851E+03  0.00000000000E+00 0. -1.
         25    2    1    2    0    0  0.19157828849E+01 -0.10156828331E+02 -0.77225681984E+02  0.14737233188E+03  0.12509183371E+03 0.  0.
         23    2    1    2    0    0 -0.19157828849E+01  0.10156828331E+02  0.89138616884E+02  0.12842022003E+03  0.91865273668E+02 0.  0.
          5    1    3    3  502    0  0.15620171970E+02  0.36557016406E+02 -0.88603703806E+02  0.97203363877E+02  0.41800000000E+01 0.  1.
         -5    1    3    3    0  502 -0.13704389085E+02 -0.46713844737E+02  0.11378021822E+02  0.50168968007E+02  0.41800000000E+01 0.  1.
        -11    1    4    4    0    0  0.13589931199E+02  0.38868601296E+02  0.93602987871E+01  0.42226408681E+02  0.00000000000E+00 0. -1.
         11    1    4    4    0    0 -0.15505714084E+02 -0.28711772965E+02  0.79778318096E+02  0.86193811346E+02  0.00000000000E+00 0.  1.
</event>
<event>
 8    1  0.6689467E-009  0.1083000E+03  0.7561462E-02  0.1263751E+00
          2   -1    0    0  501    0  0.00000000000E+00  0.00000000000E+00  0.13705845521E+04  0.13705845521E+04  0.00000000000E+00 0. -1.
         -2   -1    0    0    0  501 -0.00000000000E+00 -0.00000000000E+00 -0.12719238528E+02  0.12719238528E+02  0.00000000000E+00 0.  1.
         25    2    1    2    0    0 -0.33489853284E+02  0.43150887424E+02  0.10310791493E+04  0.10400744397E+04  0.12508820314E+03 0.  0.
         23    2    1    2    0    0  0.33489853284E+02 -0.43150887424E+02  0.32678616427E+03  0.34322935096E+03  0.89630468285E+02 0.  0.
          5    1    3    3  502    0  0.42496975173E+02  0.27642127677E+02  0.24863637608E+03  0.25378652453E+03  0.41800000000E+01 0. -1.
         -5    1    3    3    0  502 -0.75986828457E+02  0.15508759747E+02  0.78244277323E+03  0.78628791515E+03  0.41800000000E+01 0. -1.
        -11    1    4    4    0    0 -0.21259552971E+02 -0.17821870766E+02  0.32074414400E+02  0.42407024527E+02  0.00000000000E+00 0.  1.
         11    1    4    4    0    0  0.54749406256E+02 -0.25329016659E+02  0.29471174987E+03  0.30082232644E+03  0.00000000000E+00 0. -1.
</event>
<event>
 8    1  0.6689467E-009  0.1222599E+03  0.7561462E-02  0.1239415E+00
          2   -1    0    0  501    0  0.00000000000E+00  0.00000000000E+00  0.92437969585E+03  0.92437969585E+03  0.00000000000E+00 0. -1.
         -2   -1    0    0    0  501 -0.00000000000E+00 -0.00000000000E+00 -0.17111158048E+02  0.17111158048E+02  0.00000000000E+00 0.  1.
         25    2    1    2    0    0  0.16717618034E+02  0.60014281469E+02  0.46622616221E+03  0.48672052265E+03  0.12509532407E+03 0.  0.
         23    2    1    2    0    0 -0.16717618034E+02 -0.60014281469E+02  0.44104237559E+03  0.45477033125E+03  0.91741399518E+02 0.  0.
          5    1    3    3  502    0 -0.17757718836E+02 -0.31145660285E+02  0.19896805853E+03  0.20221560139E+03  0.41800000000E+01 0.  1.
         -5    1    3    3    0  502  0.34475336870E+02  0.91159941754E+02  0.26725810368E+03  0.28450492125E+03  0.41800000000E+01 0.  1.
        -11    1    4    4    0    0  0.33493671777E+02 -0.49187809300E+02  0.24113791028E+03  0.24837221746E+03  0.00000000000E+00 0. -1.
         11    1    4    4    0    0 -0.50211289811E+02 -0.10826472170E+02  0.19990446531E+03  0.20639811378E+03  0.00000000000E+00 0.  1.
</event>
<event>
 8    1  0.6689467E-009  0.2371804E+03  0.7561462E-02  0.1121686E+00
         -2   -1    0    0    0  501 -0.00000000000E+00  0.00000000000E+00  0.54311209387E+02  0.54311209387E+02  0.00000000000E+00 0. -1.
          2   -1    0    0  501    0  0.00000000000E+00 -0.00000000000E+00 -0.14720802510E+04  0.14720802510E+04  0.00000000000E+00 0.  1.
         25    2    1    2    0    0 -0.19987673245E+03  0.11848855923E+03 -0.10434790113E+04  0.10763301335E+04  0.12509141680E+03 0.  0.
         23    2    1    2    0    0  0.19987673245E+03 -0.11848855923E+03 -0.37429003034E+03  0.45006132685E+03  0.92043056608E+02 0.  0.
          5    1    3    3  502    0 -0.12394204590E+03  0.72999514356E+02 -0.36920588542E+03  0.39625877664E+03  0.41800000000E+01 0.  1.
         -5    1    3    3    0  502 -0.75934686552E+02  0.45489044872E+02 -0.67427312585E+03  0.68007135690E+03  0.41800000000E+01 0.  1.
        -11    1    4    4    0    0  0.99029515357E+02 -0.97222324836E+02 -0.26920404106E+03  0.30286934655E+03  0.00000000000E+00 0.  1.
         11    1    4    4    0    0  0.10084721709E+03 -0.21266234392E+02 -0.10508598929E+03  0.14719198030E+03  0.00000000000E+00 0. -1.
</event>
<event>
 8    1  0.6689467E-009  0.1052615E+03  0.7561462E-02  0.1269605E+00
         -1   -1    0    0    0  501 -0.00000000000E+00  0.00000000000E+00  0.24310838609E+02  0.24310838609E+02  0.00000000000E+00 0.  1.
          1   -1    0    0  501    0  0.00000000000E+00 -0.00000000000E+00 -0.57365100634E+03  0.57365100634E+03  0.00000000000E+00 0. -1.
         25    2    1    2    0    0 -0.33354854396E+02  0.12071032914E+02 -0.38756726683E+03  0.40879353710E+03  0.12508202713E+03 0.  0.
         23    2    1    2    0    0  0.33354854396E+02 -0.12071032914E+02 -0.16177290091E+03  0.18916830786E+03  0.91410727384E+02 0.  0.
          5    1    3    3  502    0 -0.26765377237E+02  0.60023759276E+02 -0.31259255404E+03  0.31945393148E+03  0.41800000000E+01 0.  1.
         -5    1    3    3    0  502 -0.65894771587E+01 -0.47952726362E+02 -0.74974712789E+02  0.89339605621E+02  0.41800000000E+01 0.  1.
        -11    1    4    4    0    0  0.23355115412E+01 -0.48319991713E+02 -0.10027130994E+03  0.11133109094E+03  0.00000000000E+00 0.  1.
         11    1    4    4    0    0  0.31019342855E+02  0.36248958799E+02 -0.61501590973E+02  0.77837216917E+02  0.00000000000E+00 0. -1.
</event>
<event>
 8    1  0.6689467E-009  0.1251568E+03  0.7561462E-02  0.1234824E+00
         -2   -1    0    0    0  501 -0.00000000000E+00  0.00000000000E+00  0.11043193394E+02  0.11043193394E+02  0.00000000000E+00 0.  1.
          2   -1    0    0  501    0  0.00000000000E+00 -0.00000000000E+00 -0.20126905178E+04  0.20126905178E+04  0.00000000000E+00 0. -1.
         25    2    1    2    0    0 -0.22597537457E+02 -0.60130841338E+02 -0.15726011896E+04  0.15788757226E+04  0.12509068448E+03 0.  0.
         23    2    1    2    0    0  0.22597537457E+02  0.60130841338E+02 -0.42904613481E+03  0.44485798852E+03  0.98446317238E+02 0.  0.
          5    1    3    3  502    0  0.46427950693E+02 -0.81234865139E+01 -0.34512765197E+03  0.34835630351E+03  0.41800000000E+01 0.  1.
         -5    1    3    3    0  502 -0.69025488150E+02 -0.52007354824E+02 -0.12274735376E+04  0.12305194191E+04  0.41800000000E+01 0.  1.
        -11    1    4    4    0    0  0.38162804808E+02  0.81523217461E+02 -0.30413089796E+03  0.31717193720E+03  0.00000000000E+00 0. -1.
         11    1    4    4    0    0 -0.15565267351E+02 -0.21392376124E+02 -0.12491523685E+03  0.12768605132E+03  0.00000000000E+00 0.  1.
</event>
<event>
 8    1  0.6689467E-009  0.1132964E+03  0.7561462E-02  0.1254584E+00
          2   -1    0    0  501    0  0.00000000000E+00  0.00000000000E+00  0.11374953425E+03  0.11374953425E+03  0.00000000000E+00 0. -1.
         -2   -1    0    0    0  501 -0.00000000000E+00 -0.00000000000E+00 -0.14510052853E+03  0.14510052853E+03  0.00000000000E+00 0.  1.
         25    2    1    2    0    0 -0.61403532243E+01  0.56685117656E+02  0.23076260404E+02  0.13939212958E+03  0.12508695173E+03 0.  0.
         23    2    1    2    0    0  0.61403532243E+01 -0.56685117656E+02 -0.54427254692E+02  0.11945793320E+03  0.89760599647E+02 0.  0.
          5    1    3    3  502    0 -0.60668731294E+02  0.42741955144E+02  0.34277534104E+02  0.81853475373E+02  0.41800000000E+01 0. -1.
         -5    1    3    3    0  502  0.54528378070E+02  0.13943162512E+02 -0.11201273699E+02  0.57538654210E+02  0.41800000000E+01 0. -1.
        -11    1    4    4    0    0 -0.30960310120E+02 -0.37560664355E+01  0.50817020570E+01  0.31598616008E+02  0.00000000000E+00 0. -1.
         11    1    4    4    0    0  0.37100663344E+02 -0.52929051220E+02 -0.59508956749E+02  0.87859317189E+02  0.00000000000E+00 0.  1.
</event>
<event>
 8    1  0.6689467E-009  0.1250533E+03  0.7561462E-02  0.1234986E+00
         -2   -1    0    0    0  501 -0.00000000000E+00  0.00000000000E+00  0.73795363564E+02  0.73795363564E+02  0.00000000000E+00 0.  1.
          2   -1    0    0  501    0  0.00000000000E+00 -0.00000000000E+00 -0.27716639746E+03  0.27716639746E+03  0.00000000000E+00 0. -1.
         25    2    1    2    0    0 -0.13273677879E+02 -0.66606594854E+02 -0.18863697036E+03  0.23631321719E+03  0.12508957203E+03 0.  0.
         23    2    1    2    0    0  0.13273677879E+02  0.66606594854E+02 -0.14734063535E+02  0.11464854383E+03  0.91184247388E+02 0.  0.
          5    1    3    3  502    0  0.19010730642E+02 -0.92744683248E+02 -0.96966721381E+02  0.13558392827E+03  0.41800000000E+01 0.  1.
         -5    1    3    3    0  502 -0.32284408521E+02  0.26138088394E+02 -0.91670248978E+02  0.10072928892E+03  0.41800000000E+01 0.  1.
        -11    1    4    4    0    0  0.46028985454E+02  0.83806382819E+01 -0.84971371503E+01  0.47551066651E+02  0.00000000000E+00 0. -1.
         11    1    4    4    0    0 -0.32755307575E+02  0.58225956572E+02 -0.62369263852E+01  0.67097477180E+02  0.00000000000E+00 0.  1.
</event>
<event>
 8    1  0.6689467E-009  0.9682781E+02  0.7561462E-02  0.1287112E+00
          1   -1    0    0  501    0  0.00000000000E+00  0.00000000000E+00  0.26822879969E+03  0.26822879969E+03  0.00000000000E+00 0. -1.
         -1   -1    0    0    0  501 -0.00000000000E+00 -0.00000000000E+00 -0.60980752073E+02  0.60980752073E+02  0.00000000000E+00 0.  1.
         25    2    1    2    0    0  0.29685967587E+02  0.32787830463E+02  0.52734449381E+02  0.14277144575E+03  0.12508583082E+03 0.  0.
         23    2    1    2    0    0 -0.29685967587E+02 -0.32787830463E+02  0.15451359824E+03  0.18643810601E+03  0.94490300215E+02 0.  0.
          5    1    3    3  502    0 -0.29597796458E+02  0.12527682580E+02  0.70435606436E+02  0.77534633810E+02  0.41800000000E+01 0. -1.
         -5    1    3    3    0  502  0.59283764045E+02  0.20260147883E+02 -0.17701157054E+02  0.65236811944E+02  0.41800000000E+01 0. -1.
        -11    1    4    4    0    0 -0.33699528332E+02  0.24097549323E+02  0.35865201444E+02  0.54796557992E+02  0.00000000000E+00 0.  1.
         11    1    4    4    0    0  0.40135607452E+01 -0.56885379786E+02  0.11864839680E+03  0.13164154802E+03  0.00000000000E+00 0. -1.
</event>
<event>
 8    1  0.6689467E-009  0.9498497E+02  0.7561462E-02  0.1291210E+00
         -2   -1    0    0    0  501 -0.00000000000E+00  0.00000000000E+00  0.15863138504E+03  0.15863138504E+03  0.00000000000E+00 0.  1.
          2   -1    0    0  501    0  0.00000000000E+00 -0.00000000000E+00 -0.83753335444E+02  0.83753335444E+02  0.00000000000E+00 0. -1.
         25    2    1    2    0    0 -0.39603131065E+01  0.29419693516E+02  0.13820211439E+02  0.12930686132E+03  0.12509222076E+03 0.  0.
         23    2    1    2    0    0  0.39603131065E+01 -0.29419693516E+02  0.61057838158E+02  0.11307785916E+03  0.90428646930E+02 0.  0.
          5    1    3    3  502    0 -0.24991133710E+02 -0.43683679580E+02 -0.52516255461E+01  0.50772754471E+02  0.41800000000E+01 0.  1.
         -5    1    3    3    0  502  0.21030820603E+02  0.73103373096E+02  0.19071836985E+02  0.78534106853E+02  0.41800000000E+01 0.  1.
        -11    1    4    4    0    0  0.13382059845E+02 -0.43964820356E+02  0.76908027547E+02  0.89592575897E+02  0.00000000000E+00 0.  1.
         11    1    4    4    0    0 -0.94217467381E+01  0.14545126840E+02 -0.15850189388E+02  0.23485283265E+02  0.00000000000E+00 0. -1.
</event>
<event>
 7    1  0.6689467E-009  0.9979110E+02  0.7561462E-02  0.1280736E+00
         -3   -1    0    0    0  501 -0.00000000000E+00  0.00000000000E+00  0.27242747456E+02  0.27242747456E+02  0.00000000000E+00 0.  1.
          3   -1    0    0  501    0  0.00000000000E+00 -0.00000000000E+00 -0.75086433239E+03  0.75086433239E+03  0.00000000000E+00 0. -1.
         23    2    1    2    0    0 -0.12897277349E+02 -0.53374740025E+01 -0.69003468355E+02  0.11142641213E+03  0.86368618627E+02 0.  0.
          5    1    1    2  502    0  0.58769482061E+01 -0.59955520338E+02 -0.32326548750E+03  0.32885749307E+03  0.41800000000E+01 0. -1.
         -5    1    1    2    0  502  0.70203291426E+01  0.65292994340E+02 -0.33135262907E+03  0.33782317464E+03  0.41800000000E+01 0. -1.
        -11    1    3    3    0    0 -0.39902466412E+02  0.11551378378E+02 -0.67846857623E+02  0.79553989576E+02  0.00000000000E+00 0. -1.
         11    1    3    3    0    0  0.27005189064E+02 -0.16888852380E+02 -0.11566107325E+01  0.31872422554E+02  0.00000000000E+00 0.  1.
</event>
<event>
 8    1  0.6689467E-009  0.1203134E+03  0.7561462E-02  0.1242581E+00
          2   -1    0    0  501    0  0.00000000000E+00  0.00000000000E+00  0.25948944739E+03  0.25948944739E+03  0.00000000000E+00 0. -1.
         -2   -1    0    0    0  501 -0.00000000000E+00 -0.00000000000E+00 -0.67180747619E+02  0.67180747619E+02  0.00000000000E+00 0.  1.
         25    2    1    2    0    0  0.59213553455E+02 -0.58469779435E+01  0.15967191558E+03  0.21138231059E+03  0.12508768341E+03 0.  0.
         23    2    1    2    0    0 -0.59213553455E+02  0.58469779435E+01  0.32636784197E+02  0.11528788442E+03  0.93197127362E+02 0.  0.
          5    1    3    3  502    0 -0.62242892704E+01 -0.52818482203E+02  0.90836188267E+02  0.10534334026E+03  0.41800000000E+01 0.  1.
         -5    1    3    3    0  502  0.65437842725E+02  0.46971504259E+02  0.68835727308E+02  0.10603897032E+03  0.41800000000E+01 0.  1.
        -11    1    4    4    0    0 -0.37731238360E+02 -0.40611984046E+02  0.16604795793E+01  0.55459325535E+02  0.00000000000E+00 0.  1.
         11    1    4    4    0    0 -0.21482315095E+02  0.46458961990E+02  0.30976304618E+02  0.59828558890E+02  0.00000000000E+00 0. -1.
</event>
<event>
 8    1  0.6689467E-009  0.1060567E+03  0.7561462E-02  0.1268052E+00
         -2   -1    0    0    0  501 -0.00000000000E+00  0.00000000000E+00  0.25349450101E+03  0.25349450101E+03  0.00000000000E+00 0.  1.
          2   -1    0    0  501    0  0.00000000000E+00 -0.00000000000E+00 -0.72598837177E+02  0.72598837177E+02  0.00000000000E+00 0. -1.
         25    2    1    2    0    0  0.22866358184E+02 -0.72103253628E+02  0.64101626598E+02  0.15961885335E+03  0.12508960905E+03 0.  0.
         23    2    1    2    0    0 -0.22866358184E+02  0.72103253628E+02  0.11679403723E+03  0.16647448483E+03  0.91384667464E+02 0.  0.
          5    1    3    3  502    0  0.52579424881E+02 -0.44275984239E+02 -0.15071173487E+02  0.70495186867E+02  0.41800000000E+01 0.  1.
         -5    1    3    3    0  502 -0.29713066697E+02 -0.27827269390E+02  0.79172800085E+02  0.89123666484E+02  0.41800000000E+01 0.  1.
        -11    1    4    4    0    0 -0.44554812922E+02  0.26532971896E+02  0.10109785276E+03  0.11362176633E+03  0.00000000000E+00 0.  1.
         11    1    4    4    0    0  0.21688454738E+02  0.45570281733E+02  0.15696184475E+02  0.52852718503E+02  0.00000000000E+00 0. -1.
</event>
<event>
 8    1  0.6689467E-009  0.1082530E+03  0.7561462E-02  0.1263840E+00
         -2   -1    0    0    0  501 -0.00000000000E+00  0.00000000000E+00  0.55769852922E+02  0.55769852922E+02  0.00000000000E+00 0.  1.
          2   -1    0    0  501    0  0.00000000000E+00 -0.00000000000E+00 -0.25049047194E+03  0.25049047194E+03  0.00000000000E+00 0. -1.
         25    2    1    2    0    0 -0.41397547728E+02 -0.13555084613E+02 -0.88467339675E+02  0.15928301399E+03  0.12508841305E+03 0.  0.
         23    2    1    2    0    0  0.41397547728E+02  0.13555084613E+02 -0.10625327934E+03  0.14697731087E+03  0.91733708436E+02 0.  0.
          5    1    3    3  502    0 -0.10583400144E+02 -0.68423524627E+02 -0.47886097382E+02  0.84287233930E+02  0.41800000000E+01 0. -1.
         -5    1    3    3    0  502 -0.30814147585E+02  0.54868440014E+02 -0.40581242293E+02  0.74995780061E+02  0.41800000000E+01 0. -1.
        -11    1    4    4    0    0 -0.72348588353E+01  0.31437485106E+02 -0.42110023217E+01  0.32532924749E+02  0.00000000000E+00 0.  1.
         11    1    4    4    0    0  0.48632406564E+02 -0.17882400493E+02 -0.10204227702E+03  0.11444438612E+03  0.00000000000E+00 0. -1.
</event>
<event>
 8    1  0.6689467E-009  0.1100017E+03  0.7561462E-02  0.1260567E+00
          1   -1    0    0  501    0  0.00000000000E+00  0.00000000000E+00  0.15827449925E+03  0.15827449925E+03  0.00000000000E+00 0. -1.
         -1   -1    0    0    0  501 -0.00000000000E+00 -0.00000000000E+00 -0.92004002145E+02  0.92004002145E+02  0.00000000000E+00 0.  1.
         25    2    1    2    0    0  0.66608012619E+01 -0.21707656090E+02 -0.12012633127E+02  0.12770002219E+03  0.12508958272E+03 0.  0.
         23    2    1    2    0    0 -0.66608012619E+01  0.21707656090E+02  0.78283130230E+02  0.12257847921E+03  0.91551332482E+02 0.  0.
          5    1    3    3  502    0  0.59984616453E+02  0.14888543328E+02 -0.10796930811E+02  0.62879798412E+02  0.41800000000E+01 0.  1.
         -5    1    3    3    0  502 -0.53323815191E+02 -0.36596199417E+02 -0.12157023161E+01  0.64820223777E+02  0.41800000000E+01 0.  1.
        -11    1    4    4    0    0 -0.40945822863E+02  0.37480214583E+02  0.55498985187E+02  0.78494995076E+02  0.00000000000E+00 0.  1.
         11    1    4    4    0    0  0.34285021602E+02 -0.15772558493E+02  0.22784145043E+02  0.44083484129E+02  0.00000000000E+00 0. -1.
</event>
<event>
 8    1  0.6689467E-009  0.1305120E+03  0.7561462E-02  0.1226698E+00
         -2   -1    0    0    0  501 -0.00000000000E+00  0.00000000000E+00  0.19991001947E+02  0.19991001947E+02  0.00000000000E+00 0.  1.
          2   -1    0    0  501    0  0.00000000000E+00 -0.00000000000E+00 -0.86199959227E+03  0.86199959227E+03  0.00000000000E+00 0. -1.
         25    2    1    2    0    0  0.73267148670E+02 -0.11079071849E+02 -0.45204769785E+03  0.47485731103E+03  0.12510605020E+03 0.  0.
         23    2    1    2    0    0 -0.73267148670E+02  0.11079071849E+02 -0.38996089247E+03  0.40713328319E+03  0.90538343894E+02 0.  0.
          5    1    3    3  502    0  0.52626539052E+02  0.54221740234E+02 -0.20761810591E+03  0.22098031593E+03  0.41800000000E+01 0.  1.
         -5    1    3    3    0  502  0.20640609618E+02 -0.65300812084E+02 -0.24442959194E+03  0.25387699510E+03  0.41800000000E+01 0.  1.
        -11    1    4    4    0    0 -0.20335812048E+02  0.48045676970E+02 -0.16084907153E+03  0.16909865800E+03  0.00000000000E+00 0. -1.
         11    1    4    4    0    0 -0.52931336622E+02 -0.36966605121E+02 -0.22911182095E+03  0.23803462519E+03  0.00000000000E+00 0.  1.
</event>
<event>
 8    1  0.6689467E-009  0.1659136E+03  0.7561462E-02  0.1182178E+00
         -4   -1    0    0    0  501 -0.00000000000E+00  0.00000000000E+00  0.34447460533E+02  0.34447460533E+02  0.00000000000E+00 0.  1.
          4   -1    0    0  501    0  0.00000000000E+00 -0.00000000000E+00 -0.81131811603E+03  0.81131811603E+03  0.00000000000E+00 0. -1.
         25    2    1    2    0    0  0.41685508932E+01  0.12822534689E+03 -0.39735652574E+03  0.43588772736E+03  0.12508711329E+03 0.  0.
         23    2    1    2    0    0 -0.41685508932E+01 -0.12822534689E+03 -0.37951412975E+03  0.40987784920E+03  0.86658872499E+02 0.  0.
          5    1    3    3  502    0 -0.59272254027E+02  0.49999614788E+02 -0.15376214995E+03  0.17225978270E+03  0.41800000000E+01 0.  1.
         -5    1    3    3    0  502  0.63440804920E+02  0.78225732100E+02 -0.24359437579E+03  0.26362794467E+03  0.41800000000E+01 0.  1.
        -11    1    4    4    0    0  0.38873366797E+02 -0.43528781231E+02 -0.17247801382E+03  0.18208393310E+03  0.00000000000E+00 0. -1.
         11    1    4    4    0    0 -0.43041917690E+02 -0.84696565656E+02 -0.20703611593E+03  0.22779391610E+03  0.00000000000E+00 0.  1.
</event>
<event>
 8    1  0.6689467E-009  0.1085757E+03  0.7561462E-02  0.1263230E+00
         -1   -1    0    0    0  501 -0.00000000000E+00  0.00000000000E+00  0.66980828325E+02  0.66980828325E+02  0.00000000000E+00 0.  1.
          1   -1    0    0  501    0  0.00000000000E+00 -0.00000000000E+00 -0.27087808676E+03  0.27087808676E+03  0.00000000000E+00 0. -1.
         25    2    1    2    0    0  0.75298347399E+02 -0.20972743774E+02 -0.15194823602E+03  0.21176386319E+03  0.12508385276E+03 0.  0.
         23    2    1    2    0    0 -0.75298347399E+02  0.20972743774E+02 -0.51949022409E+02  0.12609505189E+03  0.84211424875E+02 0.  0.
          5    1    3    3  502    0  0.23312327671E+01 -0.38265194416E+02  0.39027202346E+01  0.38760332495E+02  0.41800000000E+01 0. -1.
         -5    1    3    3    0  502  0.72967114632E+02  0.17292450642E+02 -0.15585095626E+03  0.17300353070E+03  0.41800000000E+01 0. -1.
        -11    1    4    4    0    0 -0.40636262011E+02  0.45512488982E+02 -0.56786330468E+02  0.83350943435E+02  0.00000000000E+00 0. -1.
         11    1    4    4    0    0 -0.34662085388E+02 -0.24539745209E+02  0.48373080587E+01  0.42744108454E+02  0.00000000000E+00 0.  1.
</event>
<event>
 8    1  0.6689467E-009  0.1000533E+03  0.7561462E-02  0.1280184E+00
          4   -1    0    0  501    0  0.00000000000E+00  0.00000000000E+00  0.57741699991E+02  0.57741699991E+02  0.00000000000E+00 0. -1.
         -4   -1    0    0    0  501 -0.00000000000E+00 -0.00000000000E+00 -0.25184500526E+03  0.25184500526E+03  0.00000000000E+00 0.  1.
         25    2    1    2    0    0 -0.38095500214E+02 -0.37215002366E+02 -0.12138171720E+03  0.18225045808E+03  0.12508191181E+03 0.  0.
         23    2    1    2    0    0  0.38095500214E+02  0.37215002366E+02 -0.72721588067E+02  0.12733624717E+03  0.89943687575E+02 0.  0.
          5    1    3    3  502    0 -0.18854251459E+02  0.40954792625E+02 -0.12870834224E+02  0.47073438483E+02  0.41800000000E+01 0.  1.
         -5    1    3    3    0  502 -0.19241248756E+02 -0.78169794991E+02 -0.10851088298E+03  0.13517701960E+03  0.41800000000E+01 0.  1.
        -11    1    4    4    0    0  0.18714120025E+02 -0.11376889817E+02  0.14045790694E+02  0.26017996588E+02  0.00000000000E+00 0. -1.
         11    1    4    4    0    0  0.19381380189E+02  0.48591892183E+02 -0.86767378761E+02  0.10131825058E+03  0.00000000000E+00 0.  1.
</event>
<event>
 8    1  0.6689467E-009  0.1065430E+03  0.7561462E-02  0.1267109E+00
          3   -1    0    0  501    0  0.00000000000E+00  0.00000000000E+00  0.39853902225E+03  0.39853902225E+03  0.00000000000E+00 0. -1.
         -3   -1    0    0    0  501 -0.00000000000E+00 -0.00000000000E+00 -0.47087691143E+02  0.47087691143E+02  0.00000000000E+00 0.  1.
         25    2    1    2    0    0  0.63202436149E+02  0.53085984057E+02  0.16579779243E+03  0.22351123976E+03  0.12512272649E+03 0.  0.
         23    2    1    2    0    0 -0.63202436149E+02 -0.53085984057E+02  0.18565353868E+03  0.22211547364E+03  0.89751755228E+02 0.  0.
          5    1    3    3  502    0  0.68133059334E+02  0.48760372158E+02  0.18481639694E+03  0.20296369292E+03  0.41800000000E+01 0. -1.
         -5    1    3    3    0  502 -0.49306231855E+01  0.43256118993E+01 -0.19018604512E+02  0.20547546833E+02  0.41800000000E+01 0. -1.
        -11    1    4    4    0    0 -0.85580184158E+02 -0.34282229755E+02  0.14928100846E+03  0.17545386483E+03  0.00000000000E+00 0. -1.
         11    1    4    4    0    0  0.22377748009E+02 -0.18803754302E+02  0.36372530222E+02  0.46661608809E+02  0.00000000000E+00 0.  1.
</event>
<event>
 8    1  0.6689467E-009  0.1010665E+03  0.7561462E-02  0.1278069E+00
         -2   -1    0    0    0  501 -0.00000000000E+00  0.00000000000E+00  0.24127612558E+02  0.24127612558E+02  0.00000000000E+00 0.  1.
          2   -1    0    0  501    0  0.00000000000E+00 -0.00000000000E+00 -0.78338690244E+03  0.78338690244E+03  0.00000000000E+00 0. -1.
         25    2    1    2    0    0 -0.77599332121E+02 -0.28557766445E+02 -0.40848360986E+03  0.43515125299E+03  0.12514212354E+03 0.  0.
         23    2    1    2    0    0  0.77599332121E+02  0.28557766445E+02 -0.35077568002E+03  0.37236326201E+03  0.93667597545E+02 0.  0.
          5    1    3    3  502    0 -0.18497832296E+02 -0.63536319075E+01  0.17408112800E+01  0.20075887576E+02  0.41800000000E+01 0.  1.
         -5    1    3    3    0  502 -0.59101499825E+02 -0.22204134538E+02 -0.41022442114E+03  0.41507536542E+03  0.41800000000E+01 0.  1.
        -11    1    4    4    0    0 -0.17556446034E+02  0.14296473463E+02 -0.12351565459E+03  0.12557362334E+03  0.00000000000E+00 0. -1.
         11    1    4    4    0    0  0.95155778155E+02  0.14261292983E+02 -0.22726002543E+03  0.24678963867E+03  0.00000000000E+00 0.  1.
</event>
<event>
 8    1  0.6689467E-009  0.1584222E+03  0.7561462E-02  0.1190490E+00
          2   -1    0    0  501    0  0.00000000000E+00  0.00000000000E+00  0.46789345937E+03  0.46789345937E+03  0.00000000000E+00 0. -1.
         -2   -1    0    0    0  501 -0.00000000000E+00 -0.00000000000E+00 -0.79060397816E+02  0.79060397816E+02  0.00000000000E+00 0.  1.
         25    2    1    2    0    0 -0.14144568323E+02  0.13024466546E+03  0.77024876288E+02  0.19684120514E+03  0.12509950751E+03 0.  0.
         23    2    1    2    0    0  0.14144568323E+02 -0.13024466546E+03  0.31180818526E+03  0.35011265205E+03  0.90502944878E+02 0.  0.
          5    1    3    3  502    0 -0.40029705470E+02  0.48603463153E+01  0.52644946246E+02  0.66445188325E+02  0.41800000000E+01 0. -1.
         -5    1    3    3    0  502  0.25885137146E+02  0.12538431914E+03  0.24379930042E+02  0.13039601681E+03  0.41800000000E+01 0. -1.
        -11    1    4    4    0    0 -0.26281362151E+02 -0.76959552119E+02  0.23279881959E+03  0.24659434921E+03  0.00000000000E+00 0.  1.
         11    1    4    4    0    0  0.40425930475E+02 -0.53285113338E+02  0.79009365676E+02  0.10351830284E+03  0.00000000000E+00 0. -1.
</event>
<event>
 8    1  0.6689467E-009  0.1639032E+03  0.7561462E-02  0.1184359E+00
         -2   -1    0    0    0  501 -0.00000000000E+00  0.00000000000E+00  0.77103243715E+02  0.77103243715E+02  0.00000000000E+00 0. -1.
          2   -1    0    0  501    0  0.00000000000E+00 -0.00000000000E+00 -0.47567442224E+03  0.47567442224E+03  0.00000000000E+00 0.  1.
         25    2    1    2    0    0  0.13849202929E+03 -0.53258491582E+02 -0.13357098438E+03  0.23559572172E+03  0.12509047575E+03 0.  0.
         23    2    1    2    0    0 -0.13849202929E+03  0.53258491582E+02 -0.26500019414E+03  0.31718194423E+03  0.91448202533E+02 0.  0.
          5    1    3    3  502    0  0.14709581451E+03 -0.28951804593E+02 -0.67341352208E+02  0.16440108197E+03  0.41800000000E+01 0. -1.
         -5    1    3    3    0  502 -0.86037852131E+01 -0.24306686989E+02 -0.66229632173E+02  0.71194639757E+02  0.41800000000E+01 0. -1.
        -11    1    4    4    0    0 -0.56524826797E+02  0.38585287074E+02 -0.20048258337E+03  0.21184226835E+03  0.00000000000E+00 0.  1.
         11    1    4    4    0    0 -0.81967202496E+02  0.14673204508E+02 -0.64517610771E+02  0.10533967588E+03  0.00000000000E+00 0. -1.
</event>
<event>
 8    1  0.6689467E-009  0.9461079E+02  0.7561462E-02  0.1292055E+00
          2   -1    0    0  501    0  0.00000000000E+00  0.00000000000E+00  0.18514631467E+03  0.18514631467E+03  0.00000000000E+00 0. -1.
         -2   -1    0    0    0  501 -0.00000000000E+00 -0.00000000000E+00 -0.65358701578E+02  0.65358701578E+02  0.00000000000E+00 0.  1.
         25    2    1    2    0    0 -0.17029154014E+02  0.70521836072E+01  0.79717782421E+02  0.14946220948E+03  0.12507718356E+03 0.  0.
         23    2    1    2    0    0  0.17029154014E+02 -0.70521836072E+01  0.40069830669E+02  0.10104280677E+03  0.90908371943E+02 0.  0.
          5    1    3    3  502    0 -0.29927474964E+02 -0.39813312532E+02 -0.64948498739E+01  0.50402471044E+02  0.41800000000E+01 0.  1.
         -5    1    3    3    0  502  0.12898320950E+02  0.46865496139E+02  0.86212632295E+02  0.99059738435E+02  0.41800000000E+01 0.  1.
        -11    1    4    4    0    0 -0.35795849373E+02 -0.11085680690E+02  0.27807066785E+02  0.46663348700E+02  0.00000000000E+00 0.  1.
         11    1    4    4    0    0  0.52825003387E+02  0.40334970831E+01  0.12262763884E+02  0.54379458067E+02  0.00000000000E+00 0. -1.
</event>
<event>
 8    1  0.6689467E-009  0.3065818E+03  0.7561462E-02  0.1081996E+00
         -2   -1    0    0    0  501 -0.00000000000E+00  0.00000000000E+00  0.63494235658E+02  0.63494235658E+02  0.00000000000E+00 0.  1.
          2   -1    0    0  501    0  0.00000000000E+00 -0.00000000000E+00 -0.16650787400E+04  0.16650787400E+04  0.00000000000E+00 0. -1.
         25    2    1    2    0    0 -0.29592166238E+03  0.71271181734E+02 -0.72552637265E+03  0.79667164131E+03  0.12509186642E+03 0.  0.
         23    2    1    2    0    0  0.29592166238E+03 -0.71271181734E+02 -0.87605813174E+03  0.93190133440E+03  0.91175847978E+02 0.  0.
          5    1    3    3  502    0 -0.27290773679E+03  0.51140683343E+02 -0.70948197473E+03  0.76188985239E+03  0.41800000000E+01 0.  1.
         -5    1    3    3    0  502 -0.23013925584E+02  0.20130498391E+02 -0.16044397919E+02  0.34781788926E+02  0.41800000000E+01 0.  1.
        -11    1    4    4    0    0  0.15484982013E+03 -0.31204156903E+02 -0.58546216390E+03  0.60639765135E+03  0.00000000000E+00 0. -1.
         11    1    4    4    0    0  0.14107184225E+03 -0.40067024831E+02 -0.29059596784E+03  0.32550368304E+03  0.00000000000E+00 0.  1.
</event>
<event>
 8    1  0.6689467E-009  0.1565868E+03  0.7561462E-02  0.1192605E+00
          2   -1    0    0  501    0  0.00000000000E+00  0.00000000000E+00  0.44860266949E+03  0.44860266949E+03  0.00000000000E+00 0.  1.
         -2   -1    0    0    0  501 -0.00000000000E+00 -0.00000000000E+00 -0.13329359277E+03  0.13329359277E+03  0.00000000000E+00 0. -1.
         25    2    1    2    0    0 -0.14257307751E+02 -0.12831981100E+03  0.37362680936E+03  0.41462605191E+03  0.12509406674E+03 0.  0.
         23    2    1    2    0    0  0.14257307751E+02  0.12831981100E+03 -0.58317732647E+02  0.16727021035E+03  0.88933236806E+02 0.  0.
          5    1    3    3  502    0 -0.30103330565E+01  0.15808225007E+02  0.31524949774E+01  0.16922550268E+02  0.41800000000E+01 0.  1.
         -5    1    3    3    0  502 -0.11246974695E+02 -0.14412803601E+03  0.37047431438E+03  0.39770350165E+03  0.41800000000E+01 0.  1.
        -11    1    4    4    0    0 -0.24835752971E+02  0.10154367552E+03 -0.20229906217E+02  0.10647620283E+03  0.00000000000E+00 0.  1.
         11    1    4    4    0    0  0.39093060722E+02  0.26776135484E+02 -0.38087826430E+02  0.60794007519E+02  0.00000000000E+00 0. -1.
</event>
<event>
 8    1  0.6689467E-009  0.1411419E+03  0.7561462E-02  0.1211801E+00
         -1   -1    0    0    0  501 -0.00000000000E+00  0.00000000000E+00  0.44555624623E+02  0.44555624623E+02  0.00000000000E+00 0.  1.
          1   -1    0    0  501    0  0.00000000000E+00 -0.00000000000E+00 -0.65899646198E+03  0.65899646198E+03  0.00000000000E+00 0. -1.
         25    2    1    2    0    0 -0.13118524678E+03  0.16695161554E+02 -0.31332045071E+03  0.36236776581E+03  0.12510953389E+03 0.  0.
         23    2    1    2    0    0  0.13118524678E+03 -0.16695161554E+02 -0.30112038665E+03  0.34118432080E+03  0.90801740686E+02 0.  0.
          5    1    3    3  502    0 -0.12229878454E+03  0.36062260896E+02 -0.14700939418E+03  0.19464509688E+03  0.41800000000E+01 0.  1.
         -5    1    3    3    0  502 -0.88864622335E+01 -0.19367099342E+02 -0.16631105653E+03  0.16772266893E+03  0.41800000000E+01 0.  1.
        -11    1    4    4    0    0  0.72596118451E+02 -0.21490889084E+01 -0.64993042846E+02  0.97462354864E+02  0.00000000000E+00 0. -1.
         11    1    4    4    0    0  0.58589128327E+02 -0.14546072646E+02 -0.23612734380E+03  0.24372196593E+03  0.00000000000E+00 0.  1.
</event>
<event>
 8    1  0.6689467E-009  0.9452221E+02  0.7561462E-02  0.1292256E+00
         -1   -1    0    0    0  501 -0.00000000000E+00  0.00000000000E+00  0.13801203695E+02  0.13801203695E+02  0.00000000000E+00 0.  1.
          1   -1    0    0  501    0  0.00000000000E+00 -0.00000000000E+00 -0.10215447137E+04  0.10215447137E+04  0.00000000000E+00 0. -1.
         25    2    1    2    0    0  0.90980101315E+01 -0.75434449792E+01 -0.77033537420E+03  0.78052058345E+03  0.12512439848E+03 0.  0.
         23    2    1    2    0    0 -0.90980101315E+01  0.75434449792E+01 -0.23740813581E+03  0.25482533395E+03  0.91834909067E+02 0.  0.
          5    1    3    3  502    0  0.30085193315E+02  0.39917135250E+02 -0.60744998217E+03  0.60951739087E+03  0.41800000000E+01 0. -1.
         -5    1    3    3    0  502 -0.20987183183E+02 -0.47460580229E+02 -0.16288539204E+03  0.17100319258E+03  0.41800000000E+01 0. -1.
        -11    1    4    4    0    0 -0.31552263219E+02  0.37740623242E+02 -0.17652796398E+03  0.18325398229E+03  0.00000000000E+00 0. -1.
         11    1    4    4    0    0  0.22454253088E+02 -0.30197178263E+02 -0.60880171822E+02  0.71571351656E+02  0.00000000000E+00 0.  1.
</event>
<event>
 8    1  0.6689467E-009  0.1503101E+03  0.7561462E-02  0.1200092E+00
          1   -1    0    0  501    0  0.00000000000E+00  0.00000000000E+00  0.13112743819E+03  0.13112743819E+03  0.00000000000E+00 0. -1.
         -1   -1    0    0    0  501 -0.00000000000E+00 -0.00000000000E+00 -0.20387990794E+03  0.20387990794E+03  0.00000000000E+00 0.  1.
         25    2    1    2    0    0  0.10978423410E+03  0.51075918083E+02 -0.24222755727E+02  0.17577412062E+03  0.12509385324E+03 0.  0.
         23    2    1    2    0    0 -0.10978423410E+03 -0.51075918083E+02 -0.48529714029E+02  0.15923322552E+03  0.91316808419E+02 0.  0.
          5    1    3    3  502    0 -0.18905228435E+02  0.36681824623E+02 -0.20241398784E+02  0.46153553975E+02  0.41800000000E+01 0.  1.
         -5    1    3    3    0  502  0.12868946253E+03  0.14394093460E+02 -0.39813569432E+01  0.12962056664E+03  0.41800000000E+01 0.  1.
        -11    1    4    4    0    0 -0.77860645218E+01 -0.22274463163E+02  0.21726787426E+02  0.32075345700E+02  0.00000000000E+00 0.  1.
         11    1    4    4    0    0 -0.10199816958E+03 -0.28801454920E+02 -0.70256501455E+02  0.12715787982E+03  0.00000000000E+00 0. -1.
</event>
<event>
 7    1  0.6689467E-009  0.1536845E+03  0.7561462E-02  0.1196017E+00
         -4   -1    0    0    0  501 -0.00000000000E+00  0.00000000000E+00  0.21933180168E+03  0.21933180168E+03  0.00000000000E+00 0.  1.
          4   -1    0    0  501    0  0.00000000000E+00 -0.00000000000E+00 -0.27638071308E+03  0.27638071308E+03  0.00000000000E+00 0. -1.
         23    2    1    2    0    0 -0.25011406352E+02  0.13084961048E+03 -0.20418292507E+03  0.26096845952E+03  0.93094999662E+02 0.  0.
          5    1    1    2  502    0  0.67743439884E+02 -0.10164481125E+03  0.67351348596E+02  0.13955112991E+03  0.41800000000E+01 0.  1.
         -5    1    1    2    0  502 -0.42732033532E+02 -0.29204799231E+02  0.79782665068E+02  0.95192925333E+02  0.41800000000E+01 0.  1.
        -11    1    3    3    0    0 -0.16952012267E+02  0.87413249779E+02 -0.19702949188E+03  0.21621532699E+03  0.00000000000E+00 0.  1.
         11    1    3    3    0    0 -0.80593940851E+01  0.43436360704E+02 -0.71534331883E+01  0.44753132523E+02  0.00000000000E+00 0. -1.
</event>
<event>
 8    1  0.6689467E-009  0.1190422E+03  0.7561462E-02  0.1244686E+00
         -2   -1    0    0    0  501 -0.00000000000E+00  0.00000000000E+00  0.41653555582E+02  0.41653555582E+02  0.00000000000E+00 0.  1.
          2   -1    0    0  501    0  0.00000000000E+00 -0.00000000000E+00 -0.36531661704E+03  0.36531661704E+03  0.00000000000E+00 0. -1.
         25    2    1    2    0    0 -0.22309524626E+01 -0.51146686761E+02 -0.13254929947E+03  0.18930748325E+03  0.12508815175E+03 0.  0.
         23    2    1    2    0    0  0.22309524626E+01  0.51146686761E+02 -0.19111376198E+03  0.21766268937E+03  0.90728251439E+02 0.  0.
          5    1    3    3  502    0 -0.61529347874E+02 -0.12266851651E+02 -0.75128232431E+02  0.97969689228E+02  0.41800000000E+01 0. -1.
         -5    1    3    3    0  502  0.59298395411E+02 -0.38879835111E+02 -0.57421067043E+02  0.91337794023E+02  0.41800000000E+01 0. -1.
        -11    1    4    4    0    0  0.34522022516E+02  0.61275944435E+02 -0.12961822888E+03  0.14746998564E+03  0.00000000000E+00 0. -1.
         11    1    4    4    0    0 -0.32291070053E+02 -0.10129257673E+02 -0.61495533099E+02  0.70192703732E+02  0.00000000000E+00 0.  1.
</event>
<event>
 8    1  0.6689467E-009  0.4037904E+03  0.7561462E-02  0.1042475E+00
          1   -1    0    0  501    0  0.00000000000E+00  0.00000000000E+00  0.10401865924E+04  0.10401865924E+04  0.00000000000E+00 0. -1.
         -1   -1    0    0    0  501 -0.00000000000E+00 -0.00000000000E+00 -0.17639031505E+03  0.17639031505E+03  0.00000000000E+00 0.  1.
         25    2    1    2    0    0  0.16405453107E+03  0.36440995750E+03  0.59021202522E+03  0.72367574387E+03  0.12509133164E+03 0.  0.
         23    2    1    2    0    0 -0.16405453107E+03 -0.36440995750E+03  0.27358425208E+03  0.49290116354E+03  0.91622637692E+02 0.  0.
          5    1    3    3  502    0  0.20340346837E+01  0.57069168414E+02  0.30470899976E+02  0.64861201237E+02  0.41800000000E+01 0.  1.
         -5    1    3    3    0  502  0.16202049639E+03  0.30734078908E+03  0.55974112525E+03  0.65881454263E+03  0.41800000000E+01 0.  1.
        -11    1    4    4    0    0 -0.10195903213E+02 -0.69393819691E+02  0.85874009455E+02  0.11087742851E+03  0.00000000000E+00 0. -1.
         11    1    4    4    0    0 -0.15385862786E+03 -0.29501613781E+03  0.18771024263E+03  0.38202373502E+03  0.00000000000E+00 0.  1.
</event>
<event>
 8    1  0.6689467E-009  0.7794725E+02  0.7561462E-02  0.1334980E+00
          2   -1    0    0  501    0  0.00000000000E+00  0.00000000000E+00  0.83911666613E+02  0.83911666613E+02  0.00000000000E+00 0. -1.
         -2   -1    0    0    0  501 -0.00000000000E+00 -0.00000000000E+00 -0.14021426258E+03  0.14021426258E+03  0.00000000000E+00 0.  1.
         25    2    1    2    0    0  0.26538655823E+01  0.27966912586E+02 -0.44383667768E+02  0.13569397839E+03  0.12511496555E+03 0.  0.
         23    2    1    2    0    0 -0.26538655823E+01 -0.27966912586E+02 -0.11918928201E+02  0.88431950806E+02  0.82999746216E+02 0.  0.
          5    1    3    3  502    0  0.48256250463E+02  0.22920571587E+02  0.19419081761E+02  0.56996416090E+02  0.41800000000E+01 0.  1.
         -5    1    3    3    0  502 -0.45602384881E+02  0.50463409995E+01 -0.63802749529E+02  0.78697562299E+02  0.41800000000E+01 0.  1.
        -11    1    4    4    0    0 -0.25398936985E+02 -0.10178836864E+02  0.28009616303E+02  0.39156778791E+02  0.00000000000E+00 0. -1.
         11    1    4    4    0    0  0.22745071402E+02 -0.17788075722E+02 -0.39928544503E+02  0.49275172015E+02  0.00000000000E+00 0.  1.
</event>
<event>
 8    1  0.6689467E-009  0.1407956E+03  0.7561462E-02  0.1212262E+00
          1   -1    0    0  501    0  0.00000000000E+00  0.00000000000E+00  0.62733232060E+03  0.62733232060E+03  0.00000000000E+00 0. -1.
         -1   -1    0    0    0  501 -0.00000000000E+00 -0.00000000000E+00 -0.40177999571E+02  0.40177999571E+02  0.00000000000E+00 0.  1.
         25    2    1    2    0    0 -0.20902749326E+01  0.11523244513E+03  0.29847744246E+03  0.34353862457E+03  0.12508843775E+03 0.  0.
         23    2    1    2    0    0  0.20902749326E+01 -0.11523244513E+03  0.28867687857E+03  0.32397169560E+03  0.91325974773E+02 0.  0.
          5    1    3    3  502    0 -0.48211129582E+01 -0.11200350007E+02  0.14071037028E+03  0.14129958130E+03  0.41800000000E+01 0.  1.
         -5    1    3    3    0  502  0.27308380257E+01  0.12643279513E+03  0.15776707218E+03  0.20223904327E+03  0.41800000000E+01 0.  1.
        -11    1    4    4    0    0  0.42600628807E+02 -0.63428126748E+02  0.19571186255E+03  0.21009777243E+03  0.00000000000E+00 0.  1.
         11    1    4    4    0    0 -0.40510353875E+02 -0.51804318378E+02  0.92965016015E+02  0.11387392316E+03  0.00000000000E+00 0. -1.
</event>
<event>
 8    1  0.6689467E-009  0.1353996E+03  0.7561462E-02  0.1219657E+00
          1   -1    0    0  501    0  0.00000000000E+00  0.00000000000E+00  0.57628666419E+03  0.57628666419E+03  0.00000000000E+00 0. -1.
         -1   -1    0    0    0  501 -0.00000000000E+00 -0.00000000000E+00 -0.39104604107E+02  0.39104604107E+02  0.00000000000E+00 0.  1.
         25    2    1    2    0    0 -0.85865601123E+02 -0.37553884237E+02  0.19057823341E+03  0.24647495515E+03  0.12508654920E+03 0.  0.
         23    2    1    2    0    0  0.85865601123E+02  0.37553884237E+02  0.34660382667E+03  0.36891631314E+03  0.84745724144E+02 0.  0.
          5    1    3    3  502    0 -0.11033711020E+03 -0.45454350104E+02  0.18442519669E+03  0.21970548788E+03  0.41800000000E+01 0. -1.
         -5    1    3    3    0  502  0.24471509075E+02  0.79004658668E+01  0.61530367222E+01  0.26769467276E+02  0.41800000000E+01 0. -1.
        -11    1    4    4    0    0  0.48058304734E+02 -0.23524787661E+02  0.12530910161E+03  0.13625486132E+03  0.00000000000E+00 0. -1.
         11    1    4    4    0    0  0.37807296389E+02  0.61078671898E+02  0.22129472507E+03  0.23266145182E+03  0.00000000000E+00 0.  1.
</event>
<event>
 8    1  0.6689467E-009  0.1976839E+03  0.7561462E-02  0.1151708E+00
         -1   -1    0    0    0  501 -0.00000000000E+00  0.00000000000E+00  0.34373252693E+03  0.34373252693E+03  0.00000000000E+00 0.  1.
          1   -1    0    0  501    0  0.00000000000E+00 -0.00000000000E+00 -0.15274350994E+03  0.15274350994E+03  0.00000000000E+00 0. -1.
         25    2    1    2    0    0  0.35137539829E+02 -0.19379748123E+03  0.53468450195E+02  0.23937275743E+03  0.12509329078E+03 0.  0.
         23    2    1    2    0    0 -0.35137539829E+02  0.19379748123E+03  0.13752056680E+03  0.25710327944E+03  0.91641036497E+02 0.  0.
          5    1    3    3  502    0  0.23903335595E+02 -0.11733534182E+03 -0.32051018822E+02  0.12403101265E+03  0.41800000000E+01 0.  1.
         -5    1    3    3    0  502  0.11234204234E+02 -0.76462139409E+02  0.85519469017E+02  0.11534174478E+03  0.41800000000E+01 0.  1.
        -11    1    4    4    0    0 -0.28661607289E+02  0.97159362862E+02  0.12271417272E+03  0.15912321550E+03  0.00000000000E+00 0.  1.
         11    1    4    4    0    0 -0.64759325404E+01  0.96638118367E+02  0.14806394073E+02  0.97980063938E+02  0.00000000000E+00 0. -1.
</event>
<event>
 8    1  0.6689467E-009  0.1049950E+03  0.7561462E-02  0.1270129E+00
         -4   -1    0    0    0  501 -0.00000000000E+00  0.00000000000E+00  0.11306630568E+03  0.11306630568E+03  0.00000000000E+00 0.  1.
          4   -1    0    0  501    0  0.00000000000E+00 -0.00000000000E+00 -0.10441412199E+03  0.10441412199E+03  0.00000000000E+00 0. -1.
         25    2    1    2    0    0 -0.31692587252E+01 -0.34790930593E+02  0.11748554352E+02  0.13040719681E+03  0.12509018906E+03 0.  0.
         23    2    1    2    0    0  0.31692587252E+01  0.34790930593E+02 -0.30963706644E+01  0.87073230854E+02  0.79697597001E+02 0.  0.
          5    1    3    3  502    0 -0.51596827242E+02 -0.56172771530E+02  0.19786871507E+01  0.76413352535E+02  0.41800000000E+01 0.  1.
         -5    1    3    3    0  502  0.48427568517E+02  0.21381840937E+02  0.97698672010E+01  0.53993844274E+02  0.41800000000E+01 0.  1.
        -11    1    4    4    0    0 -0.17478234650E+02 -0.17222636098E+02 -0.16448135536E+02  0.29540633765E+02  0.00000000000E+00 0. -1.
         11    1    4    4    0    0  0.20647493375E+02  0.52013566691E+02  0.13351764872E+02  0.57532597088E+02  0.00000000000E+00 0.  1.
</event>
<event>
 8    1  0.6689467E-009  0.1020920E+03  0.7561462E-02  0.1275957E+00
         -1   -1    0    0    0  501 -0.00000000000E+00  0.00000000000E+00  0.48312538656E+02  0.48312538656E+02  0.00000000000E+00 0.  1.
          1   -1    0    0  501    0  0.00000000000E+00 -0.00000000000E+00 -0.39653827329E+03  0.39653827329E+03  0.00000000000E+00 0. -1.
         25    2    1    2    0    0  0.55146703587E+02  0.32926654886E+02 -0.97482236795E+02  0.17113081350E+03  0.12513051315E+03 0.  0.
         23    2    1    2    0    0 -0.55146703587E+02 -0.32926654886E+02 -0.25074349783E+03  0.27371999844E+03  0.89022538271E+02 0.  0.
          5    1    3    3  502    0  0.94408850818E+02  0.20076034175E+02 -0.52655656652E+02  0.11002803660E+03  0.41800000000E+01 0.  1.
         -5    1    3    3    0  502 -0.39262147231E+02  0.12850620710E+02 -0.44826580142E+02  0.61102776901E+02  0.41800000000E+01 0.  1.
        -11    1    4    4    0    0 -0.15154011454E+02 -0.17592752200E+02 -0.43401686488E+01  0.23621728493E+02  0.00000000000E+00 0.  1.
         11    1    4    4    0    0 -0.39992692133E+02 -0.15333902686E+02 -0.24640332919E+03  0.25009826994E+03  0.00000000000E+00 0. -1.
</event>
<event>
 8    1  0.6689467E-009  0.7962405E+02  0.7561462E-02  0.1330122E+00
         -2   -1    0    0    0  501 -0.00000000000E+00  0.00000000000E+00  0.42768859141E+02  0.42768859141E+02  0.00000000000E+00 0. -1.
          2   -1    0    0  501    0  0.00000000000E+00 -0.00000000000E+00 -0.32524950374E+03  0.32524950374E+03  0.00000000000E+00 0.  1.
         25    2    1    2    0    0 -0.32068451828E+02  0.22118586203E+02 -0.11751311758E+03  0.17599579318E+03  0.12509024324E+03 0.  0.
         23    2    1    2    0    0  0.32068451828E+02 -0.22118586203E+02 -0.16496752702E+03  0.19202256971E+03  0.90226187153E+02 0.  0.
          5    1    3    3  502    0 -0.41114121405E+02  0.43611543295E+02 -0.13418840926E+03  0.14702496138E+03  0.41800000000E+01 0. -1.
         -5    1    3    3    0  502  0.90456695770E+01 -0.21492957091E+02  0.16675291679E+02  0.28970831800E+02  0.41800000000E+01 0. -1.
        -11    1    4    4    0    0 -0.18247818279E+02 -0.16931417437E+02 -0.12527809739E+03  0.12772727765E+03  0.00000000000E+00 0.  1.
         11    1    4    4    0    0  0.50316270106E+02 -0.51871687663E+01 -0.39689429624E+02  0.64295292060E+02  0.00000000000E+00 0. -1.
</event>
<event>
 8    1  0.6689467E-009  0.9872164E+02  0.7561462E-02  0.1283007E+00
         -2   -1    0    0    0  501 -0.00000000000E+00  0.00000000000E+00  0.40868936149E+03  0.40868936149E+03  0.00000000000E+00 0.  1.
          2   -1    0    0  501    0  0.00000000000E+00 -0.00000000000E+00 -0.29999492108E+02  0.29999492108E+02  0.00000000000E+00 0. -1.
         25    2    1    2    0    0  0.10356337217E+02  0.21698604418E+02  0.18598218078E+03  0.22542225949E+03  0.12509092833E+03 0.  0.
         23    2    1    2    0    0 -0.10356337217E+02 -0.21698604418E+02  0.19270768860E+03  0.21326659410E+03  0.88137981387E+02 0.  0.
          5    1    3    3  502    0 -0.25338865885E+02 -0.42017522156E+02  0.45557247220E+02  0.67085508619E+02  0.41800000000E+01 0.  1.
         -5    1    3    3    0  502  0.35695203101E+02  0.63716126574E+02  0.14042493356E+03  0.15833675087E+03  0.41800000000E+01 0.  1.
        -11    1    4    4    0    0 -0.40849194453E+02 -0.16769082943E+02  0.16801612047E+03  0.17372183388E+03  0.00000000000E+00 0.  1.
         11    1    4    4    0    0  0.30492857237E+02 -0.49295214748E+01  0.24691568125E+02  0.39544760221E+02  0.00000000000E+00 0. -1.
</event>
<event>
 8    1  0.6689467E-009  0.1186690E+03  0.7561462E-02  0.1245309E+00
         -2   -1    0    0    0  501 -0.00000000000E+00  0.00000000000E+00  0.45598923427E+03  0.45598923427E+03  0.00000000000E+00 0. -1.
          2   -1    0    0  501    0  0.00000000000E+00 -0.00000000000E+00 -0.40066338754E+02  0.40066338754E+02  0.00000000000E+00 0.  1.
         25    2    1    2    0    0  0.67219212221E+02  0.40024200070E+02  0.20566204780E+03  0.25310881173E+03  0.12508730386E+03 0.  0.
         23    2    1    2    0    0 -0.67219212221E+02 -0.40024200070E+02  0.21026084772E+03  0.24294676129E+03  0.93237040155E+02 0.  0.
          5    1    3    3  502    0  0.45688560893E+02 -0.25350076628E+02  0.21850704963E+02  0.56789054306E+02  0.41800000000E+01 0. -1.
         -5    1    3    3    0  502  0.21530651328E+02  0.65374276698E+02  0.18381134284E+03  0.19631975743E+03  0.41800000000E+01 0. -1.
        -11    1    4    4    0    0 -0.38253923080E+02 -0.66503610645E+02  0.17106190505E+03  0.18747871404E+03  0.00000000000E+00 0.  1.
         11    1    4    4    0    0 -0.28965289141E+02  0.26479410575E+02  0.39198942666E+02  0.55468047248E+02  0.00000000000E+00 0. -1.
</event>
<event>
 8    1  0.6689467E-009  0.6927946E+02  0.7561462E-02  0.1362561E+00
          1   -1    0    0  501    0  0.00000000000E+00  0.00000000000E+00  0.11003544829E+04  0.11003544829E+04  0.00000000000E+00 0. -1.
         -1   -1    0    0    0  501 -0.00000000000E+00 -0.00000000000E+00 -0.15645675899E+02  0.15645675899E+02  0.00000000000E+00 0.  1.
         25    2    1    2    0    0  0.50307215612E+02  0.66828924260E+01  0.82106992608E+03  0.83209321703E+03  0.12509125199E+03 0.  0.
         23    2    1    2    0    0 -0.50307215612E+02 -0.66828924260E+01  0.26363888096E+03  0.28390694180E+03  0.92315844022E+02 0.  0.
          5    1    3    3  502    0  0.31309524612E+00  0.23477968584E+02  0.26063268791E+02  0.35328167481E+02  0.41800000000E+01 0.  1.
         -5    1    3    3    0  502  0.49994120366E+02 -0.16795076158E+02  0.79500665729E+03  0.79676504955E+03  0.41800000000E+01 0.  1.
        -11    1    4    4    0    0 -0.46325339365E+02  0.76287293846E+01  0.26487186489E+03  0.26900063084E+03  0.00000000000E+00 0. -1.
         11    1    4    4    0    0 -0.39818762465E+01 -0.14311621811E+02 -0.12329839323E+01  0.14906310968E+02  0.00000000000E+00 0.  1.
</event>
<event>
 8    1  0.6689467E-009  0.1200835E+03  0.7561462E-02  0.1242959E+00
          1   -1    0    0  501    0  0.00000000000E+00  0.00000000000E+00  0.26164375498E+03  0.26164375498E+03  0.00000000000E+00 0. -1.
         -1   -1    0    0    0  501 -0.00000000000E+00 -0.00000000000E+00 -0.91977639150E+02  0.91977639150E+02  0.00000000000E+00 0.  1.
         25    2    1    2    0    0  0.50354966546E+02  0.11733040331E+02  0.19968275378E+03  0.24123379228E+03  0.12508898227E+03 0.  0.
         23    2    1    2    0    0 -0.50354966546E+02 -0.11733040331E+02 -0.30016637952E+02  0.11238760185E+03  0.95166630734E+02 0.  0.
          5    1    3    3  502    0 -0.35597739228E+02  0.26719834748E+02  0.94268100538E+02  0.10433166243E+03  0.41800000000E+01 0.  1.
         -5    1    3    3    0  502  0.85952705775E+02 -0.14986794416E+02  0.10541465324E+03  0.13690212984E+03  0.41800000000E+01 0.  1.
        -11    1    4    4    0    0  0.26970350309E+02  0.83267751711E+01 -0.10814290937E+02  0.30227204121E+02  0.00000000000E+00 0.  1.
         11    1    4    4    0    0 -0.77325316855E+02 -0.20059815502E+02 -0.19202347015E+02  0.82160397733E+02  0.00000000000E+00 0. -1.
</event>
<event>
 8    1  0.6689467E-009  0.9803027E+02  0.7561462E-02  0.1284493E+00
         -1   -1    0    0    0  501 -0.00000000000E+00  0.00000000000E+00  0.45162246660E+02  0.45162246660E+02  0.00000000000E+00 0.  1.
          1   -1    0    0  501    0  0.00000000000E+00 -0.00000000000E+00 -0.33120191574E+03  0.33120191574E+03  0.00000000000E+00 0. -1.
         25    2    1    2    0    0  0.25412988279E+02  0.38004253463E+02 -0.10575049173E+03  0.17005943229E+03  0.12508757235E+03 0.  0.
         23    2    1    2    0    0 -0.25412988279E+02 -0.38004253463E+02 -0.18028917736E+03  0.20630473011E+03  0.89259794651E+02 0.  0.
          5    1    3    3  502    0 -0.36792624117E+02  0.37639307684E+02 -0.69836084898E+01  0.53260284076E+02  0.41800000000E+01 0. -1.
         -5    1    3    3    0  502  0.62205612396E+02  0.36494577906E+00 -0.98766883237E+02  0.11679914821E+03  0.41800000000E+01 0. -1.
        -11    1    4    4    0    0  0.15119539269E+02  0.99682798539E+01 -0.31758987747E+01  0.18386228651E+02  0.00000000000E+00 0.  1.
         11    1    4    4    0    0 -0.40532527548E+02 -0.47972533317E+02 -0.17711327858E+03  0.18791850146E+03  0.00000000000E+00 0. -1.
</event>
<event>
 8    1  0.6689467E-009  0.8674378E+02  0.7561462E-02  0.1310934E+00
         -1   -1    0    0    0  501 -0.00000000000E+00  0.00000000000E+00  0.38891364938E+02  0.38891364938E+02  0.00000000000E+00 0.  1.
          1   -1    0    0  501    0  0.00000000000E+00 -0.00000000000E+00 -0.46672882157E+03  0.46672882157E+03  0.00000000000E+00 0. -1.
         25    2    1    2    0    0 -0.71801954232E+02  0.23264702601E+02 -0.28581066185E+03  0.32098361785E+03  0.12508389778E+03 0.  0.
         23    2    1    2    0    0  0.71801954232E+02 -0.23264702601E+02 -0.14202679478E+03  0.18463656866E+03  0.90676816389E+02 0.  0.
          5    1    3    3  502    0  0.62269600744E+01 -0.94804518526E+01  0.84629417735E+01  0.14756279428E+02  0.41800000000E+01 0.  1.
         -5    1    3    3    0  502 -0.78028914307E+02  0.32745154454E+02 -0.29427360362E+03  0.30622733842E+03  0.41800000000E+01 0.  1.
        -11    1    4    4    0    0  0.40145052281E+02 -0.19996854813E+02 -0.63738033991E+01  0.45300384047E+02  0.00000000000E+00 0.  1.
         11    1    4    4    0    0  0.31656901951E+02 -0.32678477882E+01 -0.13565299138E+03  0.13933618461E+03  0.00000000000E+00 0. -1.
</event>
<event>
 8    1  0.6689467E-009  0.1124255E+03  0.7561462E-02  0.1256143E+00
          1   -1    0    0  501    0  0.00000000000E+00  0.00000000000E+00  0.20584025994E+03  0.20584025994E+03  0.00000000000E+00 0. -1.
         -1   -1    0    0    0  501 -0.00000000000E+00 -0.00000000000E+00 -0.67177714273E+02  0.67177714273E+02  0.00000000000E+00 0.  1.
         25    2    1    2    0    0 -0.17117183983E+02 -0.39869913851E+02  0.89462213680E+02  0.15979145120E+03  0.12508881717E+03 0.  0.
         23    2    1    2    0    0  0.17117183983E+02  0.39869913851E+02  0.49200331983E+02  0.11322652301E+03  0.92287403407E+02 0.  0.
          5    1    3    3  502    0 -0.32507853576E+02 -0.77970411871E+02  0.82030468870E+02  0.11782451313E+03  0.41800000000E+01 0. -1.
         -5    1    3    3    0  502  0.15390669593E+02  0.38100498020E+02  0.74317448102E+01  0.41966938069E+02  0.41800000000E+01 0. -1.
        -11    1    4    4    0    0  0.34997756852E+02  0.61587562602E+02  0.46996375513E+02  0.85009000484E+02  0.00000000000E+00 0. -1.
         11    1    4    4    0    0 -0.17880572869E+02 -0.21717648751E+02  0.22039564701E+01  0.28217522526E+02  0.00000000000E+00 0.  1.
</event>
<event>
 8    1  0.6689467E-009  0.1736131E+03  0.7561462E-02  0.1174131E+00
         -2   -1    0    0    0  501 -0.00000000000E+00  0.00000000000E+00  0.28199562309E+03  0.28199562309E+03  0.00000000000E+00 0.  1.
          2   -1    0    0  501    0  0.00000000000E+00 -0.00000000000E+00 -0.12745682065E+03  0.12745682065E+03  0.00000000000E+00 0. -1.
         25    2    1    2    0    0 -0.10956517672E+03  0.10568897691E+03  0.11183489715E+03  0.22656121696E+03  0.12509297750E+03 0.  0.
         23    2    1    2    0    0  0.10956517672E+03 -0.10568897691E+03  0.42703905283E+02  0.18289122678E+03  0.91928719748E+02 0.  0.
          5    1    3    3  502    0  0.32774445867E+01  0.54234426124E+02 -0.67612111859E+01  0.54911756453E+02  0.41800000000E+01 0.  1.
         -5    1    3    3    0  502 -0.11284262131E+03  0.51454550788E+02  0.11859610834E+03  0.17164946051E+03  0.41800000000E+01 0.  1.
        -11    1    4    4    0    0  0.89081836054E+02 -0.36130763356E+02  0.52806750475E+02  0.10967934387E+03  0.00000000000E+00 0.  1.
         11    1    4    4    0    0  0.20483340667E+02 -0.69558213557E+02 -0.10102845192E+02  0.73211882909E+02  0.00000000000E+00 0. -1.
</event>
<event>
 8    1  0.6689467E-009  0.1653245E+03  0.7561462E-02  0.1182813E+00
          2   -1    0    0  501    0  0.00000000000E+00  0.00000000000E+00  0.81498943476E+03  0.81498943476E+03  0.00000000000E+00 0. -1.
         -2   -1    0    0    0  501 -0.00000000000E+00 -0.00000000000E+00 -0.53765369209E+02  0.53765369209E+02  0.00000000000E+00 0.  1.
         25    2    1    2    0    0  0.15459244185E+03 -0.49783527281E+01  0.20959687519E+03  0.28896735367E+03  0.12509066441E+03 0.  0.
         23    2    1    2    0    0 -0.15459244185E+03  0.49783527281E+01  0.55162719036E+03  0.57978745031E+03  0.89091656783E+02 0.  0.
          5    1    3    3  502    0  0.12428673672E+03 -0.48900023620E+01  0.22314887769E+03  0.25550733661E+03  0.41800000000E+01 0. -1.
         -5    1    3    3    0  502  0.30305705132E+02 -0.88350366143E-01 -0.13552002503E+02  0.33460017053E+02  0.41800000000E+01 0. -1.
        -11    1    4    4    0    0 -0.42713618063E+02 -0.36598557736E+02  0.22850763518E+03  0.23532880599E+03  0.00000000000E+00 0. -1.
         11    1    4    4    0    0 -0.11187882379E+03  0.41576910464E+02  0.32311955519E+03  0.34445864431E+03  0.00000000000E+00 0.  1.
</event>
<event>
 8    1  0.6689467E-009  0.7347180E+02  0.7561462E-02  0.1348670E+00
         -2   -1    0    0    0  501 -0.00000000000E+00  0.00000000000E+00  0.82239866673E+02  0.82239866673E+02  0.00000000000E+00 0.  1.
          2   -1    0    0  501    0  0.00000000000E+00 -0.00000000000E+00 -0.17841406726E+03  0.17841406726E+03  0.00000000000E+00 0. -1.
         25    2    1    2    0    0 -0.54789310739E+02  0.17383110906E+02 -0.53795829463E+02  0.14780152376E+03  0.12508900048E+03 0.  0.
         23    2    1    2    0    0  0.54789310739E+02 -0.17383110906E+02 -0.42378371128E+02  0.11285241018E+03  0.87382486964E+02 0.  0.
          5    1    3    3  502    0  0.66345801168E+01 -0.15642332845E+02 -0.73224298133E+02  0.75285924761E+02  0.41800000000E+01 0.  1.
         -5    1    3    3    0  502 -0.61423890856E+02  0.33025443751E+02  0.19428468670E+02  0.72515598995E+02  0.41800000000E+01 0.  1.
        -11    1    4    4    0    0  0.38262899039E+02 -0.19456116387E+02 -0.69110287105E+02  0.81356141080E+02  0.00000000000E+00 0. -1.
         11    1    4    4    0    0  0.16526411700E+02  0.20730054815E+01  0.26731915977E+02  0.31496269100E+02  0.00000000000E+00 0.  1.
</event>
<event>
 8    1  0.6689467E-009  0.1115685E+03  0.7561462E-02  0.1257692E+00
         -3   -1    0    0    0  501 -0.00000000000E+00  0.00000000000E+00  0.15049644888E+03  0.15049644888E+03  0.00000000000E+00 0.  1.
          3   -1    0    0  501    0  0.00000000000E+00 -0.00000000000E+00 -0.11553432158E+03  0.11553432158E+03  0.00000000000E+00 0. -1.
         25    2    1    2    0    0 -0.56577129322E+01 -0.73967826676E+02  0.17216719898E+02  0.14644906857E+03  0.12509062772E+03 0.  0.
         23    2    1    2    0    0  0.56577129322E+01  0.73967826676E+02  0.17745407395E+02  0.11958170189E+03  0.92095791671E+02 0.  0.
          5    1    3    3  502    0 -0.22655165316E+02 -0.93366990780E+02  0.46824209595E+02  0.10696088298E+03  0.41800000000E+01 0. -1.
         -5    1    3    3    0  502  0.16997452383E+02  0.19399164104E+02 -0.29607489698E+02  0.39488185596E+02  0.41800000000E+01 0. -1.
        -11    1    4    4    0    0 -0.29696769311E+02  0.18259909261E+02 -0.23250013596E+02  0.41903287770E+02  0.00000000000E+00 0. -1.
         11    1    4    4    0    0  0.35354482243E+02  0.55707917414E+02  0.40995420991E+02  0.77678414116E+02  0.00000000000E+00 0.  1.
</event>
<event>
 8    1  0.6689467E-009  0.1998567E+03  0.7561462E-02  0.1149860E+00
         -2   -1    0    0    0  501 -0.00000000000E+00  0.00000000000E+00  0.40923514866E+02  0.40923514866E+02  0.00000000000E+00 0.  1.
          2   -1    0    0  501    0  0.00000000000E+00 -0.00000000000E+00 -0.11130121721E+04  0.11130121721E+04  0.00000000000E+00 0. -1.
         25    2    1    2    0    0 -0.17438865126E+03  0.50301704800E+02 -0.68963150451E+03  0.72400288010E+03  0.12508755008E+03 0.  0.
         23    2    1    2    0    0  0.17438865126E+03 -0.50301704800E+02 -0.38245715273E+03  0.42993280687E+03  0.75013875781E+02 0.  0.
          5    1    3    3  502    0 -0.87359575237E+01  0.40743186722E+02 -0.26133287564E+03  0.26466708996E+03  0.41800000000E+01 0.  1.
         -5    1    3    3    0  502 -0.16565269373E+03  0.95585180781E+01 -0.42829862887E+03  0.45933579014E+03  0.41800000000E+01 0.  1.
        -11    1    4    4    0    0  0.43945648522E+02  0.14401757502E+02 -0.13632838630E+03  0.14395853415E+03  0.00000000000E+00 0. -1.
         11    1    4    4    0    0  0.13044300273E+03 -0.64703462302E+02 -0.24612876642E+03  0.28597427272E+03  0.00000000000E+00 0.  1.
</event>
<event>
 8    1  0.6689467E-009  0.1359428E+03  0.7561462E-02  0.1218895E+00
          2   -1    0    0  501    0  0.00000000000E+00  0.00000000000E+00  0.10919459825E+04  0.10919459825E+04  0.00000000000E+00 0. -1.
         -2   -1    0    0    0  501 -0.00000000000E+00 -0.00000000000E+00 -0.47775174714E+02  0.47775174714E+02  0.00000000000E+00 0.  1.
         25    2    1    2    0    0 -0.26818841886E+02 -0.10399792233E+03  0.96802915859E+03  0.98196900548E+03  0.12509139747E+03 0.  0.
         23    2    1    2    0    0  0.26818841886E+02  0.10399792233E+03  0.76141649193E+02  0.15775215173E+03  0.86910140395E+02 0.  0.
          5    1    3    3  502    0 -0.74804183163E+02 -0.80117565772E+02  0.58631190908E+03  0.59648438144E+03  0.41800000000E+01 0.  1.
         -5    1    3    3    0  502  0.47985341277E+02 -0.23880356559E+02  0.38171724950E+03  0.38548462404E+03  0.41800000000E+01 0.  1.
        -11    1    4    4    0    0  0.14843392604E+02  0.82504374735E+02  0.67184288953E+01  0.84097773105E+02  0.00000000000E+00 0.  1.
         11    1    4    4    0    0  0.11975449282E+02  0.21493547596E+02  0.69423220298E+02  0.73654378623E+02  0.00000000000E+00 0. -1.
</event>
<event>
 8    1  0.6689467E-009  0.1594573E+03  0.7561462E-02  0.1189311E+00
          2   -1    0    0  501    0  0.00000000000E+00  0.00000000000E+00  0.14757851485E+04  0.14757851485E+04  0.00000000000E+00 0. -1.
         -2   -1    0    0    0  501 -0.00000000000E+00 -0.00000000000E+00 -0.25394049566E+02  0.25394049566E+02  0.00000000000E+00 0.  1.
         25    2    1    2    0    0  0.13446948239E+03  0.41957616956E+02  0.10563265540E+04  0.10729937823E+04  0.12508950776E+03 0.  0.
         23    2    1    2    0    0 -0.13446948239E+03 -0.41957616956E+02  0.39406454500E+03  0.42818541578E+03  0.90627817754E+02 0.  0.
          5    1    3    3  502    0  0.98826121885E+02  0.71144412026E+02  0.93908975707E+03  0.94696102030E+03  0.41800000000E+01 0.  1.
         -5    1    3    3    0  502  0.35643360503E+02 -0.29186795071E+02  0.11723679689E+03  0.12603276201E+03  0.41800000000E+01 0.  1.
        -11    1    4    4    0    0 -0.23074996802E+02  0.13123380344E+02  0.17877395727E+02  0.32004372623E+02  0.00000000000E+00 0.  1.
         11    1    4    4    0    0 -0.11139448559E+03 -0.55080997300E+02  0.37618714927E+03  0.39618104316E+03  0.00000000000E+00 0. -1.
</event>
<event>
 8    1  0.6689467E-009  0.3551669E+03  0.7561462E-02  0.1060514E+00
         -2   -1    0    0    0  501 -0.00000000000E+00  0.00000000000E+00  0.53345261838E+02  0.53345261838E+02  0.00000000000E+00 0.  1.
          2   -1    0    0  501    0  0.00000000000E+00 -0.00000000000E+00 -0.29565740108E+04  0.29565740108E+04  0.00000000000E+00 0. -1.
         25    2    1    2    0    0  0.85415169224E+02 -0.32889973366E+03 -0.21289729673E+04  0.21595473195E+04  0.12509173980E+03 0.  0.
         23    2    1    2    0    0 -0.85415169224E+02  0.32889973366E+03 -0.77425578164E+03  0.85037195320E+03  0.90496726216E+02 0.  0.
          5    1    3    3  502    0 -0.32832442085E+02 -0.68005271708E+02 -0.44499830592E+03  0.45137971920E+03  0.41800000000E+01 0.  1.
         -5    1    3    3    0  502  0.11824761131E+03 -0.26089446195E+03 -0.16839746614E+04  0.17081676003E+04  0.41800000000E+01 0.  1.
        -11    1    4    4    0    0 -0.72771933179E+01  0.17935534935E+03 -0.45802883086E+03  0.49194685565E+03  0.00000000000E+00 0.  1.
         11    1    4    4    0    0 -0.78137975906E+02  0.14954438431E+03 -0.31622695078E+03  0.35842509755E+03  0.00000000000E+00 0. -1.
</event>
<event>
 8    1  0.6689467E-009  0.8240643E+02  0.7561462E-02  0.1322358E+00
         -2   -1    0    0    0  501 -0.00000000000E+00  0.00000000000E+00  0.89738336532E+02  0.89738336532E+02  0.00000000000E+00 0.  1.
          2   -1    0    0  501    0  0.00000000000E+00 -0.00000000000E+00 -0.26570727117E+03  0.26570727117E+03  0.00000000000E+00 0. -1.
         25    2    1    2    0    0 -0.38026113964E+02  0.35133350140E+02 -0.20702781172E+03  0.24736946891E+03  0.12510316418E+03 0.  0.
         23    2    1    2    0    0  0.38026113964E+02 -0.35133350140E+02  0.31058877091E+02  0.10807613878E+03  0.89640728985E+02 0.  0.
          5    1    3    3  502    0  0.23133154535E+02  0.18747047637E+02  0.79202234955E+00  0.30078137131E+02  0.41800000000E+01 0. -1.
         -5    1    3    3    0  502 -0.61159268499E+02  0.16386302503E+02 -0.20781983407E+03  0.21729133178E+03  0.41800000000E+01 0. -1.
        -11    1    4    4    0    0  0.26972561067E+02  0.68895867038E+01  0.52648798430E+02  0.59555700245E+02  0.00000000000E+00 0.  1.
         11    1    4    4    0    0  0.11053552897E+02 -0.42022936844E+02 -0.21589921339E+02  0.48520438539E+02  0.00000000000E+00 0. -1.
</event>
<event>
 8    1  0.6689467E-009  0.1020040E+03  0.7561462E-02  0.1276137E+00
         -2   -1    0    0    0  501 -0.00000000000E+00  0.00000000000E+00  0.91115436621E+01  0.91115436621E+01  0.00000000000E+00 0.  1.
          2   -1    0    0  501    0  0.00000000000E+00 -0.00000000000E+00 -0.15122118448E+04  0.15122118448E+04  0.00000000000E+00 0. -1.
         25    2    1    2    0    0 -0.23277837163E+02  0.31315500726E+02 -0.95776809952E+03  0.96669317293E+03  0.12511370771E+03 0.  0.
         23    2    1    2    0    0  0.23277837163E+02 -0.31315500726E+02 -0.54533220167E+03  0.55463021558E+03  0.93300308490E+02 0.  0.
          5    1    3    3  502    0  0.71421026717E+01 -0.31725139584E+02 -0.84865827393E+02  0.90978982031E+02  0.41800000000E+01 0. -1.
         -5    1    3    3    0  502 -0.30419939835E+02  0.63040640310E+02 -0.87290227212E+03  0.87571419090E+03  0.41800000000E+01 0. -1.
        -11    1    4    4    0    0  0.14254648083E+02 -0.64837036808E+02 -0.35154031183E+03  0.35775358443E+03  0.00000000000E+00 0.  1.
         11    1    4    4    0    0  0.90231890804E+01  0.33521536082E+02 -0.19379188984E+03  0.19687663115E+03  0.00000000000E+00 0. -1.
</event>
<event>
 8    1  0.6689467E-009  0.1210903E+03  0.7561462E-02  0.1241309E+00
         -1   -1    0    0    0  501 -0.00000000000E+00  0.00000000000E+00  0.66285668494E+02  0.66285668494E+02  0.00000000000E+00 0.  1.
          1   -1    0    0  501    0  0.00000000000E+00 -0.00000000000E+00 -0.22617773505E+03  0.22617773505E+03  0.00000000000E+00 0. -1.
         25    2    1    2    0    0 -0.41817778440E+02 -0.36943151413E+02 -0.83784985364E+02  0.16055886506E+03  0.12508278198E+03 0.  0.
         23    2    1    2    0    0  0.41817778440E+02  0.36943151413E+02 -0.76107081194E+02  0.13190453848E+03  0.92157454580E+02 0.  0.
          5    1    3    3  502    0 -0.55854695390E+02 -0.75952587473E+02 -0.66498069711E+02  0.11544699310E+03  0.41800000000E+01 0. -1.
         -5    1    3    3    0  502  0.14036916949E+02  0.39009436060E+02 -0.17286915653E+02  0.45111871962E+02  0.41800000000E+01 0. -1.
        -11    1    4    4    0    0 -0.28671066350E+02  0.67339521678E+01 -0.31769843140E+02  0.43320885154E+02  0.00000000000E+00 0. -1.
         11    1    4    4    0    0  0.70488844790E+02  0.30209199245E+02 -0.44337238054E+02  0.88583653329E+02  0.00000000000E+00 0.  1.
</event>
<event>
 8    1  0.6689467E-009  0.1513169E+03  0.7561462E-02  0.1198864E+00
         -1   -1    0    0    0  501 -0.00000000000E+00  0.00000000000E+00  0.49139706825E+03  0.49139706825E+03  0.00000000000E+00 0.  1.
          1   -1    0    0  501    0  0.00000000000E+00 -0.00000000000E+00 -0.70780125679E+02  0.70780125679E+02  0.00000000000E+00 0. -1.
         25    2    1    2    0    0  0.11361706139E+03  0.18983990357E+01  0.70599186526E+02  0.18315523589E+03  0.12509658164E+03 0.  0.
         23    2    1    2    0    0 -0.11361706139E+03 -0.18983990357E+01  0.35001775605E+03  0.37902195804E+03  0.90734638213E+02 0.  0.
          5    1    3    3  502    0 -0.23815018434E+02  0.67916296718E+01 -0.58109390489E+01  0.25778299968E+02  0.41800000000E+01 0.  1.
         -5    1    3    3    0  502  0.13743207982E+03 -0.48932306361E+01  0.76410125575E+02  0.15737693592E+03  0.41800000000E+01 0.  1.
        -11    1    4    4    0    0 -0.97953865773E+02  0.31626426801E+02  0.20544325011E+03  0.22978711824E+03  0.00000000000E+00 0.  1.
         11    1    4    4    0    0 -0.15663195615E+02 -0.33524825837E+02  0.14457450594E+03  0.14923483980E+03  0.00000000000E+00 0. -1.
</event>
<event>
 8    1  0.6689467E-009  0.1526251E+03  0.7561462E-02  0.1197284E+00
          2   -1    0    0  501    0  0.00000000000E+00  0.00000000000E+00  0.14986133744E+04  0.14986133744E+04  0.00000000000E+00 0. -1.
         -2   -1    0    0    0  501 -0.00000000000E+00 -0.00000000000E+00 -0.16313404507E+02  0.16313404507E+02  0.00000000000E+00 0.  1.
         25    2    1    2    0    0 -0.82134202527E+02  0.75443037221E+02  0.86337459994E+03  0.87948852185E+03  0.12508669455E+03 0.  0.
         23    2    1    2    0    0  0.82134202527E+02 -0.75443037221E+02  0.61892536999E+03  0.63543825710E+03  0.90969697548E+02 0.  0.
          5    1    3    3  502    0 -0.56774693145E+02 -0.22420820904E+02  0.22614009278E+03  0.23427093920E+03  0.41800000000E+01 0. -1.
         -5    1    3    3    0  502 -0.25359509382E+02  0.97863858125E+02  0.63723450716E+03  0.64521758265E+03  0.41800000000E+01 0. -1.
        -11    1    4    4    0    0  0.73658290387E+02 -0.70812350031E+01  0.35843461300E+03  0.36599325052E+03  0.00000000000E+00 0. -1.
         11    1    4    4    0    0  0.84759121397E+01 -0.68361802218E+02  0.26049075700E+03  0.26944500658E+03  0.00000000000E+00 0.  1.
</event>
<event>
 8    1  0.6689467E-009  0.1498927E+03  0.7561462E-02  0.1200605E+00
          2   -1    0    0  501    0  0.00000000000E+00  0.00000000000E+00  0.18678556963E+04  0.18678556963E+04  0.00000000000E+00 0.  1.
         -2   -1    0    0    0  501 -0.00000000000E+00 -0.00000000000E+00 -0.16072695081E+02  0.16072695081E+02  0.00000000000E+00 0. -1.
         25    2    1    2    0    0 -0.26633787225E+02  0.11130661291E+03  0.13707070491E+04  0.13811528586E+04  0.12508750387E+03 0.  0.
         23    2    1    2    0    0  0.26633787225E+02 -0.11130661291E+03  0.48107595205E+03  0.50277553273E+03  0.90833055495E+02 0.  0.
          5    1    3    3  502    0  0.24744580492E+02  0.11426680556E+03  0.10144600411E+04  0.10211835508E+04  0.41800000000E+01 0. -1.
         -5    1    3    3    0  502 -0.51378367716E+02 -0.29601926440E+01  0.35624700803E+03  0.35996930777E+03  0.41800000000E+01 0. -1.
        -11    1    4    4    0    0  0.45094345154E+02 -0.50921620921E+02  0.13702658054E+03  0.15297972159E+03  0.00000000000E+00 0. -1.
         11    1    4    4    0    0 -0.18460557929E+02 -0.60384991990E+02  0.34404937151E+03  0.34979581115E+03  0.00000000000E+00 0.  1.
</event>
<event>
 8    1  0.6689467E-009  0.1681638E+03  0.7561462E-02  0.1179776E+00
          1   -1    0    0  501    0  0.00000000000E+00  0.00000000000E+00  0.19715104686E+03  0.19715104686E+03  0.00000000000E+00 0. -1.
         -1   -1    0    0    0  501 -0.00000000000E+00 -0.00000000000E+00 -0.18155847283E+03  0.18155847283E+03  0.00000000000E+00 0.  1.
         25    2    1    2    0    0  0.14031378019E+03 -0.54706252556E+02 -0.24372032074E+02  0.19728959615E+03  0.12509379610E+03 0.  0.
         23    2    1    2    0    0 -0.14031378019E+03  0.54706252556E+02  0.39964606099E+02  0.18141992354E+03  0.92926249973E+02 0.  0.
          5    1    3    3  502    0 -0.13126843756E+02  0.12069769660E+02  0.16858508178E+02  0.24893273481E+02  0.41800000000E+01 0. -1.
         -5    1    3    3    0  502  0.15344062395E+03 -0.66776022215E+02 -0.41230540252E+02  0.17239632267E+03  0.41800000000E+01 0. -1.
        -11    1    4    4    0    0 -0.74554417998E+02  0.27843773202E+02 -0.26759239963E+02  0.83962455137E+02  0.00000000000E+00 0.  1.
         11    1    4    4    0    0 -0.65759362196E+02  0.26862479354E+02  0.66723846062E+02  0.97457468399E+02  0.00000000000E+00 0. -1.
</event>
<event>
 8    1  0.6689467E-009  0.4216546E+03  0.7561462E-02  0.1036529E+00
          2   -1    0    0  501    0  0.00000000000E+00  0.00000000000E+00  0.52085261927E+03  0.52085261927E+03  0.00000000000E+00 0. -1.
         -2   -1    0    0    0  501 -0.00000000000E+00 -0.00000000000E+00 -0.41030461624E+03  0.41030461624E+03  0.00000000000E+00 0.  1.
         25    2    1    2    0    0  0.21066701454E+03 -0.35368931325E+03 -0.12411690717E+03  0.44780489826E+03  0.12508996336E+03 0.  0.
         23    2    1    2    0    0 -0.21066701454E+03  0.35368931325E+03  0.23466491021E+03  0.48335233725E+03  0.95316003467E+02 0.  0.
          5    1    3    3  502    0  0.21803702500E+03 -0.34835195207E+03 -0.10188713945E+03  0.42342376925E+03  0.41800000000E+01 0.  1.
         -5    1    3    3    0  502 -0.73700104609E+01 -0.53373611890E+01 -0.22229767729E+02  0.24381129012E+02  0.41800000000E+01 0.  1.
        -11    1    4    4    0    0 -0.68697668401E+01  0.84001671228E+02  0.40230654807E+02  0.93391541650E+02  0.00000000000E+00 0.  1.
         11    1    4    4    0    0 -0.20379724770E+03  0.26968764203E+03  0.19443425540E+03  0.38996079560E+03  0.00000000000E+00 0. -1.
</event>
<event>
 8    1  0.6689467E-009  0.1294465E+03  0.7561462E-02  0.1228279E+00
          1   -1    0    0  501    0  0.00000000000E+00  0.00000000000E+00  0.73161496309E+02  0.73161496309E+02  0.00000000000E+00 0. -1.
         -1   -1    0    0    0  501 -0.00000000000E+00 -0.00000000000E+00 -0.35730579849E+03  0.35730579849E+03  0.00000000000E+00 0.  1.
         25    2    1    2    0    0 -0.65018769958E+02  0.82404294150E+02 -0.73551223692E+02  0.17909360948E+03  0.12508729076E+03 0.  0.
         23    2    1    2    0    0  0.65018769958E+02 -0.82404294150E+02 -0.21059307849E+03  0.25137368532E+03  0.88438548276E+02 0.  0.
          5    1    3    3  502    0 -0.18064264338E+02  0.96867443008E+02 -0.10694712591E+02  0.99204175508E+02  0.41800000000E+01 0. -1.
         -5    1    3    3    0  502 -0.46954505620E+02 -0.14463148857E+02 -0.62856511102E+02  0.79889433974E+02  0.41800000000E+01 0. -1.
        -11    1    4    4    0    0  0.51067784997E+02 -0.35946006085E+02 -0.40342453174E+02  0.74347478411E+02  0.00000000000E+00 0. -1.
         11    1    4    4    0    0  0.13950984961E+02 -0.46458288065E+02 -0.17025062532E+03  0.17702620691E+03  0.00000000000E+00 0.  1.
</event>
<event>
 8    1  0.6689467E-009  0.1793868E+03  0.7561462E-02  0.1168398E+00
          1   -1    0    0  501    0  0.00000000000E+00  0.00000000000E+00  0.24681243540E+03  0.24681243540E+03  0.00000000000E+00 0. -1.
         -1   -1    0    0    0  501 -0.00000000000E+00 -0.00000000000E+00 -0.17075007693E+03  0.17075007693E+03  0.00000000000E+00 0.  1.
         25    2    1    2    0    0 -0.10746134293E+03  0.13423682481E+03  0.12323163587E+02  0.21299531882E+03  0.12509068757E+03 0.  0.
         23    2    1    2    0    0  0.10746134293E+03 -0.13423682481E+03  0.63739194890E+02  0.20456719351E+03  0.90650903666E+02 0.  0.
          5    1    3    3  502    0 -0.81112157579E+02  0.44101995934E+02 -0.45105578807E+02  0.10284042878E+03  0.41800000000E+01 0. -1.
         -5    1    3    3    0  502 -0.26349185353E+02  0.90134828879E+02  0.57428742395E+02  0.11015489004E+03  0.41800000000E+01 0. -1.
        -11    1    4    4    0    0  0.51333224935E+02 -0.73510894587E+02  0.80150200066E+02  0.12026223919E+03  0.00000000000E+00 0. -1.
         11    1    4    4    0    0  0.56128117997E+02 -0.60725930225E+02 -0.16411005177E+02  0.84304954317E+02  0.00000000000E+00 0.  1.
</event>
<event>
 8    1  0.6689467E-009  0.1307679E+03  0.7561462E-02  0.1226321E+00
          2   -1    0    0  501    0  0.00000000000E+00  0.00000000000E+00  0.47454175921E+03  0.47454175921E+03  0.00000000000E+00 0. -1.
         -2   -1    0    0    0  501 -0.00000000000E+00 -0.00000000000E+00 -0.45722409194E+02  0.45722409194E+02  0.00000000000E+00 0.  1.
         25    2    1    2    0    0 -0.11048992128E+02 -0.79045782869E+02  0.12858936179E+03  0.19633808510E+03  0.12507239375E+03 0.  0.
         23    2    1    2    0    0  0.11048992128E+02  0.79045782869E+02  0.30022998823E+03  0.32392608330E+03  0.91759171737E+02 0.  0.
          5    1    3    3  502    0 -0.25579092681E+02  0.24420841352E+02  0.75789080850E+01  0.36408511676E+02  0.41800000000E+01 0.  1.
         -5    1    3    3    0  502  0.14530100553E+02 -0.10346662422E+03  0.12101045370E+03  0.15992957342E+03  0.41800000000E+01 0.  1.
        -11    1    4    4    0    0  0.36011826113E+02 -0.24803721416E+01  0.99142599646E+02  0.10550952057E+03  0.00000000000E+00 0. -1.
         11    1    4    4    0    0 -0.24962833985E+02  0.81526155011E+02  0.20108738858E+03  0.21841656274E+03  0.00000000000E+00 0.  1.
</event>
<event>
 8    1  0.6689467E-009  0.1371770E+03  0.7561462E-02  0.1217179E+00
          3   -1    0    0  501    0  0.00000000000E+00  0.00000000000E+00  0.16994781557E+04  0.16994781557E+04  0.00000000000E+00 0. -1.
         -3   -1    0    0    0  501 -0.00000000000E+00 -0.00000000000E+00 -0.24330640247E+02  0.24330640247E+02  0.00000000000E+00 0.  1.
         25    2    1    2    0    0 -0.11868468332E+03 -0.72997035928E+01  0.13974133503E+04  0.14080313392E+04  0.12509532655E+03 0.  0.
         23    2    1    2    0    0  0.11868468332E+03  0.72997035928E+01  0.27773416516E+03  0.31577745680E+03  0.91868362331E+02 0.  0.
          5    1    3    3  502    0 -0.63271346715E+02  0.24810930851E+02  0.11629705182E+04  0.11649621213E+04  0.41800000000E+01 0. -1.
         -5    1    3    3    0  502 -0.55413336602E+02 -0.32110634443E+02  0.23444283217E+03  0.24306921786E+03  0.41800000000E+01 0. -1.
        -11    1    4    4    0    0  0.94871626431E+02  0.38880732350E+02  0.24055477450E+03  0.26149366414E+03  0.00000000000E+00 0. -1.
         11    1    4    4    0    0  0.23813056886E+02 -0.31581028758E+02  0.37179390665E+02  0.54283792662E+02  0.00000000000E+00 0.  1.
</event>
<event>
 8    1  0.6689467E-009  0.1514145E+03  0.7561462E-02  0.1198746E+00
          1   -1    0    0  501    0  0.00000000000E+00  0.00000000000E+00  0.23451460552E+02  0.23451460552E+02  0.00000000000E+00 0. -1.
         -1   -1    0    0    0  501 -0.00000000000E+00 -0.00000000000E+00 -0.13212278268E+04  0.13212278268E+04  0.00000000000E+00 0.  1.
         25    2    1    2    0    0 -0.13527651360E+03  0.22623608489E+02 -0.63197885297E+03  0.65867739684E+03  0.12508828764E+03 0.  0.
         23    2    1    2    0    0  0.13527651360E+03 -0.22623608489E+02 -0.66579751325E+03  0.68600189049E+03  0.92199253332E+02 0.  0.
          5    1    3    3  502    0 -0.63950812689E+02  0.37232387196E+02 -0.51860311874E+03  0.52387271762E+03  0.41800000000E+01 0. -1.
         -5    1    3    3    0  502 -0.71325700910E+02 -0.14608778708E+02 -0.11337573424E+03  0.13480467922E+03  0.41800000000E+01 0. -1.
        -11    1    4    4    0    0  0.76541564483E+02  0.24624285753E+02 -0.45688215592E+03  0.46390329912E+03  0.00000000000E+00 0.  1.
         11    1    4    4    0    0  0.58734949115E+02 -0.47247894242E+02 -0.20891535733E+03  0.22209859137E+03  0.00000000000E+00 0. -1.
</event>
<event>
 8    1  0.6689467E-009  0.1587110E+03  0.7561462E-02  0.1190160E+00
          2   -1    0    0  501    0  0.00000000000E+00  0.00000000000E+00  0.12317447692E+04  0.12317447692E+04  0.00000000000E+00 0. -1.
         -2   -1    0    0    0  501 -0.00000000000E+00 -0.00000000000E+00 -0.36884624613E+02  0.36884624613E+02  0.00000000000E+00 0.  1.
         25    2    1    2    0    0  0.13726957721E+03  0.66190745553E+02  0.91895367916E+03  0.93986582831E+03  0.12509100354E+03 0.  0.
         23    2    1    2    0    0 -0.13726957721E+03 -0.66190745553E+02  0.27590646545E+03  0.32876356552E+03  0.93471667967E+02 0.  0.
          5    1    3    3  502    0  0.89221633420E+02  0.61936985055E+02  0.30109509227E+03  0.32011313153E+03  0.41800000000E+01 0. -1.
         -5    1    3    3    0  502  0.48047943793E+02  0.42537604978E+01  0.61785858689E+03  0.61975269678E+03  0.41800000000E+01 0. -1.
        -11    1    4    4    0    0 -0.10418064354E+03 -0.72104549953E+02  0.14024931214E+03  0.18900407976E+03  0.00000000000E+00 0.  1.
         11    1    4    4    0    0 -0.33088933671E+02  0.59138044009E+01  0.13565715331E+03  0.13975948576E+03  0.00000000000E+00 0. -1.
</event>
<event>
 8    1  0.6689467E-009  0.9870961E+02  0.7561462E-02  0.1283033E+00
          2   -1    0    0  501    0  0.00000000000E+00  0.00000000000E+00  0.26643252100E+03  0.26643252100E+03  0.00000000000E+00 0. -1.
         -2   -1    0    0    0  501 -0.00000000000E+00 -0.00000000000E+00 -0.50877306344E+02  0.50877306344E+02  0.00000000000E+00 0.  1.
         25    2    1    2    0    0  0.27553735917E+02 -0.37335745335E+02  0.90132952125E+02  0.16101096331E+03  0.12508962789E+03 0.  0.
         23    2    1    2    0    0 -0.27553735917E+02  0.37335745335E+02  0.12542226253E+03  0.15629886403E+03  0.80903799151E+02 0.  0.
          5    1    3    3  502    0 -0.48378019916E+00 -0.75383035312E+02  0.23233258496E+02  0.78994257743E+02  0.41800000000E+01 0.  1.
         -5    1    3    3    0  502  0.28037516116E+02  0.38047289977E+02  0.66899693628E+02  0.82016705567E+02  0.41800000000E+01 0.  1.
        -11    1    4    4    0    0 -0.15215828163E+02 -0.14602233777E+02  0.12363774641E+01  0.21125228690E+02  0.00000000000E+00 0.  1.
         11    1    4    4    0    0 -0.12337907753E+02  0.51937979112E+02  0.12418588507E+03  0.13517363534E+03  0.00000000000E+00 0. -1.
</event>
<event>
 8    1  0.6689467E-009  0.1235244E+03  0.7561462E-02  0.1237394E+00
         -4   -1    0    0    0  501 -0.00000000000E+00  0.00000000000E+00  0.30437444190E+02  0.30437444190E+02  0.00000000000E+00 0. -1.
          4   -1    0    0  501    0  0.00000000000E+00 -0.00000000000E+00 -0.72800144142E+03  0.72800144142E+03  0.00000000000E+00 0.  1.
         25    2    1    2    0    0  0.56166712551E+02 -0.40407057636E+02 -0.56503027275E+03  0.58283258380E+03  0.12508869533E+03 0.  0.
         23    2    1    2    0    0 -0.56166712551E+02  0.40407057636E+02 -0.13253372447E+03  0.17560630181E+03  0.92113816595E+02 0.  0.
          5    1    3    3  502    0  0.92045334353E+02 -0.35654630672E+02 -0.48411561700E+03  0.49409411987E+03  0.41800000000E+01 0.  1.
         -5    1    3    3    0  502 -0.35878621802E+02 -0.47524269642E+01 -0.80914655756E+02  0.88738463929E+02  0.41800000000E+01 0.  1.
        -11    1    4    4    0    0 -0.29678391032E+02  0.67617407735E+02 -0.10637837583E+03  0.12949625310E+03  0.00000000000E+00 0. -1.
         11    1    4    4    0    0 -0.26488321519E+02 -0.27210350099E+02 -0.26155348641E+02  0.46110048709E+02  0.00000000000E+00 0.  1.
</event>
<event>
 8    1  0.6689467E-009  0.1253540E+03  0.7561462E-02  0.1234517E+00
          2   -1    0    0  501    0  0.00000000000E+00  0.00000000000E+00  0.41826818505E+03  0.41826818505E+03  0.00000000000E+00 0. -1.
         -2   -1    0    0    0  501 -0.00000000000E+00 -0.00000000000E+00 -0.40321392713E+02  0.40321392713E+02  0.00000000000E+00 0.  1.
         25    2    1    2    0    0 -0.76299220813E+00  0.72013492297E+02  0.22469678673E+03  0.26706266163E+03  0.12508914436E+03 0.  0.
         23    2    1    2    0    0  0.76299220813E+00 -0.72013492297E+02  0.15325000561E+03  0.19152691614E+03  0.89501229928E+02 0.  0.
          5    1    3    3  502    0 -0.15147321156E+02 -0.33847204987E+02  0.53708761101E+02  0.65400137940E+02  0.41800000000E+01 0.  1.
         -5    1    3    3    0  502  0.14384328948E+02  0.10586069728E+03  0.17098802563E+03  0.20166252369E+03  0.41800000000E+01 0.  1.
        -11    1    4    4    0    0  0.53831882633E+01  0.16749250494E+02  0.60742298719E+02  0.63238777357E+02  0.00000000000E+00 0. -1.
         11    1    4    4    0    0 -0.46201960552E+01 -0.88762742791E+02  0.92507706886E+02  0.12828813878E+03  0.00000000000E+00 0.  1.
</event>
<event>
 8    1  0.6689467E-009  0.1100021E+03  0.7561462E-02  0.1260566E+00
         -2   -1    0    0    0  501 -0.00000000000E+00  0.00000000000E+00  0.15876819467E+03  0.15876819467E+03  0.00000000000E+00 0.  1.
          2   -1    0    0  501    0  0.00000000000E+00 -0.00000000000E+00 -0.11315565360E+03  0.11315565360E+03  0.00000000000E+00 0. -1.
         25    2    1    2    0    0  0.74793773164E+02  0.36681988068E+01  0.27544796803E+02  0.14836879087E+03  0.12508804134E+03 0.  0.
         23    2    1    2    0    0 -0.74793773164E+02 -0.36681988068E+01  0.18067744265E+02  0.12355505740E+03  0.96601473278E+02 0.  0.
          5    1    3    3  502    0  0.66582203348E+02 -0.54485260376E+02  0.88282628831E+01  0.86586627295E+02  0.41800000000E+01 0.  1.
         -5    1    3    3    0  502  0.82115698160E+01  0.58153459182E+02  0.18716533919E+02  0.61782163572E+02  0.41800000000E+01 0.  1.
        -11    1    4    4    0    0 -0.49545091988E+02 -0.43179618755E+01 -0.37652030071E+02  0.62378171689E+02  0.00000000000E+00 0. -1.
         11    1    4    4    0    0 -0.25248681176E+02  0.64976306875E+00  0.55719774335E+02  0.61176885710E+02  0.00000000000E+00 0.  1.
</event>
<event>
 8    1  0.6689467E-009  0.1743513E+03  0.7561462E-02  0.1173385E+00
          1   -1    0    0  501    0  0.00000000000E+00  0.00000000000E+00  0.18201348772E+03  0.18201348772E+03  0.00000000000E+00 0. -1.
         -1   -1    0    0    0  501 -0.00000000000E+00 -0.00000000000E+00 -0.17972268657E+03  0.17972268657E+03  0.00000000000E+00 0.  1.
         25    2    1    2    0    0  0.30499979677E+02  0.14105507178E+03  0.78676971247E+01  0.19114473417E+03  0.12509047409E+03 0.  0.
         23    2    1    2    0    0 -0.30499979677E+02 -0.14105507178E+03 -0.55768959741E+01  0.17059144012E+03  0.90794028650E+02 0.  0.
          5    1    3    3  502    0  0.75235331280E+02  0.10243400431E+03  0.24726071037E+02  0.12954509370E+03  0.41800000000E+01 0. -1.
         -5    1    3    3    0  502 -0.44735351602E+02  0.38621067473E+02 -0.16858373913E+02  0.61599640476E+02  0.41800000000E+01 0. -1.
        -11    1    4    4    0    0  0.97512694926E+01 -0.11254319634E+03 -0.28037240755E+02  0.11639220407E+03  0.00000000000E+00 0.  1.
         11    1    4    4    0    0 -0.40251249170E+02 -0.28511875443E+02  0.22460344781E+02  0.54199236053E+02  0.00000000000E+00 0. -1.
</event>
<event>
 8    1  0.6689467E-009  0.2149781E+03  0.7561462E-02  0.1137683E+00
          1   -1    0    0  501    0  0.00000000000E+00  0.00000000000E+00  0.10442339143E+04  0.10442339143E+04  0.00000000000E+00 0. -1.
         -1   -1    0    0    0  501 -0.00000000000E+00 -0.00000000000E+00 -0.57035013404E+02  0.57035013404E+02  0.00000000000E+00 0.  1.
         25    2    1    2    0    0 -0.13114207879E+03 -0.15703251977E+03  0.33725834324E+03  0.41382114101E+03  0.12508912648E+03 0.  0.
         23    2    1    2    0    0  0.13114207879E+03  0.15703251977E+03  0.64994055769E+03  0.68744778673E+03  0.91127788618E+02 0.  0.
          5    1    3    3  502    0 -0.21368332258E+02 -0.71290074004E+02  0.37913190298E+02  0.83628719191E+02  0.41800000000E+01 0. -1.
         -5    1    3    3    0  502 -0.10977374653E+03 -0.85742445766E+02  0.29934515295E+03  0.33019242182E+03  0.41800000000E+01 0. -1.
        -11    1    4    4    0    0  0.12126187096E+03  0.97176655205E+02  0.53959604410E+03  0.56152616544E+03  0.00000000000E+00 0. -1.
         11    1    4    4    0    0  0.98802078318E+01  0.59855864565E+02  0.11034451359E+03  0.12592162129E+03  0.00000000000E+00 0.  1.
</event>
<event>
 8    1  0.6689467E-009  0.9097578E+02  0.7561462E-02  0.1300506E+00
         -3   -1    0    0    0  501 -0.00000000000E+00  0.00000000000E+00  0.91380456410E+02  0.91380456410E+02  0.00000000000E+00 0.  1.
          3   -1    0    0  501    0  0.00000000000E+00 -0.00000000000E+00 -0.15717882323E+03  0.15717882323E+03  0.00000000000E+00 0. -1.
         25    2    1    2    0    0 -0.40050061997E+02 -0.19338500323E+02 -0.82322218823E+01  0.13301542064E+03  0.12508935842E+03 0.  0.
         23    2    1    2    0    0  0.40050061997E+02  0.19338500323E+02 -0.57566144939E+02  0.11554385900E+03  0.89769355843E+02 0.  0.
          5    1    3    3  502    0 -0.52838152975E+02 -0.45130756223E+02  0.37304815476E+02  0.78979600055E+02  0.41800000000E+01 0.  1.
         -5    1    3    3    0  502  0.12788090979E+02  0.25792255900E+02 -0.45537037358E+02  0.54035820588E+02  0.41800000000E+01 0.  1.
        -11    1    4    4    0    0 -0.37361915253E+01  0.36151348841E+02  0.56996437404E+01  0.36788110700E+02  0.00000000000E+00 0.  1.
         11    1    4    4    0    0  0.43786253522E+02 -0.16812848518E+02 -0.63265788679E+02  0.78755748298E+02  0.00000000000E+00 0. -1.
</event>
<event>
 8    1  0.6689467E-009  0.2466297E+03  0.7561462E-02  0.1115453E+00
         -2   -1    0    0    0  501 -0.00000000000E+00  0.00000000000E+00  0.11709406754E+04  0.11709406754E+04  0.00000000000E+00 0. -1.
          2   -1    0    0  501    0  0.00000000000E+00 -0.00000000000E+00 -0.72445976433E+02  0.72445976433E+02  0.00000000000E+00 0.  1.
         25    2    1    2    0    0 -0.14343776237E+02 -0.22363531035E+03  0.88324006917E+03  0.91977153466E+03  0.12509260661E+03 0.  0.
         23    2    1    2    0    0  0.14343776237E+02  0.22363531035E+03  0.21525462981E+03  0.32361511719E+03  0.90408475640E+02 0.  0.
          5    1    3    3  502    0 -0.62519728851E+02 -0.65553647823E+02  0.28225013058E+03  0.29646012523E+03  0.41800000000E+01 0.  1.
         -5    1    3    3    0  502  0.48175952613E+02 -0.15808166253E+03  0.60098993859E+03  0.62331140943E+03  0.41800000000E+01 0.  1.
        -11    1    4    4    0    0 -0.29803121869E+02  0.50968309597E+02  0.82189944028E+02  0.10119872309E+03  0.00000000000E+00 0.  1.
         11    1    4    4    0    0  0.44146898106E+02  0.17266700075E+03  0.13306468579E+03  0.22241639410E+03  0.00000000000E+00 0. -1.
</event>
<event>
 8    1  0.6689467E-009  0.1306438E+03  0.7561462E-02  0.1226504E+00
          2   -1    0    0  501    0  0.00000000000E+00  0.00000000000E+00  0.40131934096E+03  0.40131934096E+03  0.00000000000E+00 0. -1.
         -2   -1    0    0    0  501 -0.00000000000E+00 -0.00000000000E+00 -0.51666549087E+02  0.51666549087E+02  0.00000000000E+00 0.  1.
         25    2    1    2    0    0  0.85395896977E+02  0.38290533023E+02  0.20040533077E+03  0.25410543208E+03  0.12509456372E+03 0.  0.
         23    2    1    2    0    0 -0.85395896977E+02 -0.38290533023E+02  0.14924746111E+03  0.19888045797E+03  0.92303888196E+02 0.  0.
          5    1    3    3  502    0  0.22593113600E+02  0.67750573393E+02  0.15603517583E+03  0.17165383035E+03  0.41800000000E+01 0. -1.
         -5    1    3    3    0  502  0.62802783377E+02 -0.29460040370E+02  0.44370154937E+02  0.82451601729E+02  0.41800000000E+01 0. -1.
        -11    1    4    4    0    0 -0.73109914270E+02  0.68870470386E+01  0.12777378006E+03  0.14737241890E+03  0.00000000000E+00 0. -1.
         11    1    4    4    0    0 -0.12285982707E+02 -0.45177580061E+02  0.21473681048E+02  0.51508039072E+02  0.00000000000E+00 0.  1.
</event>
<event>
 8    1  0.6689467E-009  0.1163274E+03  0.7561462E-02  0.1249282E+00
         -3   -1    0    0    0  501 -0.00000000000E+00  0.00000000000E+00  0.10246906041E+04  0.10246906041E+04  0.00000000000E+00 0.  1.
          3   -1    0    0  501    0  0.00000000000E+00 -0.00000000000E+00 -0.23626795969E+02  0.23626795969E+02  0.00000000000E+00 0. -1.
         25    2    1    2    0    0  0.20789971960E+02 -0.87627517154E+02  0.75652510374E+03  0.77206720311E+03  0.12508688518E+03 0.  0.
         23    2    1    2    0    0 -0.20789971960E+02  0.87627517154E+02  0.24453870435E+03  0.27625019691E+03  0.91674362128E+02 0.  0.
          5    1    3    3  502    0  0.21866652488E+02  0.22787667263E+02  0.72727190899E+02  0.79398645872E+02  0.41800000000E+01 0.  1.
         -5    1    3    3    0  502 -0.10766805278E+01 -0.11041518442E+03  0.68379791284E+03  0.69266855724E+03  0.41800000000E+01 0.  1.
        -11    1    4    4    0    0 -0.16040353589E+02  0.53858319195E+02  0.40222352924E+02  0.69107518871E+02  0.00000000000E+00 0. -1.
         11    1    4    4    0    0 -0.47496183716E+01  0.33769197959E+02  0.20431635143E+03  0.20714267804E+03  0.00000000000E+00 0.  1.
</event>
<event>
 8    1  0.6689467E-009  0.1622936E+03  0.7561462E-02  0.1186131E+00
         -2   -1    0    0    0  501 -0.00000000000E+00  0.00000000000E+00  0.71266599434E+02  0.71266599434E+02  0.00000000000E+00 0.  1.
          2   -1    0    0  501    0  0.00000000000E+00 -0.00000000000E+00 -0.58663547146E+03  0.58663547146E+03  0.00000000000E+00 0. -1.
         25    2    1    2    0    0  0.63976559942E+02 -0.12258186088E+03 -0.10062619131E+03  0.21187838325E+03  0.12508999190E+03 0.  0.
         23    2    1    2    0    0 -0.63976559942E+02  0.12258186088E+03 -0.41474268071E+03  0.44602368764E+03  0.88353414733E+02 0.  0.
          5    1    3    3  502    0  0.16004545029E+02 -0.12031125066E+03 -0.10871764432E+03  0.16299675175E+03  0.41800000000E+01 0. -1.
         -5    1    3    3    0  502  0.47972014914E+02 -0.22706102179E+01  0.80914530085E+01  0.48881631493E+02  0.41800000000E+01 0. -1.
        -11    1    4    4    0    0 -0.57162621562E+02  0.34865967953E+02 -0.10944682592E+03  0.12830358034E+03  0.00000000000E+00 0.  1.
         11    1    4    4    0    0 -0.68139383802E+01  0.87715892923E+02 -0.30529585479E+03  0.31772010730E+03  0.00000000000E+00 0. -1.
</event>
<event>
 8    1  0.6689467E-009  0.9836917E+02  0.7561462E-02  0.1283763E+00
          1   -1    0    0  501    0  0.00000000000E+00  0.00000000000E+00  0.35755526511E+03  0.35755526511E+03  0.00000000000E+00 0. -1.
         -1   -1    0    0    0  501 -0.00000000000E+00 -0.00000000000E+00 -0.48397184733E+02  0.48397184733E+02  0.00000000000E+00 0.  1.
         25    2    1    2    0    0  0.84184709624E+01 -0.59793486250E+02  0.10160290386E+03  0.17209511773E+03  0.12508975905E+03 0.  0.
         23    2    1    2    0    0 -0.84184709624E+01  0.59793486250E+02  0.20755517652E+03  0.23385733212E+03  0.89241071467E+02 0.  0.
          5    1    3    3  502    0  0.81221458497E+01  0.35148797562E+02  0.55853144520E+02  0.66621718501E+02  0.41800000000E+01 0. -1.
         -5    1    3    3    0  502  0.29632511275E+00 -0.94942283812E+02  0.45749759344E+02  0.10547339922E+03  0.41800000000E+01 0. -1.
        -11    1    4    4    0    0 -0.14018441434E+02  0.16148031318E+02 -0.30939191578E+00  0.21386241816E+02  0.00000000000E+00 0.  1.
         11    1    4    4    0    0  0.55999704715E+01  0.43645454932E+02  0.20786456843E+03  0.21247109030E+03  0.00000000000E+00 0. -1.
</event>
<event>
 8    1  0.6689467E-009  0.7673130E+02  0.7561462E-02  0.1338592E+00
          1   -1    0    0  501    0  0.00000000000E+00  0.00000000000E+00  0.18859419712E+04  0.18859419712E+04  0.00000000000E+00 0.  1.
         -1   -1    0    0    0  501 -0.00000000000E+00 -0.00000000000E+00 -0.80571880066E+01  0.80571880066E+01  0.00000000000E+00 0. -1.
         25    2    1    2    0    0  0.11708055728E+01  0.11177551708E+02  0.14905215377E+04  0.14958034796E+04  0.12508911507E+03 0.  0.
         23    2    1    2    0    0 -0.11708055728E+01 -0.11177551708E+02  0.38736324542E+03  0.39819567956E+03  0.91559854029E+02 0.  0.
          5    1    3    3  502    0 -0.29217719558E+02  0.48624562400E+01  0.88241812546E+02  0.93174076321E+02  0.41800000000E+01 0.  1.
         -5    1    3    3    0  502  0.30388525130E+02  0.63150954683E+01  0.14022797252E+04  0.14026294033E+04  0.41800000000E+01 0.  1.
        -11    1    4    4    0    0 -0.45959534278E+02 -0.11755450708E+02  0.19559359589E+03  0.20126431419E+03  0.00000000000E+00 0.  1.
         11    1    4    4    0    0  0.44788728706E+02  0.57789899946E+00  0.19176964952E+03  0.19693136536E+03  0.00000000000E+00 0. -1.
</event>
<event>
 8    1  0.6689467E-009  0.1485215E+03  0.7561462E-02  0.1202302E+00
          1   -1    0    0  501    0  0.00000000000E+00  0.00000000000E+00  0.50177411314E+03  0.50177411314E+03  0.00000000000E+00 0. -1.
         -1   -1    0    0    0  501 -0.00000000000E+00 -0.00000000000E+00 -0.55927594941E+02  0.55927594941E+02  0.00000000000E+00 0.  1.
         25    2    1    2    0    0  0.99915548271E+02  0.30222691818E+02  0.36099943585E+03  0.39606118834E+03  0.12508934541E+03 0.  0.
         23    2    1    2    0    0 -0.99915548271E+02 -0.30222691818E+02  0.84847082343E+02  0.16164051974E+03  0.89621997034E+02 0.  0.
          5    1    3    3  502    0  0.11010404092E+03 -0.19295579182E+02  0.25984777477E+03  0.28290202837E+03  0.41800000000E+01 0.  1.
         -5    1    3    3    0  502 -0.10188492645E+02  0.49518271001E+02  0.10115166109E+03  0.11315915997E+03  0.41800000000E+01 0.  1.
        -11    1    4    4    0    0 -0.73663243776E+02 -0.59819496007E+02  0.74782545261E+02  0.12081835399E+03  0.00000000000E+00 0. -1.
         11    1    4    4    0    0 -0.26252304495E+02  0.29596804189E+02  0.10064537083E+02  0.40822165745E+02  0.00000000000E+00 0.  1.
</event>
<event>
 8    1  0.6689467E-009  0.9837126E+02  0.7561462E-02  0.1283759E+00
          1   -1    0    0  501    0  0.00000000000E+00  0.00000000000E+00  0.16703865147E+03  0.16703865147E+03  0.00000000000E+00 0. -1.
         -1   -1    0    0    0  501 -0.00000000000E+00 -0.00000000000E+00 -0.94124824993E+02  0.94124824993E+02  0.00000000000E+00 0.  1.
         25    2    1    2    0    0  0.56732329003E+02  0.15836321109E+02  0.63760971332E+02  0.15225630711E+03  0.12508867003E+03 0.  0.
         23    2    1    2    0    0 -0.56732329003E+02 -0.15836321109E+02  0.91528551425E+01  0.10890716935E+03  0.91146314012E+02 0.  0.
          5    1    3    3  502    0 -0.30435486373E+02  0.48677256704E+01  0.55874596707E+02  0.63948858795E+02  0.41800000000E+01 0.  1.
         -5    1    3    3    0  502  0.87167815376E+02  0.10968595439E+02  0.78863746248E+01  0.88307448316E+02  0.41800000000E+01 0.  1.
        -11    1    4    4    0    0  0.60027420917E+01 -0.13648567761E+02 -0.30993875435E+02  0.34393845802E+02  0.00000000000E+00 0.  1.
         11    1    4    4    0    0 -0.62735071095E+02 -0.21877533477E+01  0.40146730578E+02  0.74513323547E+02  0.00000000000E+00 0. -1.
</event>
<event>
 7    1  0.6689467E-009  0.1350663E+03  0.7561462E-02  0.1220126E+00
          1   -1    0    0  501    0  0.00000000000E+00  0.00000000000E+00  0.12765121951E+03  0.12765121951E+03  0.00000000000E+00 0. -1.
         -1   -1    0    0    0  501 -0.00000000000E+00 -0.00000000000E+00 -0.18540384888E+03  0.18540384888E+03  0.00000000000E+00 0.  1.
         23    2    1    2    0    0  0.93353446268E+02  0.52528263849E+02 -0.53288741974E+02  0.14836826734E+03  0.87746044358E+02 0.  0.
          5    1    1    2  502    0 -0.46357753051E+01  0.30819394193E+02  0.24057501853E+02  0.39592439512E+02  0.41800000000E+01 0. -1.
         -5    1    1    2    0  502 -0.88717670963E+02 -0.83347658042E+02 -0.28521389259E+02  0.12509436153E+03  0.41800000000E+01 0. -1.
        -11    1    3    3    0    0  0.52729133553E+02  0.54994317778E+02 -0.70851285388E+02  0.10404153572E+03  0.00000000000E+00 0.  1.
         11    1    3    3    0    0  0.40624312715E+02 -0.24660539294E+01  0.17562543415E+02  0.44326731627E+02  0.00000000000E+00 0. -1.
</event>
<event>
 8    1  0.6689467E-009  0.6633038E+02  0.7561462E-02  0.1373036E+00
         -1   -1    0    0    0  501 -0.00000000000E+00  0.00000000000E+00  0.10002388347E+03  0.10002388347E+03  0.00000000000E+00 0.  1.
          1   -1    0    0  501    0  0.00000000000E+00 -0.00000000000E+00 -0.13863212375E+03  0.13863212375E+03  0.00000000000E+00 0. -1.
         25    2    1    2    0    0  0.36326377586E+02  0.26232354212E+02 -0.14461678752E+02  0.13365238866E+03  0.12508428648E+03 0.  0.
         23    2    1    2    0    0 -0.36326377586E+02 -0.26232354212E+02 -0.24146561537E+02  0.10500361856E+03  0.91842045715E+02 0.  0.
          5    1    3    3  502    0  0.35730816110E+02  0.31741132732E+02 -0.66030169319E+02  0.81618909496E+02  0.41800000000E+01 0. -1.
         -5    1    3    3    0  502  0.59556147660E+00 -0.55087785202E+01  0.51568490567E+02  0.52033479161E+02  0.41800000000E+01 0. -1.
        -11    1    4    4    0    0 -0.54232087866E+02 -0.13845064930E+02  0.16961937888E+02  0.58485147808E+02  0.00000000000E+00 0.  1.
         11    1    4    4    0    0  0.17905710280E+02 -0.12387289283E+02 -0.41108499425E+02  0.46518470755E+02  0.00000000000E+00 0. -1.
</event>
<event>
 8    1  0.6689467E-009  0.1223220E+03  0.7561462E-02  0.1239315E+00
          2   -1    0    0  501    0  0.00000000000E+00  0.00000000000E+00  0.11398491608E+04  0.11398491608E+04  0.00000000000E+00 0. -1.
         -2   -1    0    0    0  501 -0.00000000000E+00 -0.00000000000E+00 -0.21597926421E+02  0.21597926421E+02  0.00000000000E+00 0.  1.
         25    2    1    2    0    0 -0.99054856983E+02  0.52327927394E+02  0.55741381815E+03  0.58215871943E+03  0.12509409764E+03 0.  0.
         23    2    1    2    0    0  0.99054856983E+02 -0.52327927394E+02  0.56083741622E+03  0.57928836778E+03  0.92121272994E+02 0.  0.
          5    1    3    3  502    0 -0.48924778059E+01  0.22424945670E+02  0.91682420452E+01  0.25066782594E+02  0.41800000000E+01 0.  1.
         -5    1    3    3    0  502 -0.94162379177E+02  0.29902981724E+02  0.54824557610E+03  0.55709193683E+03  0.41800000000E+01 0.  1.
        -11    1    4    4    0    0  0.82529089434E+02 -0.62052164724E+02  0.54417877205E+03  0.55388812742E+03  0.00000000000E+00 0. -1.
         11    1    4    4    0    0  0.16525767549E+02  0.97242373299E+01  0.16658644169E+02  0.25400240359E+02  0.00000000000E+00 0.  1.
</event>
<event>
 8    1  0.6689467E-009  0.1702515E+03  0.7561462E-02  0.1177586E+00
          1   -1    0    0  501    0  0.00000000000E+00  0.00000000000E+00  0.34117479830E+03  0.34117479830E+03  0.00000000000E+00 0. -1.
         -1   -1    0    0    0  501 -0.00000000000E+00 -0.00000000000E+00 -0.11418839231E+03  0.11418839231E+03  0.00000000000E+00 0.  1.
         25    2    1    2    0    0  0.14183682979E+03  0.14105341504E+02  0.17820082745E+02  0.19047657347E+03  0.12508845969E+03 0.  0.
         23    2    1    2    0    0 -0.14183682979E+03 -0.14105341504E+02  0.20916632324E+03  0.26488661715E+03  0.78087913419E+02 0.  0.
          5    1    3    3  502    0  0.15751120433E+03  0.36416354682E+02  0.11195829130E+02  0.16210721566E+03  0.41800000000E+01 0. -1.
         -5    1    3    3    0  502 -0.15674374545E+02 -0.22311013178E+02  0.66242536152E+01  0.28369357807E+02  0.41800000000E+01 0. -1.
        -11    1    4    4    0    0 -0.99644736166E+02  0.13824152261E+02  0.88293092238E+02  0.13385010560E+03  0.00000000000E+00 0. -1.
         11    1    4    4    0    0 -0.42192093622E+02 -0.27929493766E+02  0.12087323100E+03  0.13103651155E+03  0.00000000000E+00 0.  1.
</event>
<event>
 8    1  0.6689467E-009  0.1189395E+03  0.7561462E-02  0.1244857E+00
          1   -1    0    0  501    0  0.00000000000E+00  0.00000000000E+00  0.28617066780E+03  0.28617066780E+03  0.00000000000E+00 0. -1.
         -1   -1    0    0    0  501 -0.00000000000E+00 -0.00000000000E+00 -0.64489046014E+02  0.64489046014E+02  0.00000000000E+00 0.  1.
         25    2    1    2    0    0 -0.10107647307E+02  0.77779627296E+02  0.90672085874E+02  0.17326178395E+03  0.12508550541E+03 0.  0.
         23    2    1    2    0    0  0.10107647307E+02 -0.77779627296E+02  0.13100953592E+03  0.17739792987E+03  0.90303333632E+02 0.  0.
          5    1    3    3  502    0 -0.36071774744E+02  0.96160810729E+02  0.96106221169E+02  0.14071941089E+03  0.41800000000E+01 0.  1.
         -5    1    3    3    0  502  0.25964127437E+02 -0.18381183433E+02 -0.54341352944E+01  0.32542373060E+02  0.41800000000E+01 0.  1.
        -11    1    4    4    0    0 -0.19411500102E+02 -0.69767314258E+02  0.42993008140E+02  0.84218069462E+02  0.00000000000E+00 0.  1.
         11    1    4    4    0    0  0.29519147410E+02 -0.80123130381E+01  0.88016527776E+02  0.93179860409E+02  0.00000000000E+00 0. -1.
</event>
<event>
 8    1  0.6689467E-009  0.2183466E+03  0.7561462E-02  0.1135122E+00
          2   -1    0    0  501    0  0.00000000000E+00  0.00000000000E+00  0.11936892718E+04  0.11936892718E+04  0.00000000000E+00 0. -1.
         -2   -1    0    0    0  501 -0.00000000000E+00 -0.00000000000E+00 -0.99121821074E+02  0.99121821074E+02  0.00000000000E+00 0.  1.
         25    2    1    2    0    0  0.18779986032E+03 -0.25849324406E+02  0.10524068908E+04  0.10766365083E+04  0.12509569180E+03 0.  0.
         23    2    1    2    0    0 -0.18779986032E+03  0.25849324406E+02  0.42160559909E+02  0.21617458455E+03  0.94957691029E+02 0.  0.
          5    1    3    3  502    0  0.16454966342E+03  0.28344760557E+02  0.81909951692E+03  0.83595544631E+03  0.41800000000E+01 0. -1.
         -5    1    3    3    0  502  0.23250196901E+02 -0.54194084963E+02  0.23330737388E+03  0.24068106200E+03  0.41800000000E+01 0. -1.
        -11    1    4    4    0    0 -0.10714460063E+03 -0.31388535248E+02  0.35041245268E+02  0.11701749638E+03  0.00000000000E+00 0.  1.
         11    1    4    4    0    0 -0.80655259689E+02  0.57237859655E+02  0.71193146409E+01  0.99157088170E+02  0.00000000000E+00 0. -1.
</event>
<event>
 8    1  0.6689467E-009  0.1241389E+03  0.7561462E-02  0.1236421E+00
         -2   -1    0    0    0  501 -0.00000000000E+00  0.00000000000E+00  0.61377508367E+02  0.61377508367E+02  0.00000000000E+00 0.  1.
          2   -1    0    0  501    0  0.00000000000E+00 -0.00000000000E+00 -0.29900620203E+03  0.29900620203E+03  0.00000000000E+00 0. -1.
         25    2    1    2    0    0 -0.67410904450E+02  0.16137608443E+02 -0.18762879774E+03  0.23591942552E+03  0.12509499251E+03 0.  0.
         23    2    1    2    0    0  0.67410904450E+02 -0.16137608443E+02 -0.49999895920E+02  0.12446428488E+03  0.90480473985E+02 0.  0.
          5    1    3    3  502    0 -0.94045975326E+02 -0.13587381269E+02 -0.16332768698E+03  0.18900441302E+03  0.41800000000E+01 0. -1.
         -5    1    3    3    0  502  0.26635070876E+02  0.29724989713E+02 -0.24301110756E+02  0.46915012501E+02  0.41800000000E+01 0. -1.
        -11    1    4    4    0    0  0.49457466334E+02 -0.52716980094E+02 -0.24166955412E+02  0.76217863394E+02  0.00000000000E+00 0.  1.
         11    1    4    4    0    0  0.17953438117E+02  0.36579371651E+02 -0.25832940508E+02  0.48246421482E+02  0.00000000000E+00 0. -1.
</event>
<event>
 8    1  0.6689467E-009  0.1545836E+03  0.7561462E-02  0.1194951E+00
          4   -1    0    0  501    0  0.00000000000E+00  0.00000000000E+00  0.37091875144E+03  0.37091875144E+03  0.00000000000E+00 0.  1.
         -4   -1    0    0    0  501 -0.00000000000E+00 -0.00000000000E+00 -0.83829578031E+02  0.83829578031E+02  0.00000000000E+00 0. -1.
         25    2    1    2    0    0  0.13394200803E+03  0.33611214286E+02  0.17452047251E+03  0.25529360113E+03  0.12508897718E+03 0.  0.
         23    2    1    2    0    0 -0.13394200803E+03 -0.33611214286E+02  0.11256870090E+03  0.19945472834E+03  0.89667725483E+02 0.  0.
          5    1    3    3  502    0  0.13481726952E+03  0.51864774564E+02  0.93471246475E+02  0.17210461156E+03  0.41800000000E+01 0. -1.
         -5    1    3    3    0  502 -0.87526149158E+00 -0.18253560278E+02  0.81049226030E+02  0.83188989570E+02  0.41800000000E+01 0. -1.
        -11    1    4    4    0    0 -0.48952683699E+02 -0.36197674704E+02  0.94679074863E+02  0.11256448868E+03  0.00000000000E+00 0.  1.
         11    1    4    4    0    0 -0.84989324332E+02  0.25864604174E+01  0.17889626036E+02  0.86890239657E+02  0.00000000000E+00 0. -1.
</event>
<event>
 8    1  0.6689467E-009  0.1311684E+03  0.7561462E-02  0.1225732E+00
         -1   -1    0    0    0  501 -0.00000000000E+00  0.00000000000E+00  0.36568989422E+02  0.36568989422E+02  0.00000000000E+00 0.  1.
          1   -1    0    0  501    0  0.00000000000E+00 -0.00000000000E+00 -0.68167806061E+03  0.68167806061E+03  0.00000000000E+00 0. -1.
         25    2    1    2    0    0 -0.91297291937E+02  0.54476144815E+01 -0.50353034915E+03  0.52683499553E+03  0.12508967977E+03 0.  0.
         23    2    1    2    0    0  0.91297291937E+02 -0.54476144815E+01 -0.14157872204E+03  0.19141205450E+03  0.90714762057E+02 0.  0.
          5    1    3    3  502    0  0.23469579798E+02  0.69497594569E+01 -0.21274726645E+03  0.21419148469E+03  0.41800000000E+01 0. -1.
         -5    1    3    3    0  502 -0.11476687174E+03 -0.15021449754E+01 -0.29078308270E+03  0.31264351084E+03  0.41800000000E+01 0. -1.
        -11    1    4    4    0    0  0.50066659966E+02 -0.43666126432E+02 -0.46972482178E+02  0.81362246280E+02  0.00000000000E+00 0. -1.
         11    1    4    4    0    0  0.41230631970E+02  0.38218511951E+02 -0.94606239862E+02  0.11004980822E+03  0.00000000000E+00 0.  1.
</event>
<event>
 8    1  0.6689467E-009  0.1729337E+03  0.7561462E-02  0.1174823E+00
          1   -1    0    0  501    0  0.00000000000E+00  0.00000000000E+00  0.57633633413E+03  0.57633633413E+03  0.00000000000E+00 0. -1.
         -1   -1    0    0    0  501 -0.00000000000E+00 -0.00000000000E+00 -0.55618856446E+02  0.55618856446E+02  0.00000000000E+00 0.  1.
         25    2    1    2    0    0  0.14230420947E+03 -0.91810170853E+01  0.27581249213E+03  0.33474598651E+03  0.12509022969E+03 0.  0.
         23    2    1    2    0    0 -0.14230420947E+03  0.91810170853E+01  0.24490498556E+03  0.29720920407E+03  0.89554898927E+02 0.  0.
          5    1    3    3  502    0  0.60908655152E+02 -0.58379335043E+02  0.76931935460E+02  0.11425412958E+03  0.41800000000E+01 0. -1.
         -5    1    3    3    0  502  0.81395554320E+02  0.49198317958E+02  0.19888055667E+03  0.22049185693E+03  0.41800000000E+01 0. -1.
        -11    1    4    4    0    0 -0.68699540682E+02 -0.38251432868E+02  0.92163574590E+02  0.12114835322E+03  0.00000000000E+00 0.  1.
         11    1    4    4    0    0 -0.73604668790E+02  0.47432449954E+02  0.15274141097E+03  0.17606085085E+03  0.00000000000E+00 0. -1.
</event>
<event>
 8    1  0.6689467E-009  0.1868947E+03  0.7561462E-02  0.1161292E+00
         -3   -1    0    0    0  501 -0.00000000000E+00  0.00000000000E+00  0.20373671404E+03  0.20373671404E+03  0.00000000000E+00 0.  1.
          3   -1    0    0  501    0  0.00000000000E+00 -0.00000000000E+00 -0.19501857348E+03  0.19501857348E+03  0.00000000000E+00 0. -1.
         25    2    1    2    0    0 -0.35039437553E+02 -0.15379280909E+03 -0.48292806353E+02  0.20702813854E+03  0.12509382355E+03 0.  0.
         23    2    1    2    0    0  0.35039437553E+02  0.15379280909E+03  0.57010946918E+02  0.19172714897E+03  0.92892740700E+02 0.  0.
          5    1    3    3  502    0  0.13475318237E+02 -0.13919861790E+03 -0.63954225385E+02  0.15383580458E+03  0.41800000000E+01 0. -1.
         -5    1    3    3    0  502 -0.48514755789E+02 -0.14594191184E+02  0.15661419032E+02  0.53192333956E+02  0.41800000000E+01 0. -1.
        -11    1    4    4    0    0  0.57391046336E+02  0.47713145688E+02  0.22186013002E+02  0.77862029539E+02  0.00000000000E+00 0.  1.
         11    1    4    4    0    0 -0.22351608783E+02  0.10607966340E+03  0.34824933915E+02  0.11386511944E+03  0.00000000000E+00 0. -1.
</event>
<event>
 8    1  0.6689467E-009  0.1132984E+03  0.7561462E-02  0.1254581E+00
          3   -1    0    0  501    0  0.00000000000E+00  0.00000000000E+00  0.36764710018E+03  0.36764710018E+03  0.00000000000E+00 0. -1.
         -3   -1    0    0    0  501 -0.00000000000E+00 -0.00000000000E+00 -0.53460509616E+02  0.53460509616E+02  0.00000000000E+00 0.  1.
         25    2    1    2    0    0 -0.54768323314E+02 -0.68270545266E+02  0.18912647357E+03  0.24305778810E+03  0.12509128171E+03 0.  0.
         23    2    1    2    0    0  0.54768323314E+02  0.68270545266E+02  0.12506011699E+03  0.17804982170E+03  0.91658439632E+02 0.  0.
          5    1    3    3  502    0 -0.53097219903E+02  0.15187673848E+02  0.29205570375E+02  0.62613240926E+02  0.41800000000E+01 0.  1.
         -5    1    3    3    0  502 -0.16711034103E+01 -0.83458219114E+02  0.15992090320E+03  0.18044454717E+03  0.41800000000E+01 0.  1.
        -11    1    4    4    0    0  0.28718285659E+02  0.32310482203E+02 -0.21807052185E+01  0.43283514953E+02  0.00000000000E+00 0.  1.
         11    1    4    4    0    0  0.26050037654E+02  0.35960063063E+02  0.12724082221E+03  0.13476630675E+03  0.00000000000E+00 0. -1.
</event>
<event>
 8    1  0.6689467E-009  0.1043040E+03  0.7561462E-02  0.1271497E+00
         -1   -1    0    0    0  501 -0.00000000000E+00  0.00000000000E+00  0.18879179796E+02  0.18879179796E+02  0.00000000000E+00 0.  1.
          1   -1    0    0  501    0  0.00000000000E+00 -0.00000000000E+00 -0.70342283493E+03  0.70342283493E+03  0.00000000000E+00 0. -1.
         25    2    1    2    0    0 -0.34741588388E+02  0.20056437492E+02 -0.35359261967E+03  0.37720767702E+03  0.12509457332E+03 0.  0.
         23    2    1    2    0    0  0.34741588388E+02 -0.20056437492E+02 -0.33095103547E+03  0.34509433770E+03  0.89175531329E+02 0.  0.
          5    1    3    3  502    0 -0.63257084581E+02  0.46316169323E+02 -0.30480608887E+03  0.31475525492E+03  0.41800000000E+01 0.  1.
         -5    1    3    3    0  502  0.28515496193E+02 -0.26259731831E+02 -0.48786530797E+02  0.62452422100E+02  0.41800000000E+01 0.  1.
        -11    1    4    4    0    0  0.20785053278E+01 -0.48046368211E+02 -0.11089921453E+03  0.12087766322E+03  0.00000000000E+00 0.  1.
         11    1    4    4    0    0  0.32663083060E+02  0.27989930718E+02 -0.22005182094E+03  0.22421667448E+03  0.00000000000E+00 0. -1.
</event>
<event>
 8    1  0.6689467E-009  0.9443871E+02  0.7561462E-02  0.1292445E+00
          2   -1    0    0  501    0  0.00000000000E+00  0.00000000000E+00  0.69728986699E+03  0.69728986699E+03  0.00000000000E+00 0. -1.
         -2   -1    0    0    0  501 -0.00000000000E+00 -0.00000000000E+00 -0.25008801711E+02  0.25008801711E+02  0.00000000000E+00 0.  1.
         25    2    1    2    0    0 -0.75386692452E+02 -0.26266042060E+01  0.35202568062E+03  0.38111937023E+03  0.12505935433E+03 0.  0.
         23    2    1    2    0    0  0.75386692452E+02  0.26266042060E+01  0.32025538466E+03  0.34117929847E+03  0.90275964961E+02 0.  0.
          5    1    3    3  502    0 -0.62843483066E+02  0.12069548637E+02  0.58111948121E+02  0.86541598567E+02  0.41800000000E+01 0. -1.
         -5    1    3    3    0  502 -0.12543209386E+02 -0.14696152843E+02  0.29391373250E+03  0.29457777167E+03  0.41800000000E+01 0. -1.
        -11    1    4    4    0    0  0.85624935486E+02  0.17037265623E+02  0.30675438774E+03  0.31893596911E+03  0.00000000000E+00 0. -1.
         11    1    4    4    0    0 -0.10238243035E+02 -0.14410661417E+02  0.13500996925E+02  0.22243329357E+02  0.00000000000E+00 0.  1.
</event>
<event>
 8    1  0.6689467E-009  0.1451759E+03  0.7561462E-02  0.1206529E+00
          3   -1    0    0  501    0  0.00000000000E+00  0.00000000000E+00  0.14799876217E+04  0.14799876217E+04  0.00000000000E+00 0. -1.
         -3   -1    0    0    0  501 -0.00000000000E+00 -0.00000000000E+00 -0.21096732234E+02  0.21096732234E+02  0.00000000000E+00 0.  1.
         25    2    1    2    0    0 -0.13560256446E+03  0.84677207961E+01  0.88366112497E+03  0.90275353426E+03  0.12508877668E+03 0.  0.
         23    2    1    2    0    0  0.13560256446E+03 -0.84677207961E+01  0.57522976453E+03  0.59833081971E+03  0.93009300767E+02 0.  0.
          5    1    3    3  502    0 -0.13420591643E+03  0.25093912168E+02  0.48905684184E+03  0.50777455567E+03  0.41800000000E+01 0. -1.
         -5    1    3    3    0  502 -0.13966480327E+01 -0.16626191371E+02  0.39460428313E+03  0.39497897859E+03  0.41800000000E+01 0. -1.
        -11    1    4    4    0    0  0.46087356069E+02  0.36136341677E+01  0.62685788686E+02  0.77888451290E+02  0.00000000000E+00 0.  1.
         11    1    4    4    0    0  0.89515208392E+02 -0.12081354964E+02  0.51254397584E+03  0.52044236842E+03  0.00000000000E+00 0. -1.
</event>
<event>
 8    1  0.6689467E-009  0.1634844E+03  0.7561462E-02  0.1184818E+00
          1   -1    0    0  501    0  0.00000000000E+00  0.00000000000E+00  0.58378449758E+03  0.58378449758E+03  0.00000000000E+00 0. -1.
         -1   -1    0    0    0  501 -0.00000000000E+00 -0.00000000000E+00 -0.54110621051E+02  0.54110621051E+02  0.00000000000E+00 0.  1.
         25    2    1    2    0    0 -0.11073569922E+03 -0.81655751126E+02  0.22473975476E+03  0.29169420163E+03  0.12508994012E+03 0.  0.
         23    2    1    2    0    0  0.11073569922E+03  0.81655751126E+02  0.30493412176E+03  0.34620091700E+03  0.89107797317E+02 0.  0.
          5    1    3    3  502    0  0.21278785732E+02  0.21897034194E+01  0.57123386345E+01  0.22531860464E+02  0.41800000000E+01 0. -1.
         -5    1    3    3    0  502 -0.13201448495E+03 -0.83845454546E+02  0.21902741613E+03  0.26916234116E+03  0.41800000000E+01 0. -1.
        -11    1    4    4    0    0  0.11815966629E+02  0.39446588163E+02  0.29905876487E+02  0.50892158861E+02  0.00000000000E+00 0.  1.
         11    1    4    4    0    0  0.98919732589E+02  0.42209162963E+02  0.27502824528E+03  0.29530875814E+03  0.00000000000E+00 0. -1.
</event>
<event>
 8    1  0.6689467E-009  0.8478521E+02  0.7561462E-02  0.1315995E+00
          4   -1    0    0  501    0  0.00000000000E+00  0.00000000000E+00  0.12345666479E+03  0.12345666479E+03  0.00000000000E+00 0. -1.
         -4   -1    0    0    0  501 -0.00000000000E+00 -0.00000000000E+00 -0.83401987708E+02  0.83401987708E+02  0.00000000000E+00 0.  1.
         25    2    1    2    0    0 -0.13437969162E+02  0.11964049081E+02  0.54983251284E+02  0.13783078887E+03  0.12510176239E+03 0.  0.
         23    2    1    2    0    0  0.13437969162E+02 -0.11964049081E+02 -0.14928574206E+02  0.69027863623E+02  0.64948180444E+02 0.  0.
          5    1    3    3  502    0 -0.34365047891E+02  0.62249239277E+02  0.24807916083E+02  0.75424329016E+02  0.41800000000E+01 0.  1.
         -5    1    3    3    0  502  0.20927078729E+02 -0.50285190196E+02  0.30175335201E+02  0.62406459855E+02  0.41800000000E+01 0.  1.
        -11    1    4    4    0    0 -0.29368915520E+01 -0.23502146107E+02 -0.33955696858E+02  0.41400067062E+02  0.00000000000E+00 0.  1.
         11    1    4    4    0    0  0.16374860714E+02  0.11538097026E+02  0.19027122652E+02  0.27627796561E+02  0.00000000000E+00 0. -1.
</event>
<event>
 8    1  0.6689467E-009  0.9761380E+02  0.7561462E-02  0.1285395E+00
          2   -1    0    0  501    0  0.00000000000E+00  0.00000000000E+00  0.32491169246E+03  0.32491169246E+03  0.00000000000E+00 0. -1.
         -2   -1    0    0    0  501 -0.00000000000E+00 -0.00000000000E+00 -0.63697726799E+02  0.63697726799E+02  0.00000000000E+00 0.  1.
         25    2    1    2    0    0  0.24537797967E+02  0.49744544137E+02  0.39652529526E+02  0.14247512633E+03  0.12510082064E+03 0.  0.
         23    2    1    2    0    0 -0.24537797967E+02 -0.49744544137E+02  0.22156143613E+03  0.24613429293E+03  0.91738743030E+02 0.  0.
          5    1    3    3  502    0 -0.15771171746E+02  0.60600461115E+02 -0.23197827496E+02  0.66908574534E+02  0.41800000000E+01 0.  1.
         -5    1    3    3    0  502  0.40308969713E+02 -0.10855916978E+02  0.62850357022E+02  0.75566551797E+02  0.41800000000E+01 0.  1.
        -11    1    4    4    0    0 -0.48192429354E+02 -0.19185998585E+02  0.56882843697E+02  0.76982275205E+02  0.00000000000E+00 0.  1.
         11    1    4    4    0    0  0.23654631388E+02 -0.30558545552E+02  0.16467859244E+03  0.16915201772E+03  0.00000000000E+00 0. -1.
</event>
<event>
 8    1  0.6689467E-009  0.1052682E+03  0.7561462E-02  0.1269592E+00
          2   -1    0    0  501    0  0.00000000000E+00  0.00000000000E+00  0.57027689140E+02  0.57027689140E+02  0.00000000000E+00 0. -1.
         -2   -1    0    0    0  501 -0.00000000000E+00 -0.00000000000E+00 -0.34499130848E+03  0.34499130848E+03  0.00000000000E+00 0.  1.
         25    2    1    2    0    0 -0.37519564840E+02 -0.73427175213E+02 -0.19854263053E+03  0.24872641736E+03  0.12508551775E+03 0.  0.
         23    2    1    2    0    0  0.37519564840E+02  0.73427175213E+02 -0.89420988812E+02  0.15329258026E+03  0.93291125602E+02 0.  0.
          5    1    3    3  502    0 -0.53264746592E+01 -0.81845970982E+02 -0.49353613259E+02  0.95814330035E+02  0.41800000000E+01 0.  1.
         -5    1    3    3    0  502 -0.32193090181E+02  0.84187957688E+01 -0.14918901727E+03  0.15291208733E+03  0.41800000000E+01 0.  1.
        -11    1    4    4    0    0  0.24703959228E+01  0.55409404527E+02  0.11802299657E+00  0.55464573337E+02  0.00000000000E+00 0. -1.
         11    1    4    4    0    0  0.35049168917E+02  0.18017770687E+02 -0.89539011809E+02  0.97828006920E+02  0.00000000000E+00 0.  1.
</event>
<event>
 8    1  0.6689467E-009  0.1142941E+03  0.7561462E-02  0.1252818E+00
          2   -1    0    0  501    0  0.00000000000E+00  0.00000000000E+00  0.34540808694E+03  0.34540808694E+03  0.00000000000E+00 0. -1.
         -2   -1    0    0    0  501 -0.00000000000E+00 -0.00000000000E+00 -0.38855481992E+02  0.38855481992E+02  0.00000000000E+00 0.  1.
         25    2    1    2    0    0  0.42369360080E+02 -0.13911124586E+02  0.17438008316E+03  0.21918962328E+03  0.12508795102E+03 0.  0.
         23    2    1    2    0    0 -0.42369360080E+02  0.13911124586E+02  0.13217252179E+03  0.16507394566E+03  0.88267490942E+02 0.  0.
          5    1    3    3  502    0 -0.40651189632E+02  0.14694685523E+02  0.73587284604E+02  0.85445970393E+02  0.41800000000E+01 0.  1.
         -5    1    3    3    0  502  0.83020549711E+02 -0.28605810109E+02  0.10079279855E+03  0.13374365288E+03  0.41800000000E+01 0.  1.
        -11    1    4    4    0    0 -0.38511614099E+02 -0.32674910348E+02  0.53589145607E+02  0.73638242195E+02  0.00000000000E+00 0.  1.
         11    1    4    4    0    0 -0.38577459809E+01  0.46586034934E+02  0.78583376188E+02  0.91435703464E+02  0.00000000000E+00 0. -1.
</event>
<event>
 8    1  0.6689467E-009  0.1218468E+03  0.7561462E-02  0.1240081E+00
          2   -1    0    0  501    0  0.00000000000E+00  0.00000000000E+00  0.19376110142E+03  0.19376110142E+03  0.00000000000E+00 0. -1.
         -2   -1    0    0    0  501 -0.00000000000E+00 -0.00000000000E+00 -0.11207925619E+03  0.11207925619E+03  0.00000000000E+00 0.  1.
         25    2    1    2    0    0  0.15932785944E+02  0.81252752689E+02  0.98431180740E+02  0.17942140137E+03  0.12508988144E+03 0.  0.
         23    2    1    2    0    0 -0.15932785944E+02 -0.81252752689E+02 -0.16749335501E+02  0.12641895624E+03  0.94049714355E+02 0.  0.
          5    1    3    3  502    0  0.53203852653E+02  0.37300234256E+02 -0.20141988009E+00  0.65111215490E+02  0.41800000000E+01 0.  1.
         -5    1    3    3    0  502 -0.37271066709E+02  0.43952518433E+02  0.98632600620E+02  0.11431018588E+03  0.41800000000E+01 0.  1.
        -11    1    4    4    0    0  0.26492340509E+02  0.28107795608E+01 -0.18167235257E+02  0.32245821811E+02  0.00000000000E+00 0. -1.
         11    1    4    4    0    0 -0.42425126453E+02 -0.84063532250E+02  0.14178997568E+01  0.94173134431E+02  0.00000000000E+00 0.  1.
</event>
<event>
 8    1  0.6689467E-009  0.1819507E+03  0.7561462E-02  0.1165928E+00
          2   -1    0    0  501    0  0.00000000000E+00  0.00000000000E+00  0.23762820726E+03  0.23762820726E+03  0.00000000000E+00 0. -1.
         -2   -1    0    0    0  501 -0.00000000000E+00 -0.00000000000E+00 -0.19520819327E+03  0.19520819327E+03  0.00000000000E+00 0.  1.
         25    2    1    2    0    0  0.95943841235E+02 -0.15214130078E+03  0.72569972463E+02  0.23078499321E+03  0.12507244347E+03 0.  0.
         23    2    1    2    0    0 -0.95943841235E+02  0.15214130078E+03 -0.30149958467E+02  0.20205140732E+03  0.86968702015E+02 0.  0.
          5    1    3    3  502    0  0.20328016141E+01 -0.15816601128E+02  0.62773452712E+02  0.64902048651E+02  0.41800000000E+01 0.  1.
         -5    1    3    3    0  502  0.93911039620E+02 -0.13632469965E+03  0.97965197504E+01  0.16588294456E+03  0.41800000000E+01 0.  1.
        -11    1    4    4    0    0 -0.50155275162E+02  0.55025528445E+02 -0.54112767012E+02  0.92041034115E+02  0.00000000000E+00 0.  1.
         11    1    4    4    0    0 -0.45788566072E+02  0.97115772333E+02  0.23962808546E+02  0.11001037320E+03  0.00000000000E+00 0. -1.
</event>
<event>
 8    1  0.6689467E-009  0.1004517E+03  0.7561462E-02  0.1279349E+00
         -1   -1    0    0    0  501 -0.00000000000E+00  0.00000000000E+00  0.12952148350E+03  0.12952148350E+03  0.00000000000E+00 0.  1.
          1   -1    0    0  501    0  0.00000000000E+00 -0.00000000000E+00 -0.98671903418E+02  0.98671903418E+02  0.00000000000E+00 0. -1.
         25    2    1    2    0    0  0.16465522382E+02 -0.13416059835E+01  0.45700573438E+02  0.13419726460E+03  0.12508976809E+03 0.  0.
         23    2    1    2    0    0 -0.16465522382E+02  0.13416059835E+01 -0.14850993351E+02  0.93996122321E+02  0.91333486049E+02 0.  0.
          5    1    3    3  502    0 -0.42891585974E+02  0.16301158122E+02 -0.13923982898E+02  0.48132791351E+02  0.41800000000E+01 0. -1.
         -5    1    3    3    0  502  0.59357108356E+02 -0.17642764106E+02  0.59624556336E+02  0.86064473251E+02  0.41800000000E+01 0. -1.
        -11    1    4    4    0    0  0.25340896817E+00 -0.44225733921E+02 -0.86427306545E+01  0.45063028640E+02  0.00000000000E+00 0.  1.
         11    1    4    4    0    0 -0.16718931350E+02  0.45567339905E+02 -0.62082626962E+01  0.48933093681E+02  0.00000000000E+00 0. -1.
</event>
<event>
 8    1  0.6689467E-009  0.1081979E+03  0.7561462E-02  0.1263944E+00
         -1   -1    0    0    0  501 -0.00000000000E+00  0.00000000000E+00  0.15755632955E+02  0.15755632955E+02  0.00000000000E+00 0.  1.
          1   -1    0    0  501    0  0.00000000000E+00 -0.00000000000E+00 -0.10742411716E+04  0.10742411716E+04  0.00000000000E+00 0. -1.
         25    2    1    2    0    0 -0.64141916437E+02 -0.32890086833E+02 -0.59292687650E+03  0.61025069433E+03  0.12509071029E+03 0.  0.
         23    2    1    2    0    0  0.64141916437E+02  0.32890086833E+02 -0.46555866210E+03  0.47974611018E+03  0.90639500869E+02 0.  0.
          5    1    3    3  502    0 -0.55802390698E+02  0.99100108043E+01 -0.97214384878E+02  0.11260650136E+03  0.41800000000E+01 0.  1.
         -5    1    3    3    0  502 -0.83395257389E+01 -0.42800097637E+02 -0.49571249162E+03  0.49764419297E+03  0.41800000000E+01 0.  1.
        -11    1    4    4    0    0  0.56567349521E+02 -0.21745715972E+02 -0.25049838701E+03  0.25772501448E+03  0.00000000000E+00 0. -1.
         11    1    4    4    0    0  0.75745669162E+01  0.54635802805E+02 -0.21506027509E+03  0.22202109570E+03  0.00000000000E+00 0.  1.
</event>
<event>
 8    1  0.6689467E-009  0.9344367E+02  0.7561462E-02  0.1294720E+00
         -2   -1    0    0    0  501 -0.00000000000E+00  0.00000000000E+00  0.73770839541E+01  0.73770839541E+01  0.00000000000E+00 0.  1.
          2   -1    0    0  501    0  0.00000000000E+00 -0.00000000000E+00 -0.26090351579E+04  0.26090351579E+04  0.00000000000E+00 0. -1.
         25    2    1    2    0    0 -0.42838410982E+02  0.18824076015E+01 -0.21341660716E+04  0.21382588062E+04  0.12508888185E+03 0.  0.
         23    2    1    2    0    0  0.42838410982E+02 -0.18824076015E+01 -0.46749200233E+03  0.47815343560E+03  0.90792416106E+02 0.  0.
          5    1    3    3  502    0 -0.56020814535E+02  0.23441753805E+02 -0.20326520250E+04  0.20335632703E+04  0.41800000000E+01 0.  1.
         -5    1    3    3    0  502  0.13182403554E+02 -0.21559346204E+02 -0.10151404663E+03  0.10469553589E+03  0.41800000000E+01 0.  1.
        -11    1    4    4    0    0  0.77971584560E+01 -0.44528854324E+02 -0.21317652320E+03  0.21791705897E+03  0.00000000000E+00 0. -1.
         11    1    4    4    0    0  0.35041252526E+02  0.42646446723E+02 -0.25431547913E+03  0.26023637663E+03  0.00000000000E+00 0.  1.
</event>
<event>
 8    1  0.6689467E-009  0.9662612E+02  0.7561462E-02  0.1287555E+00
         -2   -1    0    0    0  501 -0.00000000000E+00  0.00000000000E+00  0.48325347107E+02  0.48325347107E+02  0.00000000000E+00 0.  1.
          2   -1    0    0  501    0  0.00000000000E+00 -0.00000000000E+00 -0.59110327511E+03  0.59110327511E+03  0.00000000000E+00 0. -1.
         25    2    1    2    0    0  0.46365114435E+02  0.14261568738E+02 -0.51506399218E+03  0.53225106297E+03  0.12508861584E+03 0.  0.
         23    2    1    2    0    0 -0.46365114435E+02 -0.14261568738E+02 -0.27713935822E+02  0.10717755925E+03  0.91465024942E+02 0.  0.
          5    1    3    3  502    0  0.67423777925E+02  0.53318559071E+02 -0.39279806710E+03  0.40211519306E+03  0.41800000000E+01 0.  1.
         -5    1    3    3    0  502 -0.21058663490E+02 -0.39056990333E+02 -0.12226592508E+03  0.13013586991E+03  0.41800000000E+01 0.  1.
        -11    1    4    4    0    0 -0.50723666527E+02 -0.33043874161E+01 -0.56541572143E+02  0.76031300808E+02  0.00000000000E+00 0. -1.
         11    1    4    4    0    0  0.43585520920E+01 -0.10957181321E+02  0.28827636320E+02  0.31146258438E+02  0.00000000000E+00 0.  1.
</event>
<event>
 8    1  0.6689467E-009  0.1801682E+03  0.7561462E-02  0.1167640E+00
          2   -1    0    0  501    0  0.00000000000E+00  0.00000000000E+00  0.35431190581E+03  0.35431190581E+03  0.00000000000E+00 0. -1.
         -2   -1    0    0    0  501 -0.00000000000E+00 -0.00000000000E+00 -0.12299371560E+03  0.12299371560E+03  0.00000000000E+00 0.  1.
         25    2    1    2    0    0  0.13412586256E+03 -0.95440870903E+02  0.19768481574E+03  0.28604820333E+03  0.12508229855E+03 0.  0.
         23    2    1    2    0    0 -0.13412586256E+03  0.95440870903E+02  0.33633374473E+02  0.19125741808E+03  0.91375539636E+02 0.  0.
          5    1    3    3  502    0  0.15928014426E+02 -0.42060216515E+02 -0.49369616553E+01  0.45437973626E+02  0.41800000000E+01 0.  1.
         -5    1    3    3    0  502  0.11819784814E+03 -0.53380654388E+02  0.20262177739E+03  0.24061022971E+03  0.41800000000E+01 0.  1.
        -11    1    4    4    0    0 -0.65836296075E+02  0.96844081602E+02  0.37172906659E+02  0.12286178825E+03  0.00000000000E+00 0. -1.
         11    1    4    4    0    0 -0.68289566488E+02 -0.14032106995E+01 -0.35395321856E+01  0.68395629827E+02  0.00000000000E+00 0.  1.
</event>
<event>
 8    1  0.6689467E-009  0.1212739E+03  0.7561462E-02  0.1241010E+00
         -1   -1    0    0    0  501 -0.00000000000E+00  0.00000000000E+00  0.28230525499E+03  0.28230525499E+03  0.00000000000E+00 0.  1.
          1   -1    0    0  501    0  0.00000000000E+00 -0.00000000000E+00 -0.64297442538E+02  0.64297442538E+02  0.00000000000E+00 0. -1.
         25    2    1    2    0    0 -0.73955103303E+02 -0.29066913595E+02  0.11989493935E+03  0.19062272404E+03  0.12509190088E+03 0.  0.
         23    2    1    2    0    0  0.73955103303E+02  0.29066913595E+02  0.98112873097E+02  0.15597997349E+03  0.91593523196E+02 0.  0.
          5    1    3    3  502    0 -0.17483465368E+02 -0.63281074035E+02  0.16416743825E+02  0.67802269653E+02  0.41800000000E+01 0. -1.
         -5    1    3    3    0  502 -0.56471637935E+02  0.34214160440E+02  0.10347819553E+03  0.12282045439E+03  0.41800000000E+01 0. -1.
        -11    1    4    4    0    0  0.66930149029E+02  0.53181340587E+02  0.43608229394E+02  0.95966543683E+02  0.00000000000E+00 0. -1.
         11    1    4    4    0    0  0.70249542746E+01 -0.24114426992E+02  0.54504643704E+02  0.60013429805E+02  0.00000000000E+00 0.  1.
</event>
<event>
 8    1  0.6689467E-009  0.1367347E+03  0.7561462E-02  0.1217791E+00
          1   -1    0    0  501    0  0.00000000000E+00  0.00000000000E+00  0.72282928814E+03  0.72282928814E+03  0.00000000000E+00 0. -1.
         -1   -1    0    0    0  501 -0.00000000000E+00 -0.00000000000E+00 -0.27799504884E+02  0.27799504884E+02  0.00000000000E+00 0.  1.
         25    2    1    2    0    0  0.75484385175E+02 -0.40276698645E+02  0.29809189710E+03  0.33440748532E+03  0.12509789074E+03 0.  0.
         23    2    1    2    0    0 -0.75484385175E+02  0.40276698645E+02  0.39693788616E+03  0.41622130770E+03  0.91435150002E+02 0.  0.
          5    1    3    3  502    0  0.74017745813E+02 -0.80515536528E+02  0.23790096533E+03  0.26186966228E+03  0.41800000000E+01 0.  1.
         -5    1    3    3    0  502  0.14666393621E+01  0.40238837883E+02  0.60190931770E+02  0.72537823048E+02  0.41800000000E+01 0.  1.
        -11    1    4    4    0    0  0.20482694340E+02  0.35674740255E+01  0.96021007365E+02  0.98246127119E+02  0.00000000000E+00 0. -1.
         11    1    4    4    0    0 -0.95967079515E+02  0.36709224619E+02  0.30091687880E+03  0.31797518059E+03  0.00000000000E+00 0.  1.
</event>
<event>
 8    1  0.6689467E-009  0.1022710E+03  0.7561462E-02  0.1275591E+00
          1   -1    0    0  501    0  0.00000000000E+00  0.00000000000E+00  0.16931915644E+03  0.16931915644E+03  0.00000000000E+00 0. -1.
         -1   -1    0    0    0  501 -0.00000000000E+00 -0.00000000000E+00 -0.69734931832E+02  0.69734931832E+02  0.00000000000E+00 0.  1.
         25    2    1    2    0    0 -0.43312073110E+01  0.24762410972E+02  0.46354982254E+02  0.13574856566E+03  0.12508777856E+03 0.  0.
         23    2    1    2    0    0  0.43312073110E+01 -0.24762410972E+02  0.53229242357E+02  0.10330552262E+03  0.84892534462E+02 0.  0.
          5    1    3    3  502    0  0.31005053497E+02  0.63875845111E+02  0.10585529240E+02  0.71909406619E+02  0.41800000000E+01 0.  1.
         -5    1    3    3    0  502 -0.35336260808E+02 -0.39113434138E+02  0.35769453014E+02  0.63839159040E+02  0.41800000000E+01 0.  1.
        -11    1    4    4    0    0 -0.17639080435E+02  0.22399378402E+02  0.40865888187E+02  0.49828607533E+02  0.00000000000E+00 0.  1.
         11    1    4    4    0    0  0.21970287746E+02 -0.47161789374E+02  0.12363354170E+02  0.53476915084E+02  0.00000000000E+00 0. -1.
</event>
<event>
 8    1  0.6689467E-009  0.1218868E+03  0.7561462E-02  0.1240016E+00
          1   -1    0    0  501    0  0.00000000000E+00  0.00000000000E+00  0.35575664190E+03  0.35575664190E+03  0.00000000000E+00 0. -1.
         -1   -1    0    0    0  501 -0.00000000000E+00 -0.00000000000E+00 -0.55797563508E+02  0.55797563508E+02  0.00000000000E+00 0.  1.
         25    2    1    2    0    0 -0.62298306591E+02 -0.12374785651E+02  0.25313394731E+03  0.28941623744E+03  0.12510295316E+03 0.  0.
         23    2    1    2    0    0  0.62298306591E+02  0.12374785651E+02  0.46825131083E+02  0.12213796797E+03  0.93224867900E+02 0.  0.
          5    1    3    3  502    0  0.80865572714E+01  0.41859823928E+02  0.40614561065E+02  0.59030943057E+02  0.41800000000E+01 0.  1.
         -5    1    3    3    0  502 -0.70384863862E+02 -0.54234609579E+02  0.21251938624E+03  0.23038529438E+03  0.41800000000E+01 0.  1.
        -11    1    4    4    0    0  0.83672379506E+02 -0.58713346480E+01  0.28497695651E+02  0.88587009884E+02  0.00000000000E+00 0.  1.
         11    1    4    4    0    0 -0.21374072916E+02  0.18246120299E+02  0.18327435431E+02  0.33550958086E+02  0.00000000000E+00 0. -1.
</event>
<event>
 8    1  0.6689467E-009  0.9097524E+02  0.7561462E-02  0.1300507E+00
         -2   -1    0    0    0  501 -0.00000000000E+00  0.00000000000E+00  0.10392641620E+03  0.10392641620E+03  0.00000000000E+00 0. -1.
          2   -1    0    0  501    0  0.00000000000E+00 -0.00000000000E+00 -0.15517470762E+03  0.15517470762E+03  0.00000000000E+00 0.  1.
         25    2    1    2    0    0 -0.24379963977E+02 -0.89375898270E+01 -0.90223227008E+02  0.15639975172E+03  0.12508552471E+03 0.  0.
         23    2    1    2    0    0  0.24379963977E+02  0.89375898270E+01  0.38974935587E+02  0.10270137209E+03  0.91401657916E+02 0.  0.
          5    1    3    3  502    0  0.23348540515E+02  0.20543446228E+02  0.16725437929E+02  0.35558405490E+02  0.41800000000E+01 0. -1.
         -5    1    3    3    0  502 -0.47728504492E+02 -0.29481036055E+02 -0.10694866494E+03  0.12084134623E+03  0.41800000000E+01 0. -1.
        -11    1    4    4    0    0  0.37114591646E+02  0.43676938813E+02  0.17535852821E+02  0.59938919170E+02  0.00000000000E+00 0.  1.
         11    1    4    4    0    0 -0.12734627669E+02 -0.34739348986E+02  0.21439082766E+02  0.42762452920E+02  0.00000000000E+00 0. -1.
</event>
<event>
 8    1  0.6689467E-009  0.1171540E+03  0.7561462E-02  0.1247867E+00
          1   -1    0    0  501    0  0.00000000000E+00  0.00000000000E+00  0.51327631134E+03  0.51327631134E+03  0.00000000000E+00 0. -1.
         -1   -1    0    0    0  501 -0.00000000000E+00 -0.00000000000E+00 -0.28668480045E+02  0.28668480045E+02  0.00000000000E+00 0.  1.
         25    2    1    2    0    0 -0.98805927904E+01  0.45010223207E+02  0.20492441352E+03  0.24447105555E+03  0.12509410632E+03 0.  0.
         23    2    1    2    0    0  0.98805927904E+01 -0.45010223207E+02  0.27968341778E+03  0.29747373584E+03  0.90245570693E+02 0.  0.
          5    1    3    3  502    0  0.53982571710E+02  0.43168482709E+02  0.10352134786E+03  0.12454628782E+03  0.41800000000E+01 0. -1.
         -5    1    3    3    0  502 -0.63863164500E+02  0.18417404974E+01  0.10140306566E+03  0.11992476773E+03  0.41800000000E+01 0. -1.
        -11    1    4    4    0    0  0.48111665433E+02 -0.98828320487E+01  0.14732824522E+03  0.15529975711E+03  0.00000000000E+00 0. -1.
         11    1    4    4    0    0 -0.38231072642E+02 -0.35127391158E+02  0.13235517255E+03  0.14217397873E+03  0.00000000000E+00 0.  1.
</event>
<event>
 8    1  0.6689467E-009  0.7276071E+02  0.7561462E-02  0.1350949E+00
         -3   -1    0    0    0  501 -0.00000000000E+00  0.00000000000E+00  0.67297267817E+02  0.67297267817E+02  0.00000000000E+00 0.  1.
          3   -1    0    0  501    0  0.00000000000E+00 -0.00000000000E+00 -0.21798004183E+03  0.21798004183E+03  0.00000000000E+00 0. -1.
         25    2    1    2    0    0 -0.21507824245E+02 -0.83367979953E+01 -0.14379175946E+03  0.19197879920E+03  0.12509076924E+03 0.  0.
         23    2    1    2    0    0  0.21507824245E+02  0.83367979953E+01 -0.68910145458E+01  0.93298510440E+02  0.90138988591E+02 0.  0.
          5    1    3    3  502    0  0.44941040318E+01 -0.24038274113E+02 -0.15674316626E+03  0.15869444906E+03  0.41800000000E+01 0.  1.
         -5    1    3    3    0  502 -0.26001928277E+02  0.15701476117E+02  0.12951406797E+02  0.33284350142E+02  0.41800000000E+01 0.  1.
        -11    1    4    4    0    0 -0.29309182527E+02  0.22892797736E+02  0.86850294206E+01  0.38190811782E+02  0.00000000000E+00 0.  1.
         11    1    4    4    0    0  0.50817006772E+02 -0.14555999741E+02 -0.15576043966E+02  0.55107698658E+02  0.00000000000E+00 0. -1.
</event>
<event>
 8    1  0.6689467E-009  0.8021447E+02  0.7561462E-02  0.1328444E+00
         -1   -1    0    0    0  501 -0.00000000000E+00  0.00000000000E+00  0.15740771862E+03  0.15740771862E+03  0.00000000000E+00 0.  1.
          1   -1    0    0  501    0  0.00000000000E+00 -0.00000000000E+00 -0.97913409685E+02  0.97913409685E+02  0.00000000000E+00 0. -1.
         25    2    1    2    0    0 -0.20536132862E+02 -0.52110988894E+02  0.58046264993E+02  0.14883888190E+03  0.12508539471E+03 0.  0.
         23    2    1    2    0    0  0.20536132862E+02  0.52110988894E+02  0.14480439371E+01  0.10648224640E+03  0.90548793756E+02 0.  0.
          5    1    3    3  502    0 -0.46057020037E+02 -0.12404652977E+01 -0.21439286528E+02  0.50989246471E+02  0.41800000000E+01 0. -1.
         -5    1    3    3    0  502  0.25520887175E+02 -0.50870523596E+02  0.79485551521E+02  0.97849635430E+02  0.41800000000E+01 0. -1.
        -11    1    4    4    0    0  0.12093416182E+02  0.43042639844E+02  0.43659130117E+02  0.62490312867E+02  0.00000000000E+00 0.  1.
         11    1    4    4    0    0  0.84427166807E+01  0.90683490498E+01 -0.42211086180E+02  0.43991933532E+02  0.00000000000E+00 0. -1.
</event>
<event>
 8    1  0.6689467E-009  0.1066819E+03  0.7561462E-02  0.1266841E+00
          2   -1    0    0  501    0  0.00000000000E+00  0.00000000000E+00  0.14399354288E+02  0.14399354288E+02  0.00000000000E+00 0. -1.
         -2   -1    0    0    0  501 -0.00000000000E+00 -0.00000000000E+00 -0.83689749329E+03  0.83689749329E+03  0.00000000000E+00 0.  1.
         25    2    1    2    0    0 -0.12469307065E+02 -0.15049762504E+01 -0.46961325045E+03  0.48615606922E+03  0.12511342884E+03 0.  0.
         23    2    1    2    0    0  0.12469307065E+02  0.15049762504E+01 -0.35288488855E+03  0.36514077835E+03  0.92963943947E+02 0.  0.
          5    1    3    3  502    0 -0.53439183173E+02 -0.37168285866E+02 -0.17978137674E+03  0.19124864338E+03  0.41800000000E+01 0. -1.
         -5    1    3    3    0  502  0.40969876109E+02  0.35663309616E+02 -0.28983187371E+03  0.29490742584E+03  0.41800000000E+01 0. -1.
        -11    1    4    4    0    0  0.51503384155E+02  0.12707122678E+02 -0.18953442199E+03  0.19681810554E+03  0.00000000000E+00 0.  1.
         11    1    4    4    0    0 -0.39034077091E+02 -0.11202146427E+02 -0.16335046656E+03  0.16832267281E+03  0.00000000000E+00 0. -1.
</event>
<event>
 8    1  0.6689467E-009  0.1145152E+03  0.7561462E-02  0.1252430E+00
         -1   -1    0    0    0  501 -0.00000000000E+00  0.00000000000E+00  0.21694180966E+03  0.21694180966E+03  0.00000000000E+00 0. -1.
          1   -1    0    0  501    0  0.00000000000E+00 -0.00000000000E+00 -0.87306595931E+02  0.87306595931E+02  0.00000000000E+00 0.  1.
         25    2    1    2    0    0  0.35580744252E+02  0.24355370675E+02  0.15139724433E+03  0.20105983838E+03  0.12507901333E+03 0.  0.
         23    2    1    2    0    0 -0.35580744252E+02 -0.24355370675E+02 -0.21762030597E+02  0.10318856722E+03  0.91187285224E+02 0.  0.
          5    1    3    3  502    0  0.60331903425E+02  0.61958582252E+02  0.10765154775E+03  0.13814895084E+03  0.41800000000E+01 0. -1.
         -5    1    3    3    0  502 -0.24751159172E+02 -0.37603211577E+02  0.43745696577E+02  0.62910887534E+02  0.41800000000E+01 0. -1.
        -11    1    4    4    0    0 -0.19879645032E+02 -0.57349912569E+02 -0.26710929376E+02  0.66315054900E+02  0.00000000000E+00 0.  1.
         11    1    4    4    0    0 -0.15701099220E+02  0.32994541894E+02  0.49488987797E+01  0.36873512318E+02  0.00000000000E+00 0. -1.
</event>
<event>
 8    1  0.6689467E-009  0.7945574E+02  0.7561462E-02  0.1330603E+00
         -1   -1    0    0    0  501 -0.00000000000E+00  0.00000000000E+00  0.41860134552E+03  0.41860134552E+03  0.00000000000E+00 0.  1.
          1   -1    0    0  501    0  0.00000000000E+00 -0.00000000000E+00 -0.31688775001E+02  0.31688775001E+02  0.00000000000E+00 0. -1.
         25    2    1    2    0    0  0.10038254237E+02  0.29758826743E+02  0.19084768338E+03  0.23034181008E+03  0.12509259330E+03 0.  0.
         23    2    1    2    0    0 -0.10038254237E+02 -0.29758826743E+02  0.19606488714E+03  0.21994831045E+03  0.94601611946E+02 0.  0.
          5    1    3    3  502    0 -0.39079088706E+02  0.46091055124E+02  0.15719361776E+03  0.16846028137E+03  0.41800000000E+01 0.  1.
         -5    1    3    3    0  502  0.49117342943E+02 -0.16332228381E+02  0.33654065626E+02  0.61881528704E+02  0.41800000000E+01 0.  1.
        -11    1    4    4    0    0 -0.20464049161E+02 -0.29595884318E+02  0.20380847762E+03  0.20696035666E+03  0.00000000000E+00 0.  1.
         11    1    4    4    0    0  0.10425794924E+02 -0.16294242543E+00 -0.77435904853E+01  0.12987953790E+02  0.00000000000E+00 0. -1.
</event>
<event>
 8    1  0.6689467E-009  0.8508040E+02  0.7561462E-02  0.1315222E+00
         -1   -1    0    0    0  501 -0.00000000000E+00  0.00000000000E+00  0.54616904554E+02  0.54616904554E+02  0.00000000000E+00 0.  1.
          1   -1    0    0  501    0  0.00000000000E+00 -0.00000000000E+00 -0.24826965807E+03  0.24826965807E+03  0.00000000000E+00 0. -1.
         25    2    1    2    0    0  0.63904122198E+01  0.38902049485E+01 -0.54801373304E+02  0.13677161556E+03  0.12508922114E+03 0.  0.
         23    2    1    2    0    0 -0.63904122198E+01 -0.38902049485E+01 -0.13885138021E+03  0.16611494706E+03  0.90876282863E+02 0.  0.
          5    1    3    3  502    0 -0.46628054926E+00 -0.37248192951E+02  0.26086698179E+02  0.45668736763E+02  0.41800000000E+01 0.  1.
         -5    1    3    3    0  502  0.68566927691E+01  0.41138397899E+02 -0.80888071484E+02  0.91102878801E+02  0.41800000000E+01 0.  1.
        -11    1    4    4    0    0  0.79845029973E+01  0.41958619754E+02 -0.73354451488E+02  0.84883176265E+02  0.00000000000E+00 0. -1.
         11    1    4    4    0    0 -0.14374915217E+02 -0.45848824703E+02 -0.65496928723E+02  0.81231770794E+02  0.00000000000E+00 0.  1.
</event>
<event>
 8    1  0.6689467E-009  0.7450968E+02  0.7561462E-02  0.1345396E+00
          2   -1    0    0  501    0  0.00000000000E+00  0.00000000000E+00  0.90400285233E+03  0.90400285233E+03  0.00000000000E+00 0. -1.
         -2   -1    0    0    0  501 -0.00000000000E+00 -0.00000000000E+00 -0.17471052138E+02  0.17471052138E+02  0.00000000000E+00 0.  1.
         25    2    1    2    0    0  0.45717792647E+02 -0.19765094712E+02  0.63667544494E+03  0.65075658209E+03  0.12509089262E+03 0.  0.
         23    2    1    2    0    0 -0.45717792647E+02  0.19765094712E+02  0.24985635525E+03  0.27071732237E+03  0.91536303397E+02 0.  0.
          5    1    3    3  502    0  0.38531988834E+02 -0.12379519534E+02  0.52239398643E+02  0.66214755440E+02  0.41800000000E+01 0.  1.
         -5    1    3    3    0  502  0.71858038134E+01 -0.73855751783E+01  0.58443604630E+03  0.58454182665E+03  0.41800000000E+01 0.  1.
        -11    1    4    4    0    0 -0.16475655422E+02 -0.33000990360E+02  0.51198086911E+02  0.63101162348E+02  0.00000000000E+00 0.  1.
         11    1    4    4    0    0 -0.29242137225E+02  0.52766085072E+02  0.19865826834E+03  0.20761616002E+03  0.00000000000E+00 0. -1.
</event>
<event>
 8    1  0.6689467E-009  0.1365892E+03  0.7561462E-02  0.1217994E+00
          2   -1    0    0  501    0  0.00000000000E+00  0.00000000000E+00  0.10913486904E+03  0.10913486904E+03  0.00000000000E+00 0. -1.
         -2   -1    0    0    0  501 -0.00000000000E+00 -0.00000000000E+00 -0.27283940974E+03  0.27283940974E+03  0.00000000000E+00 0.  1.
         25    2    1    2    0    0 -0.46016495390E+02 -0.98907321406E+02 -0.17476974571E+03  0.24104568814E+03  0.12513346348E+03 0.  0.
         23    2    1    2    0    0  0.46016495390E+02  0.98907321406E+02  0.11065205002E+02  0.14092859063E+03  0.88533907745E+02 0.  0.
          5    1    3    3  502    0 -0.43837395725E+02 -0.12453803989E+03 -0.11237560118E+03  0.17342776244E+03  0.41800000000E+01 0. -1.
         -5    1    3    3    0  502 -0.21790996655E+01  0.25630718485E+02 -0.62394144523E+02  0.67617925701E+02  0.41800000000E+01 0. -1.
        -11    1    4    4    0    0  0.34881255599E+02  0.97798888047E+02 -0.21898525396E+02  0.10611724605E+03  0.00000000000E+00 0.  1.
         11    1    4    4    0    0  0.11135239792E+02  0.11084333582E+01  0.32963730398E+02  0.34811344580E+02  0.00000000000E+00 0. -1.
</event>
<event>
 8    1  0.6689467E-009  0.1423488E+03  0.7561462E-02  0.1210203E+00
          2   -1    0    0  501    0  0.00000000000E+00  0.00000000000E+00  0.12982382033E+03  0.12982382033E+03  0.00000000000E+00 0. -1.
         -2   -1    0    0    0  501 -0.00000000000E+00 -0.00000000000E+00 -0.21737912228E+03  0.21737912228E+03  0.00000000000E+00 0.  1.
         25    2    1    2    0    0 -0.23785877850E+02  0.12122840365E+03 -0.84983262121E+02  0.19527197000E+03  0.12508754371E+03 0.  0.
         23    2    1    2    0    0  0.23785877850E+02 -0.12122840365E+03 -0.25720398254E+01  0.15193097260E+03  0.88398592806E+02 0.  0.
          5    1    3    3  502    0  0.73892023271E+01  0.12651281398E+03 -0.98569903327E+02  0.16060383138E+03  0.41800000000E+01 0. -1.
         -5    1    3    3    0  502 -0.31175080177E+02 -0.52844103267E+01  0.13586641206E+02  0.34668138626E+02  0.41800000000E+01 0. -1.
        -11    1    4    4    0    0  0.24221474207E+02 -0.59039518714E+02 -0.43724720755E+02  0.77357583906E+02  0.00000000000E+00 0.  1.
         11    1    4    4    0    0 -0.43559635677E+00 -0.62188884937E+02  0.41152680929E+02  0.74573388695E+02  0.00000000000E+00 0. -1.
</event>
<event>
 8    1  0.6689467E-009  0.3787270E+03  0.7561462E-02  0.1051405E+00
          1   -1    0    0  501    0  0.00000000000E+00  0.00000000000E+00  0.53261354445E+03  0.53261354445E+03  0.00000000000E+00 0. -1.
         -1   -1    0    0    0  501 -0.00000000000E+00 -0.00000000000E+00 -0.31024263366E+03  0.31024263366E+03  0.00000000000E+00 0.  1.
         25    2    1    2    0    0 -0.36788114575E+03 -0.50877365475E+02  0.24097374137E+03  0.46004388515E+03  0.12508792314E+03 0.  0.
         23    2    1    2    0    0  0.36788114575E+03  0.50877365475E+02 -0.18602830582E+02  0.38281229297E+03  0.90962314345E+02 0.  0.
          5    1    3    3  502    0 -0.90764280687E+02  0.12140347852E+02  0.70532161727E+01  0.91938908809E+02  0.41800000000E+01 0.  1.
         -5    1    3    3    0  502 -0.27711686506E+03 -0.63017713327E+02  0.23392052520E+03  0.36810497634E+03  0.41800000000E+01 0.  1.
        -11    1    4    4    0    0  0.23049540814E+03 -0.11279487249E+02  0.83203201297E+00  0.23077272864E+03  0.00000000000E+00 0.  1.
         11    1    4    4    0    0  0.13738573760E+03  0.62156852723E+02 -0.19434862595E+02  0.15203956433E+03  0.00000000000E+00 0. -1.
</event>
<event>
 8    1  0.6689467E-009  0.1036500E+03  0.7561462E-02  0.1272803E+00
          4   -1    0    0  501    0  0.00000000000E+00  0.00000000000E+00  0.16042608289E+03  0.16042608289E+03  0.00000000000E+00 0. -1.
         -4   -1    0    0    0  501 -0.00000000000E+00 -0.00000000000E+00 -0.14154197096E+03  0.14154197096E+03  0.00000000000E+00 0.  1.
         25    2    1    2    0    0 -0.88176704216E+02 -0.14527849948E+02 -0.22944123877E+02  0.15543445212E+03  0.12508895432E+03 0.  0.
         23    2    1    2    0    0  0.88176704216E+02  0.14527849948E+02  0.41828235815E+02  0.14653360173E+03  0.10833423067E+03 0.  0.
          5    1    3    3  502    0 -0.10489669579E+02  0.51116638584E+01 -0.64077736449E+02  0.65265542085E+02  0.41800000000E+01 0. -1.
         -5    1    3    3    0  502 -0.77687034636E+02 -0.19639513807E+02  0.41133612572E+02  0.90168910032E+02  0.41800000000E+01 0. -1.
        -11    1    4    4    0    0  0.53290291841E+02 -0.27562579704E+02  0.63832967515E+02  0.87602504223E+02  0.00000000000E+00 0. -1.
         11    1    4    4    0    0  0.34886412374E+02  0.42090429652E+02 -0.22004731699E+02  0.58931097511E+02  0.00000000000E+00 0.  1.
</event>
<event>
 8    1  0.6689467E-009  0.8607345E+02  0.7561462E-02  0.1312649E+00
          1   -1    0    0  501    0  0.00000000000E+00  0.00000000000E+00  0.43023985969E+03  0.43023985969E+03  0.00000000000E+00 0. -1.
         -1   -1    0    0    0  501 -0.00000000000E+00 -0.00000000000E+00 -0.44107324237E+02  0.44107324237E+02  0.00000000000E+00 0.  1.
         25    2    1    2    0    0  0.56519579501E+02  0.16467754145E+02  0.11592663002E+03  0.18042177329E+03  0.12508949970E+03 0.  0.
         23    2    1    2    0    0 -0.56519579501E+02 -0.16467754145E+02  0.27020590543E+03  0.29392541064E+03  0.99575428176E+02 0.  0.
          5    1    3    3  502    0  0.69716821761E+02  0.50960894091E+00  0.13497582667E+03  0.15197579124E+03  0.41800000000E+01 0.  1.
         -5    1    3    3    0  502 -0.13197242260E+02  0.15958145204E+02 -0.19049196649E+02  0.28445982047E+02  0.41800000000E+01 0.  1.
        -11    1    4    4    0    0 -0.57976467268E+02 -0.31563310522E+02  0.27081834078E+03  0.27874735341E+03  0.00000000000E+00 0. -1.
         11    1    4    4    0    0  0.14568877664E+01  0.15095556377E+02 -0.61243535080E+00  0.15178057232E+02  0.00000000000E+00 0.  1.
</event>
<event>
 8    1  0.6689467E-009  0.2738414E+03  0.7561462E-02  0.1099101E+00
         -2   -1    0    0    0  501 -0.00000000000E+00  0.00000000000E+00  0.30518668341E+02  0.30518668341E+02  0.00000000000E+00 0.  1.
          2   -1    0    0  501    0  0.00000000000E+00 -0.00000000000E+00 -0.27869698160E+04  0.27869698160E+04  0.00000000000E+00 0. -1.
         25    2    1    2    0    0 -0.19032481276E+03 -0.18364859214E+03 -0.16621039686E+04  0.16876574119E+04  0.12509035826E+03 0.  0.
         23    2    1    2    0    0  0.19032481276E+03  0.18364859214E+03 -0.10943471790E+04  0.11298310724E+04  0.94721508694E+02 0.  0.
          5    1    3    3  502    0 -0.12867360535E+03 -0.55949133874E+02 -0.10492480018E+04  0.10585962611E+04  0.41800000000E+01 0.  1.
         -5    1    3    3    0  502 -0.61651207409E+02 -0.12769945827E+03 -0.61285596685E+03  0.62906115085E+03  0.41800000000E+01 0.  1.
        -11    1    4    4    0    0  0.11157193959E+03  0.92018739231E+02 -0.40666849218E+03  0.43161905496E+03  0.00000000000E+00 0.  1.
         11    1    4    4    0    0  0.78752873166E+02  0.91629852909E+02 -0.68767868684E+03  0.69821201745E+03  0.00000000000E+00 0. -1.
</event>
<event>
 8    1  0.6689467E-009  0.1064754E+03  0.7561462E-02  0.1267240E+00
          1   -1    0    0  501    0  0.00000000000E+00  0.00000000000E+00  0.19728969340E+03  0.19728969340E+03  0.00000000000E+00 0. -1.
         -1   -1    0    0    0  501 -0.00000000000E+00 -0.00000000000E+00 -0.67492875361E+02  0.67492875361E+02  0.00000000000E+00 0.  1.
         25    2    1    2    0    0  0.28625169620E+01  0.33574152515E+02  0.47043327624E+02  0.13782342761E+03  0.12508718881E+03 0.  0.
         23    2    1    2    0    0 -0.28625169620E+01 -0.33574152515E+02  0.82753490416E+02  0.12695914115E+03  0.90194598645E+02 0.  0.
          5    1    3    3  502    0 -0.60121018812E+02  0.92374924329E+01  0.14107301663E+02  0.62580800008E+02  0.41800000000E+01 0.  1.
         -5    1    3    3    0  502  0.62983535774E+02  0.24336660082E+02  0.32936025960E+02  0.75242627603E+02  0.41800000000E+01 0.  1.
        -11    1    4    4    0    0  0.27402723155E+02 -0.44409450994E+02  0.78881933830E+02  0.94580484555E+02  0.00000000000E+00 0.  1.
         11    1    4    4    0    0 -0.30265240117E+02  0.10835298478E+02  0.38715565852E+01  0.32378656594E+02  0.00000000000E+00 0. -1.
</event>
<event>
 7    1  0.6689467E-009  0.8565871E+02  0.7561462E-02  0.1313719E+00
          2   -1    0    0  501    0  0.00000000000E+00  0.00000000000E+00  0.51664394259E+03  0.51664394259E+03  0.00000000000E+00 0. -1.
         -2   -1    0    0    0  501 -0.00000000000E+00 -0.00000000000E+00 -0.66879382930E+02  0.66879382930E+02  0.00000000000E+00 0.  1.
         25    2    1    2    0    0  0.50646769341E+02  0.12207021886E+02  0.29347253777E+03  0.32324590404E+03  0.12509067680E+03 0.  0.
          5    1    3    3  502    0  0.25400578641E+02  0.21549115289E+01 -0.25422812990E+01  0.25957053631E+02  0.41800000000E+01 0.  1.
         -5    1    3    3    0  502  0.25246190701E+02  0.10052110357E+02  0.29601481907E+03  0.29728885041E+03  0.41800000000E+01 0.  1.
        -11    1    1    2    0    0 -0.79288314775E+02  0.12374335720E+02  0.19213894655E+03  0.20822376384E+03  0.00000000000E+00 0. -1.
         11    1    1    2    0    0  0.28641545434E+02 -0.24581357606E+02 -0.35846924662E+02  0.52053657646E+02  0.00000000000E+00 0.  1.
</event>
<event>
 8    1  0.6689467E-009  0.1029270E+03  0.7561462E-02  0.1274258E+00
         -1   -1    0    0    0  501 -0.00000000000E+00  0.00000000000E+00  0.27174059859E+02  0.27174059859E+02  0.00000000000E+00 0.  1.
          1   -1    0    0  501    0  0.00000000000E+00 -0.00000000000E+00 -0.50098363140E+03  0.50098363140E+03  0.00000000000E+00 0. -1.
         25    2    1    2    0    0 -0.41069006607E+02 -0.10587491823E+02 -0.27921060392E+03  0.30887628354E+03  0.12508892398E+03 0.  0.
         23    2    1    2    0    0  0.41069006607E+02  0.10587491823E+02 -0.19459896763E+03  0.21928140773E+03  0.91743224746E+02 0.  0.
          5    1    3    3  502    0 -0.54034225443E+02  0.32434912168E+02 -0.67629642682E+02  0.92536274054E+02  0.41800000000E+01 0.  1.
         -5    1    3    3    0  502  0.12965218836E+02 -0.43022403992E+02 -0.21158096124E+03  0.21634000948E+03  0.41800000000E+01 0.  1.
        -11    1    4    4    0    0  0.55705017932E+02 -0.23508122820E+02 -0.14685663042E+03  0.15881609099E+03  0.00000000000E+00 0. -1.
         11    1    4    4    0    0 -0.14636011325E+02  0.34095614643E+02 -0.47742337210E+02  0.60465316733E+02  0.00000000000E+00 0.  1.
</event>
<event>
 8    1  0.6689467E-009  0.1131431E+03  0.7561462E-02  0.1254858E+00
          1   -1    0    0  501    0  0.00000000000E+00  0.00000000000E+00  0.83966951361E+03  0.83966951361E+03  0.00000000000E+00 0. -1.
         -1   -1    0    0    0  501 -0.00000000000E+00 -0.00000000000E+00 -0.33392161810E+02  0.33392161810E+02  0.00000000000E+00 0.  1.
         25    2    1    2    0    0  0.30198613403E+02 -0.62760938386E+02  0.69938355709E+03  0.71388807787E+03  0.12509171099E+03 0.  0.
         23    2    1    2    0    0 -0.30198613403E+02  0.62760938386E+02  0.10689379471E+03  0.15917359755E+03  0.95179089987E+02 0.  0.
          5    1    3    3  502    0 -0.29138140612E+02 -0.48616758159E+02  0.54316745420E+03  0.54613274588E+03  0.41800000000E+01 0.  1.
         -5    1    3    3    0  502  0.59336754014E+02 -0.14144180227E+02  0.15621610288E+03  0.16775533199E+03  0.41800000000E+01 0.  1.
        -11    1    4    4    0    0  0.28731562152E+02  0.26697172977E+02  0.71488617839E+02  0.81540567752E+02  0.00000000000E+00 0. -1.
         11    1    4    4    0    0 -0.58930175555E+02  0.36063765409E+02  0.35405176870E+02  0.77633029798E+02  0.00000000000E+00 0.  1.
</event>
<event>
 8    1  0.6689467E-009  0.1438971E+03  0.7561462E-02  0.1208179E+00
         -2   -1    0    0    0  501 -0.00000000000E+00  0.00000000000E+00  0.31169569397E+02  0.31169569397E+02  0.00000000000E+00 0.  1.
          2   -1    0    0  501    0  0.00000000000E+00 -0.00000000000E+00 -0.95071345541E+03  0.95071345541E+03  0.00000000000E+00 0. -1.
         25    2    1    2    0    0 -0.95255124174E+02 -0.49488250187E+01 -0.75530241452E+03  0.77151002327E+03  0.12509176267E+03 0.  0.
         23    2    1    2    0    0  0.95255124174E+02  0.49488250187E+01 -0.16424147149E+03  0.21037300153E+03  0.90462750700E+02 0.  0.
          5    1    3    3  502    0 -0.14393982047E+02  0.54167823681E+02 -0.23398922483E+03  0.24064448795E+03  0.41800000000E+01 0.  1.
         -5    1    3    3    0  502 -0.80861142127E+02 -0.59116648700E+02 -0.52131318969E+03  0.53086553533E+03  0.41800000000E+01 0.  1.
        -11    1    4    4    0    0 -0.14507515119E+02  0.15303829528E+02 -0.29802171735E+02  0.36508144752E+02  0.00000000000E+00 0.  1.
         11    1    4    4    0    0  0.10976263929E+03 -0.10355004509E+02 -0.13443929976E+03  0.17386485678E+03  0.00000000000E+00 0. -1.
</event>
<event>
 8    1  0.6689467E-009  0.1194990E+03  0.7561462E-02  0.1243926E+00
          2   -1    0    0  501    0  0.00000000000E+00  0.00000000000E+00  0.14617833917E+03  0.14617833917E+03  0.00000000000E+00 0. -1.
         -2   -1    0    0    0  501 -0.00000000000E+00 -0.00000000000E+00 -0.12252968378E+03  0.12252968378E+03  0.00000000000E+00 0.  1.
         25    2    1    2    0    0 -0.27425894863E+02 -0.52304398980E+02 -0.37990420772E+02  0.14346021504E+03  0.12509848667E+03 0.  0.
         23    2    1    2    0    0  0.27425894863E+02  0.52304398980E+02  0.61639076159E+02  0.12524780791E+03  0.91649919883E+02 0.  0.
          5    1    3    3  502    0  0.31614865076E+01 -0.89029599136E+02 -0.33521153724E+02  0.95275414805E+02  0.41800000000E+01 0. -1.
         -5    1    3    3    0  502 -0.30587381370E+02  0.36725200156E+02 -0.44692670482E+01  0.48184800233E+02  0.41800000000E+01 0. -1.
        -11    1    4    4    0    0  0.54779768122E+02  0.17369748738E+02  0.56485231551E+02  0.80579852011E+02  0.00000000000E+00 0. -1.
         11    1    4    4    0    0 -0.27353873259E+02  0.34934650243E+02  0.51538446078E+01  0.44667955898E+02  0.00000000000E+00 0.  1.
</event>
<event>
 8    1  0.6689467E-009  0.9826608E+02  0.7561462E-02  0.1283985E+00
          2   -1    0    0  501    0  0.00000000000E+00  0.00000000000E+00  0.35883257356E+03  0.35883257356E+03  0.00000000000E+00 0. -1.
         -2   -1    0    0    0  501 -0.00000000000E+00 -0.00000000000E+00 -0.47544842927E+02  0.47544842927E+02  0.00000000000E+00 0.  1.
         25    2    1    2    0    0 -0.32997975655E+01 -0.71648103515E+02  0.15131087718E+03  0.20901646712E+03  0.12509421478E+03 0.  0.
         23    2    1    2    0    0  0.32997975655E+01  0.71648103515E+02  0.15997685345E+03  0.19736094937E+03  0.90633389514E+02 0.  0.
          5    1    3    3  502    0 -0.27848004610E+02 -0.45905565387E+02  0.34020260157E+00  0.53855551544E+02  0.41800000000E+01 0. -1.
         -5    1    3    3    0  502  0.24548207044E+02 -0.25742538128E+02  0.15097067458E+03  0.15516091557E+03  0.41800000000E+01 0. -1.
        -11    1    4    4    0    0 -0.37621956714E+02  0.27066400815E+02  0.33607689604E+02  0.57249266201E+02  0.00000000000E+00 0.  1.
         11    1    4    4    0    0  0.40921754279E+02  0.44581702700E+02  0.12636916385E+03  0.14011168317E+03  0.00000000000E+00 0. -1.
</event>
<event>
 7    1  0.6689467E-009  0.7916503E+02  0.7561462E-02  0.1331438E+00
         -1   -1    0    0    0  501 -0.00000000000E+00  0.00000000000E+00  0.48810430250E+02  0.48810430250E+02  0.00000000000E+00 0.  1.
          1   -1    0    0  501    0  0.00000000000E+00 -0.00000000000E+00 -0.22721521696E+03  0.22721521696E+03  0.00000000000E+00 0. -1.
         25    2    1    2    0    0  0.23297790919E+02 -0.45118474795E+02 -0.15860421637E+03  0.20828066833E+03  0.12508827091E+03 0.  0.
          5    1    3    3  502    0  0.42839866783E+02 -0.65832067722E+02 -0.16121615455E+03  0.17938014442E+03  0.41800000000E+01 0. -1.
         -5    1    3    3    0  502 -0.19542075865E+02  0.20713592927E+02  0.26119381733E+01  0.28900523906E+02  0.41800000000E+01 0. -1.
        -11    1    1    2    0    0 -0.14821663745E+02  0.32123445074E+02  0.76663373403E+01  0.36199035454E+02  0.00000000000E+00 0.  1.
         11    1    1    2    0    0 -0.84761271730E+01  0.12995029721E+02 -0.27466907672E+02  0.31545943422E+02  0.00000000000E+00 0. -1.
</event>
<event>
 8    1  0.6689467E-009  0.2508308E+03  0.7561462E-02  0.1112781E+00
          2   -1    0    0  501    0  0.00000000000E+00  0.00000000000E+00  0.38338707915E+03  0.38338707915E+03  0.00000000000E+00 0. -1.
         -2   -1    0    0    0  501 -0.00000000000E+00 -0.00000000000E+00 -0.18754170310E+03  0.18754170310E+03  0.00000000000E+00 0.  1.
         25    2    1    2    0    0 -0.96413893182E+02  0.22299624039E+03  0.68614989916E+02  0.28174114491E+03  0.12508834426E+03 0.  0.
         23    2    1    2    0    0  0.96413893182E+02 -0.22299624039E+03  0.12723038613E+03  0.28918763735E+03  0.91754871332E+02 0.  0.
          5    1    3    3  502    0 -0.86350628240E+02  0.17867135487E+03  0.10391049164E+03  0.22404184145E+03  0.41800000000E+01 0.  1.
         -5    1    3    3    0  502 -0.10063264941E+02  0.44324885516E+02 -0.35295501726E+02  0.57699303457E+02  0.41800000000E+01 0.  1.
        -11    1    4    4    0    0  0.57793067689E+02 -0.39473993034E+02  0.51678467905E+02  0.86999418642E+02  0.00000000000E+00 0. -1.
         11    1    4    4    0    0  0.38620825493E+02 -0.18352224735E+03  0.75551918229E+02  0.20218821871E+03  0.00000000000E+00 0.  1.
</event>
<event>
 8    1  0.6689467E-009  0.1017254E+03  0.7561462E-02  0.1276709E+00
         -1   -1    0    0    0  501 -0.00000000000E+00  0.00000000000E+00  0.31313015066E+03  0.31313015066E+03  0.00000000000E+00 0.  1.
          1   -1    0    0  501    0  0.00000000000E+00 -0.00000000000E+00 -0.44828457711E+02  0.44828457711E+02  0.00000000000E+00 0. -1.
         25    2    1    2    0    0 -0.33930199975E+02 -0.30051957687E+02  0.17672109238E+03  0.22120636949E+03  0.12509010665E+03 0.  0.
         23    2    1    2    0    0  0.33930199975E+02  0.30051957687E+02  0.91580600572E+02  0.13675223888E+03  0.90883385755E+02 0.  0.
          5    1    3    3  502    0 -0.35750436707E+02 -0.62091754374E+02  0.17459894728E+03  0.18877432155E+03  0.41800000000E+01 0. -1.
         -5    1    3    3    0  502  0.18202367316E+01  0.32039796687E+02  0.21221450927E+01  0.32432047935E+02  0.41800000000E+01 0. -1.
        -11    1    4    4    0    0 -0.20156766634E+02 -0.17958649086E+02  0.13023032907E+02  0.29973449988E+02  0.00000000000E+00 0.  1.
         11    1    4    4    0    0  0.54086966609E+02  0.48010606773E+02  0.78557567665E+02  0.10677878889E+03  0.00000000000E+00 0. -1.
</event>
<event>
 8    1  0.6689467E-009  0.1066338E+03  0.7561462E-02  0.1266934E+00
         -1   -1    0    0    0  501 -0.00000000000E+00  0.00000000000E+00  0.19183084646E+02  0.19183084646E+02  0.00000000000E+00 0.  1.
          1   -1    0    0  501    0  0.00000000000E+00 -0.00000000000E+00 -0.76373032450E+03  0.76373032450E+03  0.00000000000E+00 0. -1.
         25    2    1    2    0    0  0.14546812512E+02 -0.33820621911E+02 -0.52412750750E+03  0.54010462511E+03  0.12509163731E+03 0.  0.
         23    2    1    2    0    0 -0.14546812512E+02  0.33820621911E+02 -0.22041973235E+03  0.24280878404E+03  0.94951582259E+02 0.  0.
          5    1    3    3  502    0  0.45112340618E+02 -0.58257004835E+02 -0.19270002019E+03  0.20634866626E+03  0.41800000000E+01 0. -1.
         -5    1    3    3    0  502 -0.30565528107E+02  0.24436382924E+02 -0.33142748732E+03  0.33375595885E+03  0.41800000000E+01 0. -1.
        -11    1    4    4    0    0 -0.50160227995E+02 -0.11856375540E+01 -0.13272866163E+03  0.14189556662E+03  0.00000000000E+00 0.  1.
         11    1    4    4    0    0  0.35613415484E+02  0.35006259465E+02 -0.87691070722E+02  0.10091321741E+03  0.00000000000E+00 0. -1.
</event>
<event>
 8    1  0.6689467E-009  0.1187481E+03  0.7561462E-02  0.1245177E+00
          1   -1    0    0  501    0  0.00000000000E+00  0.00000000000E+00  0.41812354990E+03  0.41812354990E+03  0.00000000000E+00 0. -1.
         -1   -1    0    0    0  501 -0.00000000000E+00 -0.00000000000E+00 -0.36702116144E+02  0.36702116144E+02  0.00000000000E+00 0.  1.
         25    2    1    2    0    0 -0.12168029134E+02  0.55635900745E+02  0.22715582244E+03  0.26550358098E+03  0.12509584110E+03 0.  0.
         23    2    1    2    0    0  0.12168029134E+02 -0.55635900745E+02  0.15426561132E+03  0.18932208507E+03  0.93816622585E+02 0.  0.
          5    1    3    3  502    0 -0.43390685969E+02  0.82736328670E+02  0.13301258494E+03  0.16259726893E+03  0.41800000000E+01 0.  1.
         -5    1    3    3    0  502  0.31222656835E+02 -0.27100427925E+02  0.94143237490E+02  0.10290631204E+03  0.41800000000E+01 0.  1.
        -11    1    4    4    0    0  0.48987703438E+02 -0.35105847385E+02  0.55474644061E+02  0.81912463902E+02  0.00000000000E+00 0.  1.
         11    1    4    4    0    0 -0.36819674303E+02 -0.20530053361E+02  0.98790967262E+02  0.10740962117E+03  0.00000000000E+00 0. -1.
</event>
<event>
 8    1  0.6689467E-009  0.2541615E+03  0.7561462E-02  0.1110703E+00
          3   -1    0    0  501    0  0.00000000000E+00  0.00000000000E+00  0.52615710197E+03  0.52615710197E+03  0.00000000000E+00 0. -1.
         -3   -1    0    0    0  501 -0.00000000000E+00 -0.00000000000E+00 -0.16789254744E+03  0.16789254744E+03  0.00000000000E+00 0.  1.
         25    2    1    2    0    0 -0.10051443001E+03  0.21797414676E+03  0.34121136149E+03  0.43553274304E+03  0.12509075806E+03 0.  0.
         23    2    1    2    0    0  0.10051443001E+03 -0.21797414676E+03  0.17053193046E+02  0.25851690637E+03  0.94468514269E+02 0.  0.
          5    1    3    3  502    0 -0.57598619016E+02  0.47750728050E+02  0.35363868372E+02  0.82860174560E+02  0.41800000000E+01 0.  1.
         -5    1    3    3    0  502 -0.42915810992E+02  0.17022341871E+03  0.30584749312E+03  0.35267256848E+03  0.41800000000E+01 0.  1.
        -11    1    4    4    0    0  0.56216841932E+02 -0.20359798919E+03  0.10404916437E+02  0.21147278030E+03  0.00000000000E+00 0.  1.
         11    1    4    4    0    0  0.44297588077E+02 -0.14376157568E+02  0.66482766095E+01  0.47044126070E+02  0.00000000000E+00 0. -1.
</event>
<event>
 8    1  0.6689467E-009  0.8663356E+02  0.7561462E-02  0.1311215E+00
          1   -1    0    0  501    0  0.00000000000E+00  0.00000000000E+00  0.20738147465E+03  0.20738147465E+03  0.00000000000E+00 0. -1.
         -1   -1    0    0    0  501 -0.00000000000E+00 -0.00000000000E+00 -0.72544615606E+02  0.72544615606E+02  0.00000000000E+00 0.  1.
         25    2    1    2    0    0 -0.28889103135E+02  0.27273969341E+02  0.28711886189E+02  0.13434107909E+03  0.12507878892E+03 0.  0.
         23    2    1    2    0    0  0.28889103135E+02 -0.27273969341E+02  0.10612497286E+03  0.14558501117E+03  0.91400415372E+02 0.  0.
          5    1    3    3  502    0  0.23582117699E+02  0.18161701231E+02  0.63732603989E+02  0.70464749188E+02  0.41800000000E+01 0.  1.
         -5    1    3    3    0  502 -0.52471220835E+02  0.91122681098E+01 -0.35020717801E+02  0.63876329898E+02  0.41800000000E+01 0.  1.
        -11    1    4    4    0    0  0.55604579226E+02 -0.29565283847E+02  0.99843805673E+02  0.11804558768E+03  0.00000000000E+00 0. -1.
         11    1    4    4    0    0 -0.26715476090E+02  0.22913145061E+01  0.62811671835E+01  0.27539423489E+02  0.00000000000E+00 0.  1.
</event>
<event>
 8    1  0.6689467E-009  0.1603612E+03  0.7561462E-02  0.1188290E+00
         -2   -1    0    0    0  501 -0.00000000000E+00  0.00000000000E+00  0.11089391408E+03  0.11089391408E+03  0.00000000000E+00 0.  1.
          2   -1    0    0  501    0  0.00000000000E+00 -0.00000000000E+00 -0.36099026187E+03  0.36099026187E+03  0.00000000000E+00 0. -1.
         25    2    1    2    0    0  0.12612921084E+03 -0.30038524645E+02 -0.58010885613E+01  0.18025155016E+03  0.12508428325E+03 0.  0.
         23    2    1    2    0    0 -0.12612921084E+03  0.30038524645E+02 -0.24429525923E+03  0.29163262579E+03  0.92512290806E+02 0.  0.
          5    1    3    3  502    0  0.14545897168E+03 -0.25323759596E+02  0.18170417593E+02  0.14881949374E+03  0.41800000000E+01 0.  1.
         -5    1    3    3    0  502 -0.19329760837E+02 -0.47147650485E+01 -0.23971506155E+02  0.31432056420E+02  0.41800000000E+01 0.  1.
        -11    1    4    4    0    0 -0.95410842022E+02  0.57570970786E+02 -0.13647401549E+03  0.17618967721E+03  0.00000000000E+00 0.  1.
         11    1    4    4    0    0 -0.30718368819E+02 -0.27532446141E+02 -0.10782124374E+03  0.11544294857E+03  0.00000000000E+00 0. -1.
</event>
<event>
 8    1  0.6689467E-009  0.1313749E+03  0.7561462E-02  0.1225430E+00
         -2   -1    0    0    0  501 -0.00000000000E+00  0.00000000000E+00  0.71162241000E+02  0.71162241000E+02  0.00000000000E+00 0.  1.
          2   -1    0    0  501    0  0.00000000000E+00 -0.00000000000E+00 -0.28749900555E+03  0.28749900555E+03  0.00000000000E+00 0. -1.
         25    2    1    2    0    0  0.58366266695E+01 -0.84740477507E+02 -0.16416007920E+03  0.22318351565E+03  0.12508930937E+03 0.  0.
         23    2    1    2    0    0 -0.58366266695E+01  0.84740477507E+02 -0.52176685357E+02  0.13547773090E+03  0.91743088763E+02 0.  0.
          5    1    3    3  502    0  0.51650762344E+02 -0.67860883919E+01 -0.98003385325E+02  0.11106749381E+03  0.41800000000E+01 0. -1.
         -5    1    3    3    0  502 -0.45814135674E+02 -0.77954389115E+02 -0.66156693871E+02  0.11211602184E+03  0.41800000000E+01 0. -1.
        -11    1    4    4    0    0 -0.36781286150E+02  0.80798006811E+02 -0.54544023749E+02  0.10419324087E+03  0.00000000000E+00 0. -1.
         11    1    4    4    0    0  0.30944659481E+02  0.39424706953E+01  0.23673383913E+01  0.31284490033E+02  0.00000000000E+00 0.  1.
</event>
<event>
 8    1  0.6689467E-009  0.6236327E+02  0.7561462E-02  0.1388174E+00
          2   -1    0    0  501    0  0.00000000000E+00  0.00000000000E+00  0.36950356465E+02  0.36950356465E+02  0.00000000000E+00 0. -1.
         -2   -1    0    0    0  501 -0.00000000000E+00 -0.00000000000E+00 -0.41071633373E+03  0.41071633373E+03  0.00000000000E+00 0.  1.
         25    2    1    2    0    0  0.58230773297E+01  0.55440294279E+02 -0.26048242907E+03  0.29428768605E+03  0.12508641753E+03 0.  0.
         23    2    1    2    0    0 -0.58230773297E+01 -0.55440294279E+02 -0.11328354819E+03  0.15337900414E+03  0.87088588001E+02 0.  0.
          5    1    3    3  502    0  0.93531521862E+01  0.25902255475E+02  0.39685695913E+01  0.28135924351E+02  0.41800000000E+01 0. -1.
         -5    1    3    3    0  502 -0.35300748565E+01  0.29538038804E+02 -0.26445099866E+03  0.26615176170E+03  0.41800000000E+01 0. -1.
        -11    1    4    4    0    0  0.10469754442E+02 -0.47623004252E+02 -0.12338912465E+03  0.13267419634E+03  0.00000000000E+00 0.  1.
         11    1    4    4    0    0 -0.16292831772E+02 -0.78172900269E+01  0.10105576457E+02  0.20704807800E+02  0.00000000000E+00 0. -1.
</event>
<event>
 8    1  0.6689467E-009  0.2594802E+03  0.7561462E-02  0.1107456E+00
         -2   -1    0    0    0  501 -0.00000000000E+00  0.00000000000E+00  0.18808508434E+03  0.18808508434E+03  0.00000000000E+00 0.  1.
          2   -1    0    0  501    0  0.00000000000E+00 -0.00000000000E+00 -0.40112197156E+03  0.40112197156E+03  0.00000000000E+00 0. -1.
         25    2    1    2    0    0  0.20905315664E+03  0.13778216917E+03 -0.13443209707E+03  0.31049561138E+03  0.12509351510E+03 0.  0.
         23    2    1    2    0    0 -0.20905315664E+03 -0.13778216917E+03 -0.78604790141E+02  0.27871144452E+03  0.93884012630E+02 0.  0.
          5    1    3    3  502    0  0.14748949313E+03  0.14395916002E+03 -0.62258536867E+02  0.21533923968E+03  0.41800000000E+01 0. -1.
         -5    1    3    3    0  502  0.61563663518E+02 -0.61769908449E+01 -0.72173560206E+02  0.95156371697E+02  0.41800000000E+01 0. -1.
        -11    1    4    4    0    0 -0.60318451631E+02 -0.47859929516E+02  0.19091704756E+02  0.79330836697E+02  0.00000000000E+00 0.  1.
         11    1    4    4    0    0 -0.14873470501E+03 -0.89922239654E+02 -0.97696494897E+02  0.19938060782E+03  0.00000000000E+00 0. -1.
</event>
<event>
 8    1  0.6689467E-009  0.1341988E+03  0.7561462E-02  0.1221355E+00
          2   -1    0    0  501    0  0.00000000000E+00  0.00000000000E+00  0.10662323821E+04  0.10662323821E+04  0.00000000000E+00 0. -1.
         -2   -1    0    0    0  501 -0.00000000000E+00 -0.00000000000E+00 -0.19568634415E+02  0.19568634415E+02  0.00000000000E+00 0.  1.
         25    2    1    2    0    0  0.63558603918E+02  0.65121758850E+02  0.66673838351E+03  0.68444743515E+03  0.12509068645E+03 0.  0.
         23    2    1    2    0    0 -0.63558603918E+02 -0.65121758850E+02  0.37992536413E+03  0.40135358131E+03  0.91983016468E+02 0.  0.
          5    1    3    3  502    0  0.84506005563E+02  0.14148375985E+02  0.53106619053E+03  0.53795000943E+03  0.41800000000E+01 0. -1.
         -5    1    3    3    0  502 -0.20947401645E+02  0.50973382864E+02  0.13567219298E+03  0.14649742572E+03  0.41800000000E+01 0. -1.
        -11    1    4    4    0    0 -0.78786506810E+02 -0.22277417699E+02  0.20848172863E+03  0.22398265149E+03  0.00000000000E+00 0.  1.
         11    1    4    4    0    0  0.15227902891E+02 -0.42844341151E+02  0.17144363550E+03  0.17737092983E+03  0.00000000000E+00 0. -1.
</event>
<event>
 8    1  0.6689467E-009  0.8742366E+02  0.7561462E-02  0.1309213E+00
          1   -1    0    0  501    0  0.00000000000E+00  0.00000000000E+00  0.86793277523E+02  0.86793277523E+02  0.00000000000E+00 0. -1.
         -1   -1    0    0    0  501 -0.00000000000E+00 -0.00000000000E+00 -0.21673824929E+03  0.21673824929E+03  0.00000000000E+00 0.  1.
         25    2    1    2    0    0  0.81633360288E+02 -0.11613706920E+02 -0.55667096148E+02  0.15979840629E+03  0.12505127492E+03 0.  0.
         23    2    1    2    0    0 -0.81633360288E+02  0.11613706920E+02 -0.74277875615E+02  0.14373312052E+03  0.91340699731E+02 0.  0.
          5    1    3    3  502    0  0.23278399134E+02 -0.46689446827E+00 -0.88626908362E+02  0.91729510750E+02  0.41800000000E+01 0. -1.
         -5    1    3    3    0  502  0.58354961154E+02 -0.11146812452E+02  0.32959812213E+02  0.68068895542E+02  0.41800000000E+01 0. -1.
        -11    1    4    4    0    0 -0.14541208806E+02  0.19233421957E+02  0.17499249506E+02  0.29792532739E+02  0.00000000000E+00 0. -1.
         11    1    4    4    0    0 -0.67092151482E+02 -0.76197150365E+01 -0.91777125121E+02  0.11394058778E+03  0.00000000000E+00 0.  1.
</event>
<event>
 8    1  0.6689467E-009  0.1182080E+03  0.7561462E-02  0.1246083E+00
          1   -1    0    0  501    0  0.00000000000E+00  0.00000000000E+00  0.33978912353E+02  0.33978912353E+02  0.00000000000E+00 0. -1.
         -1   -1    0    0    0  501 -0.00000000000E+00 -0.00000000000E+00 -0.66078688240E+03  0.66078688240E+03  0.00000000000E+00 0.  1.
         25    2    1    2    0    0 -0.69195770118E+02  0.45731710271E+02 -0.48402692075E+03  0.50676263605E+03  0.12508743085E+03 0.  0.
         23    2    1    2    0    0  0.69195770118E+02 -0.45731710271E+02 -0.14278104930E+03  0.18800315870E+03  0.89885013869E+02 0.  0.
          5    1    3    3  502    0 -0.20105505798E+02  0.84767277955E+02 -0.27831546408E+03  0.29166194939E+03  0.41800000000E+01 0.  1.
         -5    1    3    3    0  502 -0.49090264320E+02 -0.39035567684E+02 -0.20571145667E+03  0.21510068666E+03  0.41800000000E+01 0.  1.
        -11    1    4    4    0    0  0.46728418767E+02 -0.43360402634E+02 -0.25651010326E+02  0.68714219545E+02  0.00000000000E+00 0. -1.
         11    1    4    4    0    0  0.22467351351E+02 -0.23713076376E+01 -0.11713003897E+03  0.11928893916E+03  0.00000000000E+00 0.  1.
</event>
<event>
 8    1  0.6689467E-009  0.1489345E+03  0.7561462E-02  0.1201788E+00
          3   -1    0    0  501    0  0.00000000000E+00  0.00000000000E+00  0.31200219753E+03  0.31200219753E+03  0.00000000000E+00 0. -1.
         -3   -1    0    0    0  501 -0.00000000000E+00 -0.00000000000E+00 -0.85523571904E+02  0.85523571904E+02  0.00000000000E+00 0.  1.
         25    2    1    2    0    0  0.62385951557E+02  0.10388867904E+03  0.14065789777E+03  0.22386770554E+03  0.12508893154E+03 0.  0.
         23    2    1    2    0    0 -0.62385951557E+02 -0.10388867904E+03  0.85820727857E+02  0.17365806389E+03  0.90039220579E+02 0.  0.
          5    1    3    3  502    0  0.62720412274E+02  0.11718411666E+03  0.15475559243E+03  0.20404100838E+03  0.41800000000E+01 0.  1.
         -5    1    3    3    0  502 -0.33446071690E+00 -0.13295437624E+02 -0.14097694657E+02  0.19826697159E+02  0.41800000000E+01 0.  1.
        -11    1    4    4    0    0  0.23556643147E+02 -0.21436633864E+02  0.19297915323E+02  0.37240491989E+02  0.00000000000E+00 0.  1.
         11    1    4    4    0    0 -0.85942594704E+02 -0.82452045171E+02  0.66522812533E+02  0.13641757191E+03  0.00000000000E+00 0. -1.
</event>
<event>
 8    1  0.6689467E-009  0.7758073E+02  0.7561462E-02  0.1336061E+00
         -4   -1    0    0    0  501 -0.00000000000E+00  0.00000000000E+00  0.17848263597E+03  0.17848263597E+03  0.00000000000E+00 0.  1.
          4   -1    0    0  501    0  0.00000000000E+00 -0.00000000000E+00 -0.85423536695E+02  0.85423536695E+02  0.00000000000E+00 0. -1.
         25    2    1    2    0    0 -0.33321337331E+02 -0.28462087600E+02  0.11670662433E+02  0.13305670506E+03  0.12508988947E+03 0.  0.
         23    2    1    2    0    0  0.33321337331E+02  0.28462087600E+02  0.81388436839E+02  0.13084946760E+03  0.92612653392E+02 0.  0.
          5    1    3    3  502    0 -0.23257798417E+02 -0.55262029168E+02  0.54659105169E+02  0.81239813102E+02  0.41800000000E+01 0.  1.
         -5    1    3    3    0  502 -0.10063538914E+02  0.26799941568E+02 -0.42988442736E+02  0.51816891960E+02  0.41800000000E+01 0.  1.
        -11    1    4    4    0    0  0.47929463977E+01 -0.14098553706E+02  0.78099632090E+02  0.79506566297E+02  0.00000000000E+00 0.  1.
         11    1    4    4    0    0  0.28528390933E+02  0.42560641306E+02  0.32888047495E+01  0.51342901304E+02  0.00000000000E+00 0. -1.
</event>
<event>
 8    1  0.6689467E-009  0.1040225E+03  0.7561462E-02  0.1272058E+00
          1   -1    0    0  501    0  0.00000000000E+00  0.00000000000E+00  0.96977033705E+03  0.96977033705E+03  0.00000000000E+00 0. -1.
         -1   -1    0    0    0  501 -0.00000000000E+00 -0.00000000000E+00 -0.12201699003E+02  0.12201699003E+02  0.00000000000E+00 0.  1.
         25    2    1    2    0    0  0.93494038466E+01  0.15066911750E+01  0.49481737760E+03  0.51047153910E+03  0.12508906262E+03 0.  0.
         23    2    1    2    0    0 -0.93494038466E+01 -0.15066911750E+01  0.46275126045E+03  0.47150049696E+03  0.89912780570E+02 0.  0.
          5    1    3    3  502    0  0.16657971401E+02  0.58057229956E+02  0.16547336924E+03  0.17620169775E+03  0.41800000000E+01 0. -1.
         -5    1    3    3    0  502 -0.73085675544E+01 -0.56550538781E+02  0.32934400836E+03  0.33426984135E+03  0.41800000000E+01 0. -1.
        -11    1    4    4    0    0 -0.33704616037E+02 -0.35211983932E+02  0.23960403537E+03  0.24451171489E+03  0.00000000000E+00 0.  1.
         11    1    4    4    0    0  0.24355212191E+02  0.33705292757E+02  0.22314722508E+03  0.22698878206E+03  0.00000000000E+00 0. -1.
</event>
<event>
 8    1  0.6689467E-009  0.1589474E+03  0.7561462E-02  0.1189890E+00
         -1   -1    0    0    0  501 -0.00000000000E+00  0.00000000000E+00  0.10517819188E+04  0.10517819188E+04  0.00000000000E+00 0.  1.
          1   -1    0    0  501    0  0.00000000000E+00 -0.00000000000E+00 -0.26367623195E+02  0.26367623195E+02  0.00000000000E+00 0. -1.
         25    2    1    2    0    0 -0.23747376208E+02  0.11719455792E+03  0.68484344588E+03  0.70636878779E+03  0.12509123355E+03 0.  0.
         23    2    1    2    0    0  0.23747376208E+02 -0.11719455792E+03  0.34057084975E+03  0.37178075424E+03  0.89072572868E+02 0.  0.
          5    1    3    3  502    0  0.28602360772E+02  0.11314432831E+03  0.40007257383E+03  0.41676764606E+03  0.41800000000E+01 0.  1.
         -5    1    3    3    0  502 -0.52349736981E+02  0.40502296125E+01  0.28477087205E+03  0.28960114173E+03  0.41800000000E+01 0.  1.
        -11    1    4    4    0    0 -0.33677270799E+02 -0.42350125796E+02  0.10770775971E+03  0.12053486311E+03  0.00000000000E+00 0.  1.
         11    1    4    4    0    0  0.57424647007E+02 -0.74844432125E+02  0.23286309004E+03  0.25124589113E+03  0.00000000000E+00 0. -1.
</event>
<event>
 8    1  0.6689467E-009  0.1222484E+03  0.7561462E-02  0.1239433E+00
         -2   -1    0    0    0  501 -0.00000000000E+00  0.00000000000E+00  0.11601778946E+02  0.11601778946E+02  0.00000000000E+00 0. -1.
          2   -1    0    0  501    0  0.00000000000E+00 -0.00000000000E+00 -0.18087832951E+04  0.18087832951E+04  0.00000000000E+00 0.  1.
         25    2    1    2    0    0  0.56759249026E+02 -0.39363505846E+02 -0.13929102538E+04  0.14002205279E+04  0.12508978232E+03 0.  0.
         23    2    1    2    0    0 -0.56759249026E+02  0.39363505846E+02 -0.40427126233E+03  0.42016454613E+03  0.91279210873E+02 0.  0.
          5    1    3    3  502    0  0.64912450132E+02 -0.73347281237E+02 -0.12092926635E+04  0.12132599344E+04  0.41800000000E+01 0.  1.
         -5    1    3    3    0  502 -0.81532011055E+01  0.33983775391E+02 -0.18361759031E+03  0.18696059357E+03  0.41800000000E+01 0.  1.
        -11    1    4    4    0    0 -0.58738185498E+02 -0.11926022540E+02 -0.16769579217E+03  0.17808504474E+03  0.00000000000E+00 0.  1.
         11    1    4    4    0    0  0.19789364722E+01  0.51289528386E+02 -0.23657547016E+03  0.24207950139E+03  0.00000000000E+00 0. -1.
</event>
<event>
 8    1  0.6689467E-009  0.1655904E+03  0.7561462E-02  0.1182526E+00
         -2   -1    0    0    0  501 -0.00000000000E+00  0.00000000000E+00  0.10686664156E+03  0.10686664156E+03  0.00000000000E+00 0.  1.
          2   -1    0    0  501    0  0.00000000000E+00 -0.00000000000E+00 -0.43285916929E+03  0.43285916929E+03  0.00000000000E+00 0. -1.
         25    2    1    2    0    0 -0.15188819230E+03 -0.44957528400E+01 -0.36540135434E+02  0.20017989529E+03  0.12508626714E+03 0.  0.
         23    2    1    2    0    0  0.15188819230E+03  0.44957528400E+01 -0.28945239230E+03  0.33954591557E+03  0.91752420237E+02 0.  0.
          5    1    3    3  502    0 -0.15351389376E+02  0.17911316092E+02 -0.55510590077E+02  0.60459725526E+02  0.41800000000E+01 0.  1.
         -5    1    3    3    0  502 -0.13653680292E+03 -0.22407068932E+02  0.18970454643E+02  0.13972016977E+03  0.41800000000E+01 0.  1.
        -11    1    4    4    0    0  0.12957185413E+03  0.31914726689E+02 -0.26455724225E+03  0.29630718788E+03  0.00000000000E+00 0.  1.
         11    1    4    4    0    0  0.22316338163E+02 -0.27418973849E+02 -0.24895150043E+02  0.43238727683E+02  0.00000000000E+00 0. -1.
</event>
<event>
 7    1  0.6689467E-009  0.1309548E+03  0.7561462E-02  0.1226046E+00
         -1   -1    0    0    0  501 -0.00000000000E+00  0.00000000000E+00  0.53128369703E+02  0.53128369703E+02  0.00000000000E+00 0.  1.
          1   -1    0    0  501    0  0.00000000000E+00 -0.00000000000E+00 -0.38850521062E+03  0.38850521062E+03  0.00000000000E+00 0. -1.
         23    2    1    2    0    0 -0.72188561419E+02  0.35872803210E+02 -0.77191488444E+02  0.14311963308E+03  0.89591612744E+02 0.  0.
          5    1    1    2  502    0  0.10003366974E+03 -0.47024130036E+01 -0.13347019594E+03  0.16691498847E+03  0.41800000000E+01 0. -1.
         -5    1    1    2    0  502 -0.27845108324E+02 -0.31170390206E+02 -0.12471515652E+03  0.13159895877E+03  0.41800000000E+01 0. -1.
        -11    1    3    3    0    0 -0.93073967225E+02  0.32073113605E+02 -0.56655746048E+02  0.11358398457E+03  0.00000000000E+00 0.  1.
         11    1    3    3    0    0  0.20885405806E+02  0.37996896052E+01 -0.20535742396E+02  0.29535648504E+02  0.00000000000E+00 0. -1.
</event>
<event>
 8    1  0.6689467E-009  0.2767135E+03  0.7561462E-02  0.1097498E+00
         -2   -1    0    0    0  501 -0.00000000000E+00  0.00000000000E+00  0.11517231011E+04  0.11517231011E+04  0.00000000000E+00 0. -1.
          2   -1    0    0  501    0  0.00000000000E+00 -0.00000000000E+00 -0.79892381166E+02  0.79892381166E+02  0.00000000000E+00 0.  1.
         25    2    1    2    0    0 -0.25587370405E+03  0.51370226717E+02  0.76669543184E+03  0.81950041233E+03  0.12509511570E+03 0.  0.
         23    2    1    2    0    0  0.25587370405E+03 -0.51370226717E+02  0.30513528811E+03  0.41211506996E+03  0.92849524615E+02 0.  0.
          5    1    3    3  502    0 -0.46751229441E+02  0.51430275311E+02  0.10895821683E+03  0.12930628789E+03  0.41800000000E+01 0. -1.
         -5    1    3    3    0  502 -0.20912247461E+03 -0.60048593169E-01  0.65773721501E+03  0.69019412443E+03  0.41800000000E+01 0. -1.
        -11    1    4    4    0    0  0.10734258477E+03  0.21050976445E+02  0.14841286897E+03  0.18436906951E+03  0.00000000000E+00 0. -1.
         11    1    4    4    0    0  0.14853111928E+03 -0.72421203162E+02  0.15672241914E+03  0.22774600046E+03  0.00000000000E+00 0.  1.
</event>
<event>
 8    1  0.6689467E-009  0.1008899E+03  0.7561462E-02  0.1278436E+00
         -1   -1    0    0    0  501 -0.00000000000E+00  0.00000000000E+00  0.22782072584E+03  0.22782072584E+03  0.00000000000E+00 0.  1.
          1   -1    0    0  501    0  0.00000000000E+00 -0.00000000000E+00 -0.91909644837E+02  0.91909644837E+02  0.00000000000E+00 0. -1.
         25    2    1    2    0    0  0.64713736441E+02 -0.11176295321E+02  0.15169912874E+03  0.20729754708E+03  0.12508744983E+03 0.  0.
         23    2    1    2    0    0 -0.64713736441E+02  0.11176295321E+02 -0.15788047736E+02  0.11243282360E+03  0.89883814502E+02 0.  0.
          5    1    3    3  502    0 -0.24758877152E+02 -0.23062223569E+02  0.94246012272E+02  0.10022300825E+03  0.41800000000E+01 0.  1.
         -5    1    3    3    0  502  0.89472613594E+02  0.11885928248E+02  0.57453116467E+02  0.10707453883E+03  0.41800000000E+01 0.  1.
        -11    1    4    4    0    0 -0.22992008348E+02  0.24436866031E+02  0.32876151132E+02  0.46974824987E+02  0.00000000000E+00 0.  1.
         11    1    4    4    0    0 -0.41721728093E+02 -0.13260570710E+02 -0.48664198868E+02  0.65457998610E+02  0.00000000000E+00 0. -1.
</event>
<event>
 8    1  0.6689467E-009  0.1035799E+03  0.7561462E-02  0.1272943E+00
          2   -1    0    0  501    0  0.00000000000E+00  0.00000000000E+00  0.39111934458E+03  0.39111934458E+03  0.00000000000E+00 0. -1.
         -2   -1    0    0    0  501 -0.00000000000E+00 -0.00000000000E+00 -0.51633420430E+02  0.51633420430E+02  0.00000000000E+00 0.  1.
         25    2    1    2    0    0  0.58216318158E+01 -0.66923636812E+02  0.28104962234E+03  0.31487405197E+03  0.12507643194E+03 0.  0.
         23    2    1    2    0    0 -0.58216318158E+01  0.66923636812E+02  0.58436301808E+02  0.12787871304E+03  0.91790518670E+02 0.  0.
          5    1    3    3  502    0 -0.30926375353E+01 -0.99583497547E+02  0.15513082693E+03  0.18441660244E+03  0.41800000000E+01 0.  1.
         -5    1    3    3    0  502  0.89142693510E+01  0.32659860734E+02  0.12591879541E+03  0.13045744953E+03  0.41800000000E+01 0.  1.
        -11    1    4    4    0    0 -0.17373589438E+02  0.30309396186E+02  0.77501942601E+02  0.85012070990E+02  0.00000000000E+00 0. -1.
         11    1    4    4    0    0  0.11551957622E+02  0.36614240626E+02 -0.19065640793E+02  0.42866642047E+02  0.00000000000E+00 0.  1.
</event>
<event>
 8    1  0.6689467E-009  0.1042643E+03  0.7561462E-02  0.1271576E+00
         -2   -1    0    0    0  501 -0.00000000000E+00  0.00000000000E+00  0.99892866188E+02  0.99892866188E+02  0.00000000000E+00 0.  1.
          2   -1    0    0  501    0  0.00000000000E+00 -0.00000000000E+00 -0.14043406813E+03  0.14043406813E+03  0.00000000000E+00 0. -1.
         25    2    1    2    0    0 -0.36629079626E+02  0.21408291688E+02 -0.49585032633E+02  0.14108961285E+03  0.12509036320E+03 0.  0.
         23    2    1    2    0    0  0.36629079626E+02 -0.21408291688E+02  0.90438306913E+01  0.99237321470E+02  0.89253855220E+02 0.  0.
          5    1    3    3  502    0 -0.11800952012E+02 -0.50797516113E+02 -0.35784028075E+02  0.63384691977E+02  0.41800000000E+01 0.  1.
         -5    1    3    3    0  502 -0.24828127613E+02  0.72205807801E+02 -0.13801004558E+02  0.77704920872E+02  0.41800000000E+01 0.  1.
        -11    1    4    4    0    0 -0.19377732017E+01 -0.37790029760E+02 -0.24912355624E+02  0.45304158496E+02  0.00000000000E+00 0. -1.
         11    1    4    4    0    0  0.38566852827E+02  0.16381738072E+02  0.33956186316E+02  0.53933162974E+02  0.00000000000E+00 0.  1.
</event>
<event>
 8    1  0.6689467E-009  0.1054153E+03  0.7561462E-02  0.1269303E+00
         -2   -1    0    0    0  501 -0.00000000000E+00  0.00000000000E+00  0.26904076437E+03  0.26904076437E+03  0.00000000000E+00 0.  1.
          2   -1    0    0  501    0  0.00000000000E+00 -0.00000000000E+00 -0.63430508808E+02  0.63430508808E+02  0.00000000000E+00 0. -1.
         25    2    1    2    0    0 -0.32500950533E+02  0.61394091039E+02  0.55188530633E+02  0.15335889989E+03  0.12509049549E+03 0.  0.
         23    2    1    2    0    0  0.32500950533E+02 -0.61394091039E+02  0.15042172493E+03  0.17911237329E+03  0.68036760175E+02 0.  0.
          5    1    3    3  502    0  0.34204768631E+02  0.65506722667E+02  0.42020778118E+02  0.85113542432E+02  0.41800000000E+01 0.  1.
         -5    1    3    3    0  502 -0.66705719164E+02 -0.41126316282E+01  0.13167752516E+02  0.68245357456E+02  0.41800000000E+01 0.  1.
        -11    1    4    4    0    0  0.18451503149E+02 -0.27051908652E+02  0.13502663647E+03  0.13894047750E+03  0.00000000000E+00 0.  1.
         11    1    4    4    0    0  0.14049447384E+02 -0.34342182387E+02  0.15395088453E+02  0.40171895790E+02  0.00000000000E+00 0. -1.
</event>
<event>
 8    1  0.6689467E-009  0.7924337E+02  0.7561462E-02  0.1331212E+00
         -1   -1    0    0    0  501 -0.00000000000E+00  0.00000000000E+00  0.17320563448E+03  0.17320563448E+03  0.00000000000E+00 0.  1.
          1   -1    0    0  501    0  0.00000000000E+00 -0.00000000000E+00 -0.10318600435E+03  0.10318600435E+03  0.00000000000E+00 0. -1.
         25    2    1    2    0    0  0.37483345340E+01  0.55250115275E+02 -0.18980456477E+02  0.13810935851E+03  0.12508921589E+03 0.  0.
         23    2    1    2    0    0 -0.37483345340E+01 -0.55250115275E+02  0.89000086605E+02  0.13828228031E+03  0.90190622477E+02 0.  0.
          5    1    3    3  502    0  0.71719886736E+01  0.37598436034E+02  0.52036190791E+02  0.64732660734E+02  0.41800000000E+01 0. -1.
         -5    1    3    3    0  502 -0.34236541397E+01  0.17651679242E+02 -0.71016647268E+02  0.73376697779E+02  0.41800000000E+01 0. -1.
        -11    1    4    4    0    0 -0.44336944822E+02 -0.32692951221E+02  0.67458797822E+02  0.87093530984E+02  0.00000000000E+00 0.  1.
         11    1    4    4    0    0  0.40588610288E+02 -0.22557164054E+02  0.21541288782E+02  0.51188749327E+02  0.00000000000E+00 0. -1.
</event>
<event>
 8    1  0.6689467E-009  0.1167176E+03  0.7561462E-02  0.1248612E+00
         -3   -1    0    0    0  501 -0.00000000000E+00  0.00000000000E+00  0.11356529711E+03  0.11356529711E+03  0.00000000000E+00 0.  1.
          3   -1    0    0  501    0  0.00000000000E+00 -0.00000000000E+00 -0.27583232898E+03  0.27583232898E+03  0.00000000000E+00 0. -1.
         25    2    1    2    0    0 -0.65067315116E+01 -0.52146244450E+02  0.56078584947E+02  0.14680332829E+03  0.12507933939E+03 0.  0.
         23    2    1    2    0    0  0.65067315116E+01  0.52146244450E+02 -0.21834561681E+03  0.24259429780E+03  0.91736669745E+02 0.  0.
          5    1    3    3  502    0 -0.52794269257E+02  0.68029414971E+01  0.47103393910E+02  0.71201945179E+02  0.41800000000E+01 0.  1.
         -5    1    3    3    0  502  0.46287537746E+02 -0.58949185947E+02  0.89751910373E+01  0.75601383112E+02  0.41800000000E+01 0.  1.
        -11    1    4    4    0    0  0.69142665234E+01 -0.25960748529E+02 -0.44030667079E+02  0.51579716839E+02  0.00000000000E+00 0.  1.
         11    1    4    4    0    0 -0.40753501180E+00  0.78106992979E+02 -0.17431494973E+03  0.19101458096E+03  0.00000000000E+00 0. -1.
</event>
<event>
 8    1  0.6689467E-009  0.9021080E+02  0.7561462E-02  0.1302342E+00
          2   -1    0    0  501    0  0.00000000000E+00  0.00000000000E+00  0.92377066796E+02  0.92377066796E+02  0.00000000000E+00 0.  1.
         -2   -1    0    0    0  501 -0.00000000000E+00 -0.00000000000E+00 -0.11845806232E+03  0.11845806232E+03  0.00000000000E+00 0. -1.
         25    2    1    2    0    0  0.78158638610E+01 -0.25673648487E+01  0.26709354423E+01  0.12539180693E+03  0.12509313434E+03 0.  0.
         23    2    1    2    0    0 -0.78158638610E+01  0.25673648487E+01 -0.28751930967E+02  0.85443322190E+02  0.80038794858E+02 0.  0.
          5    1    3    3  502    0 -0.17745967740E+02  0.48567599655E+02 -0.29482072437E+02  0.59669054815E+02  0.41800000000E+01 0.  1.
         -5    1    3    3    0  502  0.25561831601E+02 -0.51134964504E+02  0.32153007880E+02  0.65722752113E+02  0.41800000000E+01 0.  1.
        -11    1    4    4    0    0 -0.37875552580E+02  0.11980183082E+02  0.40929585184E+01  0.39935380045E+02  0.00000000000E+00 0.  1.
         11    1    4    4    0    0  0.30059688719E+02 -0.94128182330E+01 -0.32844889486E+02  0.45507942145E+02  0.00000000000E+00 0. -1.
</event>
<event>
 8    1  0.6689467E-009  0.1504960E+03  0.7561462E-02  0.1199865E+00
         -1   -1    0    0    0  501 -0.00000000000E+00  0.00000000000E+00  0.60985601465E+03  0.60985601465E+03  0.00000000000E+00 0.  1.
          1   -1    0    0  501    0  0.00000000000E+00 -0.00000000000E+00 -0.46817098693E+02  0.46817098693E+02  0.00000000000E+00 0. -1.
         25    2    1    2    0    0 -0.11217371261E+03  0.59760566830E+02  0.31444173150E+03  0.36148989117E+03  0.12508825590E+03 0.  0.
         23    2    1    2    0    0  0.11217371261E+03 -0.59760566830E+02  0.24859718446E+03  0.29518322217E+03  0.95803483149E+02 0.  0.
          5    1    3    3  502    0 -0.44658357233E+02  0.68337841959E+02  0.26484768487E+03  0.27717539229E+03  0.41800000000E+01 0.  1.
         -5    1    3    3    0  502 -0.67515355372E+02 -0.85772751291E+01  0.49594046633E+02  0.84314498878E+02  0.41800000000E+01 0.  1.
        -11    1    4    4    0    0  0.64647689764E+02  0.11246402950E+02  0.63483773912E+02  0.91301669871E+02  0.00000000000E+00 0. -1.
         11    1    4    4    0    0  0.47526022842E+02 -0.71006969780E+02  0.18511341055E+03  0.20388155230E+03  0.00000000000E+00 0.  1.
</event>
<event>
 8    1  0.6689467E-009  0.1556024E+03  0.7561462E-02  0.1193753E+00
          1   -1    0    0  501    0  0.00000000000E+00  0.00000000000E+00  0.50192578177E+03  0.50192578177E+03  0.00000000000E+00 0. -1.
         -1   -1    0    0    0  501 -0.00000000000E+00 -0.00000000000E+00 -0.64277499835E+02  0.64277499835E+02  0.00000000000E+00 0.  1.
         25    2    1    2    0    0 -0.12649486017E+03  0.48204810674E+02  0.14988958309E+03  0.23756291354E+03  0.12507836483E+03 0.  0.
         23    2    1    2    0    0  0.12649486017E+03 -0.48204810674E+02  0.28775869885E+03  0.32864036806E+03  0.82914228794E+02 0.  0.
          5    1    3    3  502    0 -0.11214234421E+03  0.37178120488E+00  0.44232976628E+02  0.12062368013E+03  0.41800000000E+01 0. -1.
         -5    1    3    3    0  502 -0.14352515965E+02  0.47833029469E+02  0.10565660646E+03  0.11693923341E+03  0.41800000000E+01 0. -1.
        -11    1    4    4    0    0  0.35273014293E+02 -0.45547785604E+02  0.59524410612E+02  0.82836838240E+02  0.00000000000E+00 0. -1.
         11    1    4    4    0    0  0.91221845881E+02 -0.26570250691E+01  0.22823428823E+03  0.24580352982E+03  0.00000000000E+00 0.  1.
</event>
<event>
 8    1  0.6689467E-009  0.7502610E+02  0.7561462E-02  0.1343790E+00
          2   -1    0    0  501    0  0.00000000000E+00  0.00000000000E+00  0.59187332798E+02  0.59187332798E+02  0.00000000000E+00 0.  1.
         -2   -1    0    0    0  501 -0.00000000000E+00 -0.00000000000E+00 -0.25682896552E+03  0.25682896552E+03  0.00000000000E+00 0. -1.
         25    2    1    2    0    0 -0.34143123408E+02  0.17967230970E+02 -0.16696767810E+03  0.21216283460E+03  0.12508512537E+03 0.  0.
         23    2    1    2    0    0  0.34143123408E+02 -0.17967230970E+02 -0.30673954619E+02  0.10385346372E+03  0.91411575690E+02 0.  0.
          5    1    3    3  502    0 -0.70830396922E+02  0.38195691812E+01 -0.15554065894E+03  0.17100264098E+03  0.41800000000E+01 0. -1.
         -5    1    3    3    0  502  0.36687273514E+02  0.14147661789E+02 -0.11427019162E+02  0.41160193621E+02  0.41800000000E+01 0. -1.
        -11    1    4    4    0    0  0.71200639495E+01 -0.78519292644E+01  0.32616723295E+02  0.34295753998E+02  0.00000000000E+00 0.  1.
         11    1    4    4    0    0  0.27023059459E+02 -0.10115301706E+02 -0.63290677914E+02  0.69557709723E+02  0.00000000000E+00 0. -1.
</event>
<event>
 8    1  0.6689467E-009  0.1079096E+03  0.7561462E-02  0.1264491E+00
         -1   -1    0    0    0  501 -0.00000000000E+00  0.00000000000E+00  0.34932159038E+03  0.34932159038E+03  0.00000000000E+00 0.  1.
          1   -1    0    0  501    0  0.00000000000E+00 -0.00000000000E+00 -0.44002100855E+02  0.44002100855E+02  0.00000000000E+00 0. -1.
         25    2    1    2    0    0 -0.35118527463E+02 -0.29472267259E+01  0.22625949046E+03  0.26093711243E+03  0.12511124051E+03 0.  0.
         23    2    1    2    0    0  0.35118527463E+02  0.29472267259E+01  0.79059999071E+02  0.13238657881E+03  0.10016848646E+03 0.  0.
          5    1    3    3  502    0 -0.70839851671E+02  0.32641857981E+02  0.15464054503E+03  0.17324822090E+03  0.41800000000E+01 0. -1.
         -5    1    3    3    0  502  0.35721324207E+02 -0.35589084707E+02  0.71618945429E+02  0.87688891530E+02  0.41800000000E+01 0. -1.
        -11    1    4    4    0    0  0.60997615367E+02  0.46631732500E+01  0.14584479453E+02  0.62890073193E+02  0.00000000000E+00 0. -1.
         11    1    4    4    0    0 -0.25879087904E+02 -0.17159465241E+01  0.64475519618E+02  0.69496505619E+02  0.00000000000E+00 0.  1.
</event>
<event>
 8    1  0.6689467E-009  0.1223877E+03  0.7561462E-02  0.1239209E+00
         -2   -1    0    0    0  501 -0.00000000000E+00  0.00000000000E+00  0.56845456800E+02  0.56845456800E+02  0.00000000000E+00 0.  1.
          2   -1    0    0  501    0  0.00000000000E+00 -0.00000000000E+00 -0.43240069202E+03  0.43240069202E+03  0.00000000000E+00 0. -1.
         25    2    1    2    0    0  0.37900622881E+02 -0.75088155312E+02 -0.31816712790E+03  0.35206873506E+03  0.12508950654E+03 0.  0.
         23    2    1    2    0    0 -0.37900622881E+02  0.75088155312E+02 -0.57388107321E+02  0.13717741376E+03  0.91921486617E+02 0.  0.
          5    1    3    3  502    0 -0.50014111995E+01 -0.98985738440E+02 -0.18236959193E+03  0.20760378366E+03  0.41800000000E+01 0. -1.
         -5    1    3    3    0  502  0.42902034081E+02  0.23897583127E+02 -0.13579753597E+03  0.14446495140E+03  0.41800000000E+01 0. -1.
        -11    1    4    4    0    0 -0.48918771896E+02  0.64989425237E+02 -0.36774476738E+01  0.81426010941E+02  0.00000000000E+00 0.  1.
         11    1    4    4    0    0  0.11018149014E+02  0.10098730075E+02 -0.53710659648E+02  0.55751402822E+02  0.00000000000E+00 0. -1.
</event>
<event>
 8    1  0.6689467E-009  0.7100467E+02  0.7561462E-02  0.1356710E+00
         -2   -1    0    0    0  501 -0.00000000000E+00  0.00000000000E+00  0.35761773061E+02  0.35761773061E+02  0.00000000000E+00 0.  1.
          2   -1    0    0  501    0  0.00000000000E+00 -0.00000000000E+00 -0.33761064085E+03  0.33761064085E+03  0.00000000000E+00 0. -1.
         25    2    1    2    0    0  0.17311407412E+02 -0.17973266512E+02 -0.18816969423E+03  0.22732649970E+03  0.12508709168E+03 0.  0.
         23    2    1    2    0    0 -0.17311407412E+02  0.17973266512E+02 -0.11367917356E+03  0.14604591421E+03  0.88225457894E+02 0.  0.
          5    1    3    3  502    0  0.31158059451E+02 -0.48090804589E+01  0.58390402838E+01  0.32334481828E+02  0.41800000000E+01 0.  1.
         -5    1    3    3    0  502 -0.13846652039E+02 -0.13164186053E+02 -0.19400873451E+03  0.19499201787E+03  0.41800000000E+01 0.  1.
        -11    1    4    4    0    0  0.24120006306E+02 -0.22314556394E+02 -0.52102265937E+02  0.61598378607E+02  0.00000000000E+00 0. -1.
         11    1    4    4    0    0 -0.41431413718E+02  0.40287822905E+02 -0.61576907626E+02  0.84447535606E+02  0.00000000000E+00 0.  1.
</event>
<event>
 8    1  0.6689467E-009  0.3078808E+03  0.7561462E-02  0.1081366E+00
         -2   -1    0    0    0  501 -0.00000000000E+00  0.00000000000E+00  0.27689318610E+03  0.27689318610E+03  0.00000000000E+00 0.  1.
          2   -1    0    0  501    0  0.00000000000E+00 -0.00000000000E+00 -0.42992649096E+03  0.42992649096E+03  0.00000000000E+00 0. -1.
         25    2    1    2    0    0 -0.28325119740E+03  0.10291075295E+03  0.51642907598E+02  0.33035724455E+03  0.12508818977E+03 0.  0.
         23    2    1    2    0    0  0.28325119740E+03 -0.10291075295E+03 -0.20467621245E+03  0.37646243251E+03  0.94919688374E+02 0.  0.
          5    1    3    3  502    0 -0.25367245767E+03  0.70487078917E+02  0.83190560922E+02  0.27614540717E+03  0.41800000000E+01 0. -1.
         -5    1    3    3    0  502 -0.29578739738E+02  0.32423674038E+02 -0.31547653323E+02  0.54211837386E+02  0.41800000000E+01 0. -1.
        -11    1    4    4    0    0  0.13416485002E+03 -0.14296445727E+02 -0.49426037456E+02  0.14369247899E+03  0.00000000000E+00 0. -1.
         11    1    4    4    0    0  0.14908634739E+03 -0.88614307228E+02 -0.15525017499E+03  0.23276995351E+03  0.00000000000E+00 0.  1.
</event>
<event>
 8    1  0.6689467E-009  0.8714478E+02  0.7561462E-02  0.1309917E+00
          2   -1    0    0  501    0  0.00000000000E+00  0.00000000000E+00  0.10931890524E+03  0.10931890524E+03  0.00000000000E+00 0.  1.
         -2   -1    0    0    0  501 -0.00000000000E+00 -0.00000000000E+00 -0.11497607213E+03  0.11497607213E+03  0.00000000000E+00 0. -1.
         25    2    1    2    0    0  0.37703214033E+01 -0.13050110704E+02  0.22199068028E+02  0.12776471379E+03  0.12508598145E+03 0.  0.
         23    2    1    2    0    0 -0.37703214033E+01  0.13050110704E+02 -0.27856234912E+02  0.96530263585E+02  0.91419917149E+02 0.  0.
          5    1    3    3  502    0  0.45896031470E+02 -0.19445275745E+02 -0.31481120103E+02  0.59102434607E+02  0.41800000000E+01 0. -1.
         -5    1    3    3    0  502 -0.42125710066E+02  0.63951650416E+01  0.53680188131E+02  0.68662279180E+02  0.41800000000E+01 0. -1.
        -11    1    4    4    0    0 -0.39929697003E+02 -0.63339376998E+01  0.89556490440E+01  0.41408973899E+02  0.00000000000E+00 0.  1.
         11    1    4    4    0    0  0.36159375600E+02  0.19384048404E+02 -0.36811883956E+02  0.55121289686E+02  0.00000000000E+00 0. -1.
</event>
<event>
 8    1  0.6689467E-009  0.1179532E+03  0.7561462E-02  0.1246512E+00
         -2   -1    0    0    0  501 -0.00000000000E+00  0.00000000000E+00  0.21321285796E+02  0.21321285796E+02  0.00000000000E+00 0.  1.
          2   -1    0    0  501    0  0.00000000000E+00 -0.00000000000E+00 -0.73350281724E+03  0.73350281724E+03  0.00000000000E+00 0. -1.
         25    2    1    2    0    0 -0.19215617413E+02  0.60003882190E+02 -0.39376974875E+03  0.41793536974E+03  0.12508258239E+03 0.  0.
         23    2    1    2    0    0  0.19215617413E+02 -0.60003882190E+02 -0.31841178269E+03  0.33688873329E+03  0.90212246589E+02 0.  0.
          5    1    3    3  502    0  0.53347352120E+02  0.28814779687E+02 -0.18185906431E+03  0.19174572532E+03  0.41800000000E+01 0. -1.
         -5    1    3    3    0  502 -0.72562969533E+02  0.31189102503E+02 -0.21191068445E+03  0.22618964443E+03  0.41800000000E+01 0. -1.
        -11    1    4    4    0    0 -0.20905174198E+02 -0.50717037499E+02 -0.94894172796E+02  0.10960907002E+03  0.00000000000E+00 0.  1.
         11    1    4    4    0    0  0.40120791611E+02 -0.92868446916E+01 -0.22351760989E+03  0.22727966327E+03  0.00000000000E+00 0. -1.
</event>
<event>
 8    1  0.6689467E-009  0.3446108E+03  0.7561462E-02  0.1064849E+00
          2   -1    0    0  501    0  0.00000000000E+00  0.00000000000E+00  0.13418680528E+04  0.13418680528E+04  0.00000000000E+00 0. -1.
         -2   -1    0    0    0  501 -0.00000000000E+00 -0.00000000000E+00 -0.12442119135E+03  0.12442119135E+03  0.00000000000E+00 0.  1.
         25    2    1    2    0    0 -0.28310661792E+03  0.19458605426E+03  0.27029709379E+03  0.45466541973E+03  0.12508811042E+03 0.  0.
         23    2    1    2    0    0  0.28310661792E+03 -0.19458605426E+03  0.94714976763E+03  0.10116238244E+04  0.90977965017E+02 0.  0.
          5    1    3    3  502    0 -0.19850421604E+02  0.50101195677E+01 -0.12438289988E+02  0.24317154311E+02  0.41800000000E+01 0. -1.
         -5    1    3    3    0  502 -0.26325619631E+03  0.18957593469E+03  0.28273538378E+03  0.43034826542E+03  0.41800000000E+01 0. -1.
        -11    1    4    4    0    0  0.92758827683E+02 -0.72784558682E+02  0.21269354587E+03  0.24318786267E+03  0.00000000000E+00 0.  1.
         11    1    4    4    0    0  0.19034779023E+03 -0.12180149557E+03  0.73445622175E+03  0.76843596171E+03  0.00000000000E+00 0. -1.
</event>
<event>
 8    1  0.6689467E-009  0.1787893E+03  0.7561462E-02  0.1168980E+00
         -2   -1    0    0    0  501 -0.00000000000E+00  0.00000000000E+00  0.46559825164E+03  0.46559825164E+03  0.00000000000E+00 0.  1.
          2   -1    0    0  501    0  0.00000000000E+00 -0.00000000000E+00 -0.10174538635E+03  0.10174538635E+03  0.00000000000E+00 0. -1.
         25    2    1    2    0    0  0.16571668007E+03 -0.42695022175E+01  0.72197010026E+02  0.21986351137E+03  0.12508920287E+03 0.  0.
         23    2    1    2    0    0 -0.16571668007E+03  0.42695022175E+01  0.29165585526E+03  0.34748012662E+03  0.90548626629E+02 0.  0.
          5    1    3    3  502    0  0.11622556282E+03  0.40992118949E+02  0.87177264470E+02  0.15101683055E+03  0.41800000000E+01 0. -1.
         -5    1    3    3    0  502  0.49491117242E+02 -0.45261621166E+02 -0.14980254444E+02  0.68846680818E+02  0.41800000000E+01 0. -1.
        -11    1    4    4    0    0 -0.97540004249E+02  0.12734708801E+02  0.24614518751E+03  0.26507296839E+03  0.00000000000E+00 0.  1.
         11    1    4    4    0    0 -0.68176675818E+02 -0.84652065838E+01  0.45510667756E+02  0.82407158231E+02  0.00000000000E+00 0. -1.
</event>
<event>
 8    1  0.6689467E-009  0.9139137E+02  0.7561462E-02  0.1299517E+00
         -2   -1    0    0    0  501 -0.00000000000E+00  0.00000000000E+00  0.83165194564E+02  0.83165194564E+02  0.00000000000E+00 0.  1.
          2   -1    0    0  501    0  0.00000000000E+00 -0.00000000000E+00 -0.19193216674E+03  0.19193216674E+03  0.00000000000E+00 0. -1.
         25    2    1    2    0    0 -0.59466038685E+02 -0.24963090721E+02 -0.48416481254E+02  0.14883049626E+03  0.12508795028E+03 0.  0.
         23    2    1    2    0    0  0.59466038685E+02  0.24963090721E+02 -0.60350490920E+02  0.12626686504E+03  0.90231778206E+02 0.  0.
          5    1    3    3  502    0 -0.45098581955E+02 -0.42910658121E+02 -0.84988364600E+02  0.10543102576E+03  0.41800000000E+01 0.  1.
         -5    1    3    3    0  502 -0.14367456730E+02  0.17947567400E+02  0.36571883346E+02  0.43399470503E+02  0.41800000000E+01 0.  1.
        -11    1    4    4    0    0  0.70661149344E+02  0.37681740178E+02 -0.70349617887E+02  0.10659259030E+03  0.00000000000E+00 0. -1.
         11    1    4    4    0    0 -0.11195110658E+02 -0.12718649457E+02  0.99991269671E+01  0.19674274746E+02  0.00000000000E+00 0.  1.
</event>
<event>
 8    1  0.6689467E-009  0.1234321E+03  0.7561462E-02  0.1237540E+00
         -2   -1    0    0    0  501 -0.00000000000E+00  0.00000000000E+00  0.58204971760E+03  0.58204971760E+03  0.00000000000E+00 0.  1.
          2   -1    0    0  501    0  0.00000000000E+00 -0.00000000000E+00 -0.12728827607E+03  0.12728827607E+03  0.00000000000E+00 0. -1.
         25    2    1    2    0    0  0.74204536578E+02  0.53458840795E+02 -0.69180424742E+02  0.16970298760E+03  0.12509601083E+03 0.  0.
         23    2    1    2    0    0 -0.74204536578E+02 -0.53458840795E+02  0.52394186627E+03  0.53963500606E+03  0.91250751378E+02 0.  0.
          5    1    3    3  502    0  0.68214949645E+02 -0.56141492016E+00 -0.88545001995E+02  0.11185385250E+03  0.41800000000E+01 0.  1.
         -5    1    3    3    0  502  0.59895869331E+01  0.54020255715E+02  0.19364577253E+02  0.57849135096E+02  0.41800000000E+01 0.  1.
        -11    1    4    4    0    0 -0.33766170915E+02 -0.71997243054E+02  0.40300740163E+03  0.41077819207E+03  0.00000000000E+00 0. -1.
         11    1    4    4    0    0 -0.40438365663E+02  0.18538402259E+02  0.12093446464E+03  0.12885681400E+03  0.00000000000E+00 0.  1.
</event>
<event>
 8    1  0.6689467E-009  0.1306045E+03  0.7561462E-02  0.1226562E+00
         -1   -1    0    0    0  501 -0.00000000000E+00  0.00000000000E+00  0.23883360614E+03  0.23883360614E+03  0.00000000000E+00 0.  1.
          1   -1    0    0  501    0  0.00000000000E+00 -0.00000000000E+00 -0.10586226007E+03  0.10586226007E+03  0.00000000000E+00 0. -1.
         25    2    1    2    0    0  0.64426761350E+02  0.38924914742E+02  0.16820315995E+03  0.22272278732E+03  0.12508869017E+03 0.  0.
         23    2    1    2    0    0 -0.64426761350E+02 -0.38924914742E+02 -0.35231813878E+02  0.12197307889E+03  0.89275946924E+02 0.  0.
          5    1    3    3  502    0  0.97265571397E+02  0.35166474948E+01  0.11613510296E+03  0.15158427599E+03  0.41800000000E+01 0.  1.
         -5    1    3    3    0  502 -0.32838810047E+02  0.35408267247E+02  0.52068056990E+02  0.71138511324E+02  0.41800000000E+01 0.  1.
        -11    1    4    4    0    0  0.19812149192E+02  0.48304579084E+01  0.87958355275E+00  0.20411473402E+02  0.00000000000E+00 0. -1.
         11    1    4    4    0    0 -0.84238910542E+02 -0.43755372650E+02 -0.36111397431E+02  0.10156160549E+03  0.00000000000E+00 0.  1.
</event>
<event>
 8    1  0.6689467E-009  0.1590408E+03  0.7561462E-02  0.1189784E+00
         -4   -1    0    0    0  501 -0.00000000000E+00  0.00000000000E+00  0.10116240650E+03  0.10116240650E+03  0.00000000000E+00 0.  1.
          4   -1    0    0  501    0  0.00000000000E+00 -0.00000000000E+00 -0.28674013156E+03  0.28674013156E+03  0.00000000000E+00 0. -1.
         25    2    1    2    0    0 -0.91693811593E+02 -0.93811724224E+02 -0.10121602285E+03  0.20760710311E+03  0.12509049242E+03 0.  0.
         23    2    1    2    0    0  0.91693811593E+02  0.93811724224E+02 -0.84361702209E+02  0.18029543495E+03  0.90449722933E+02 0.  0.
          5    1    3    3  502    0 -0.11902444050E+03 -0.93428988304E+02 -0.96613207105E+02  0.17957554811E+03  0.41800000000E+01 0. -1.
         -5    1    3    3    0  502  0.27330628902E+02 -0.38273591975E+00 -0.46028157434E+01  0.28031555000E+02  0.41800000000E+01 0. -1.
        -11    1    4    4    0    0 -0.71358848686E+00  0.22045414224E+02 -0.55592176800E+02  0.59808023026E+02  0.00000000000E+00 0. -1.
         11    1    4    4    0    0  0.92407400080E+02  0.71766310000E+02 -0.28769525409E+02  0.12048741193E+03  0.00000000000E+00 0.  1.
</event>
<event>
 8    1  0.6689467E-009  0.1207325E+03  0.7561462E-02  0.1241894E+00
         -4   -1    0    0    0  501 -0.00000000000E+00  0.00000000000E+00  0.98243415528E+02  0.98243415528E+02  0.00000000000E+00 0. -1.
          4   -1    0    0  501    0  0.00000000000E+00 -0.00000000000E+00 -0.19012067435E+03  0.19012067435E+03  0.00000000000E+00 0.  1.
         25    2    1    2    0    0 -0.63534677715E+02 -0.49506054760E+02 -0.32171691564E+02  0.15221504374E+03  0.12508755762E+03 0.  0.
         23    2    1    2    0    0  0.63534677715E+02  0.49506054760E+02 -0.59705567260E+02  0.13614904614E+03  0.92110277780E+02 0.  0.
          5    1    3    3  502    0 -0.60528740609E+02  0.20769486202E+02  0.16935037111E+02  0.66327730843E+02  0.41800000000E+01 0.  1.
         -5    1    3    3    0  502 -0.30059371052E+01 -0.70275540962E+02 -0.49106728675E+02  0.85887312896E+02  0.41800000000E+01 0.  1.
        -11    1    4    4    0    0 -0.15380155767E+02  0.44988495417E+01  0.12320880659E+02  0.20213681971E+02  0.00000000000E+00 0. -1.
         11    1    4    4    0    0  0.78914833482E+02  0.45007205218E+02 -0.72026447919E+02  0.11593536417E+03  0.00000000000E+00 0.  1.
</event>
<event>
 8    1  0.6689467E-009  0.3554278E+03  0.7561462E-02  0.1060409E+00
         -1   -1    0    0    0  501 -0.00000000000E+00  0.00000000000E+00  0.14861132160E+03  0.14861132160E+03  0.00000000000E+00 0.  1.
          1   -1    0    0  501    0  0.00000000000E+00 -0.00000000000E+00 -0.11432342337E+04  0.11432342337E+04  0.00000000000E+00 0. -1.
         25    2    1    2    0    0 -0.14430511795E+03  0.31243907072E+03 -0.81187776212E+03  0.89063742746E+03  0.12508951424E+03 0.  0.
         23    2    1    2    0    0  0.14430511795E+03 -0.31243907072E+03 -0.18274514996E+03  0.40120812782E+03  0.95551201017E+02 0.  0.
          5    1    3    3  502    0  0.14143539273E+02  0.10016896145E+03 -0.22805797689E+03  0.24952309265E+03  0.41800000000E+01 0. -1.
         -5    1    3    3    0  502 -0.15844865723E+03  0.21227010927E+03 -0.58381978523E+03  0.64111433481E+03  0.41800000000E+01 0. -1.
        -11    1    4    4    0    0  0.60478484171E+02 -0.15378296098E+03 -0.14040208895E+03  0.21684001641E+03  0.00000000000E+00 0.  1.
         11    1    4    4    0    0  0.83826633783E+02 -0.15865610974E+03 -0.42343061006E+02  0.18436811141E+03  0.00000000000E+00 0. -1.
</event>
<event>
 8    1  0.6689467E-009  0.8290156E+02  0.7561462E-02  0.1321013E+00
         -1   -1    0    0    0  501 -0.00000000000E+00  0.00000000000E+00  0.81895042258E+03  0.81895042258E+03  0.00000000000E+00 0.  1.
          1   -1    0    0  501    0  0.00000000000E+00 -0.00000000000E+00 -0.17980961324E+02  0.17980961324E+02  0.00000000000E+00 0. -1.
         25    2    1    2    0    0  0.16901091245E+02  0.41925650164E+02  0.55299156151E+03  0.56876234849E+03  0.12509010725E+03 0.  0.
         23    2    1    2    0    0 -0.16901091245E+02 -0.41925650164E+02  0.24797789974E+03  0.26816903541E+03  0.91532430127E+02 0.  0.
          5    1    3    3  502    0  0.37773080552E+02  0.44091788967E+02  0.54122053527E+03  0.54434183348E+03  0.41800000000E+01 0.  1.
         -5    1    3    3    0  502 -0.20871989307E+02 -0.21661388034E+01  0.11771026236E+02  0.24420515015E+02  0.41800000000E+01 0.  1.
        -11    1    4    4    0    0 -0.41034741343E+02 -0.46086389246E+02  0.22905200916E+03  0.23721852409E+03  0.00000000000E+00 0.  1.
         11    1    4    4    0    0  0.24133650098E+02  0.41607390829E+01  0.18925890587E+02  0.30950511325E+02  0.00000000000E+00 0. -1.
</event>
<event>
 8    1  0.6689467E-009  0.9530894E+02  0.7561462E-02  0.1290482E+00
          1   -1    0    0  501    0  0.00000000000E+00  0.00000000000E+00  0.86897841931E+03  0.86897841931E+03  0.00000000000E+00 0. -1.
         -1   -1    0    0    0  501 -0.00000000000E+00 -0.00000000000E+00 -0.15958488191E+02  0.15958488191E+02  0.00000000000E+00 0.  1.
         25    2    1    2    0    0  0.84946911677E+01  0.78700756675E+01  0.65517990722E+03  0.66711532048E+03  0.12509213455E+03 0.  0.
         23    2    1    2    0    0 -0.84946911677E+01 -0.78700756675E+01  0.19784002391E+03  0.21782158703E+03  0.90396188229E+02 0.  0.
          5    1    3    3  502    0  0.30707867186E+02 -0.37797700363E+02  0.52573567241E+03  0.52800294403E+03  0.41800000000E+01 0. -1.
         -5    1    3    3    0  502 -0.22213176019E+02  0.45667776030E+02  0.12944423481E+03  0.13911237645E+03  0.41800000000E+01 0. -1.
        -11    1    4    4    0    0 -0.14563043629E+02 -0.48019174608E+02  0.11876647771E+03  0.12893176334E+03  0.00000000000E+00 0.  1.
         11    1    4    4    0    0  0.60683524617E+01  0.40149098940E+02  0.79073546194E+02  0.88889823686E+02  0.00000000000E+00 0. -1.
</event>
<event>
 8    1  0.6689467E-009  0.5924075E+02  0.7561462E-02  0.1401046E+00
          2   -1    0    0  501    0  0.00000000000E+00  0.00000000000E+00  0.28427834249E+03  0.28427834249E+03  0.00000000000E+00 0.  1.
         -2   -1    0    0    0  501 -0.00000000000E+00 -0.00000000000E+00 -0.48986171032E+02  0.48986171032E+02  0.00000000000E+00 0. -1.
         25    2    1    2    0    0 -0.19634198885E+01 -0.45894328341E+02  0.13032941459E+03  0.18640366598E+03  0.12510166262E+03 0.  0.
         23    2    1    2    0    0  0.19634198885E+01  0.45894328341E+02  0.10496275687E+03  0.14686084754E+03  0.91873738468E+02 0.  0.
          5    1    3    3  502    0  0.19006872883E+02 -0.42182400099E+01 -0.20433490327E+02  0.28531643705E+02  0.41800000000E+01 0. -1.
         -5    1    3    3    0  502 -0.20970292771E+02 -0.41676088331E+02  0.15076290492E+03  0.15787202228E+03  0.41800000000E+01 0. -1.
        -11    1    4    4    0    0  0.12755986853E+02  0.28975159535E+02  0.11849829170E+03  0.12265447487E+03  0.00000000000E+00 0.  1.
         11    1    4    4    0    0 -0.10792566965E+02  0.16919168807E+02 -0.13535534830E+02  0.24206372672E+02  0.00000000000E+00 0. -1.
</event>
<event>
 8    1  0.6689467E-009  0.9144022E+02  0.7561462E-02  0.1299401E+00
          1   -1    0    0  501    0  0.00000000000E+00  0.00000000000E+00  0.25933315335E+02  0.25933315335E+02  0.00000000000E+00 0. -1.
         -1   -1    0    0    0  501 -0.00000000000E+00 -0.00000000000E+00 -0.69574176680E+03  0.69574176680E+03  0.00000000000E+00 0.  1.
         25    2    1    2    0    0  0.33873659901E+02  0.28054769926E+02 -0.54655263331E+03  0.56240740842E+03  0.12509123518E+03 0.  0.
         23    2    1    2    0    0 -0.33873659901E+02 -0.28054769926E+02 -0.12325581816E+03  0.15926767371E+03  0.90772794551E+02 0.  0.
          5    1    3    3  502    0  0.30726848012E+02 -0.34419685157E+02 -0.86707233286E+02  0.98308039443E+02  0.41800000000E+01 0.  1.
         -5    1    3    3    0  502  0.31468118893E+01  0.62474455083E+02 -0.45984540002E+03  0.46409936897E+03  0.41800000000E+01 0.  1.
        -11    1    4    4    0    0 -0.40574962712E+02  0.43139839644E+01 -0.11020186149E+02  0.42265619119E+02  0.00000000000E+00 0. -1.
         11    1    4    4    0    0  0.67013028107E+01 -0.32368753891E+02 -0.11223563201E+03  0.11700205460E+03  0.00000000000E+00 0.  1.
</event>
<event>
 8    1  0.6689467E-009  0.1115378E+03  0.7561462E-02  0.1257748E+00
         -2   -1    0    0    0  501 -0.00000000000E+00  0.00000000000E+00  0.18989712191E+02  0.18989712191E+02  0.00000000000E+00 0.  1.
          2   -1    0    0  501    0  0.00000000000E+00 -0.00000000000E+00 -0.67550476489E+03  0.67550476489E+03  0.00000000000E+00 0. -1.
         25    2    1    2    0    0  0.20427442669E+02  0.83787410015E+01 -0.32810273627E+03  0.35183888698E+03  0.12510680689E+03 0.  0.
         23    2    1    2    0    0 -0.20427442669E+02 -0.83787410015E+01 -0.32841231643E+03  0.34265559010E+03  0.95240328269E+02 0.  0.
          5    1    3    3  502    0  0.73061832606E+02  0.86536598175E+01 -0.17480934750E+03  0.18970687280E+03  0.41800000000E+01 0.  1.
         -5    1    3    3    0  502 -0.52634389936E+02 -0.27491881604E+00 -0.15329338877E+03  0.16213201419E+03  0.41800000000E+01 0.  1.
        -11    1    4    4    0    0  0.35122049532E+01 -0.49165186825E+02 -0.14096000287E+03  0.14932941300E+03  0.00000000000E+00 0.  1.
         11    1    4    4    0    0 -0.23939647623E+02  0.40786445823E+02 -0.18745231356E+03  0.19332617710E+03  0.00000000000E+00 0. -1.
</event>
<event>
 8    1  0.6689467E-009  0.1098402E+03  0.7561462E-02  0.1260866E+00
          1   -1    0    0  501    0  0.00000000000E+00  0.00000000000E+00  0.11092385384E+03  0.11092385384E+03  0.00000000000E+00 0. -1.
         -1   -1    0    0    0  501 -0.00000000000E+00 -0.00000000000E+00 -0.14632647196E+03  0.14632647196E+03  0.00000000000E+00 0.  1.
         25    2    1    2    0    0  0.11564489852E+02 -0.58804526519E+02  0.10750484088E+02  0.13912706794E+03  0.12509619643E+03 0.  0.
         23    2    1    2    0    0 -0.11564489852E+02  0.58804526519E+02 -0.46153102210E+02  0.11812325786E+03  0.90726431861E+02 0.  0.
          5    1    3    3  502    0  0.51769444312E+02  0.11141487707E+02 -0.13447088325E+02  0.54795115632E+02  0.41800000000E+01 0. -1.
         -5    1    3    3    0  502 -0.40204954460E+02 -0.69946014227E+02  0.24197572414E+02  0.84331952308E+02  0.41800000000E+01 0. -1.
        -11    1    4    4    0    0 -0.12577855647E+02  0.71722692055E+02 -0.27955938800E+01  0.72870860797E+02  0.00000000000E+00 0. -1.
         11    1    4    4    0    0  0.10133657949E+01 -0.12918165535E+02 -0.43357508329E+02  0.45252397059E+02  0.00000000000E+00 0.  1.
</event>
<event>
 8    1  0.6689467E-009  0.7551300E+02  0.7561462E-02  0.1342290E+00
         -2   -1    0    0    0  501 -0.00000000000E+00  0.00000000000E+00  0.19047850776E+02  0.19047850776E+02  0.00000000000E+00 0.  1.
          2   -1    0    0  501    0  0.00000000000E+00 -0.00000000000E+00 -0.64580188447E+03  0.64580188447E+03  0.00000000000E+00 0. -1.
         25    2    1    2    0    0 -0.24971545132E+02  0.24204788677E+01 -0.36789407353E+03  0.38938943466E+03  0.12509454702E+03 0.  0.
         23    2    1    2    0    0  0.24971545132E+02 -0.24204788677E+01 -0.25885996016E+03  0.27546030059E+03  0.90776987411E+02 0.  0.
          5    1    3    3  502    0  0.12593754169E+02  0.19113875546E+02 -0.45569019336E+01  0.23710348746E+02  0.41800000000E+01 0. -1.
         -5    1    3    3    0  502 -0.37565299300E+02 -0.16693396678E+02 -0.36333717160E+03  0.36567908591E+03  0.41800000000E+01 0. -1.
        -11    1    4    4    0    0 -0.69456873360E+01  0.35900572837E+02 -0.58510172351E+02  0.68996622897E+02  0.00000000000E+00 0.  1.
         11    1    4    4    0    0  0.31917232468E+02 -0.38321051704E+02 -0.20034978781E+03  0.20646367769E+03  0.00000000000E+00 0. -1.
</event>
<event>
 8    1  0.6689467E-009  0.8345984E+02  0.7561462E-02  0.1319510E+00
          2   -1    0    0  501    0  0.00000000000E+00  0.00000000000E+00  0.55157619643E+02  0.55157619643E+02  0.00000000000E+00 0. -1.
         -2   -1    0    0    0  501 -0.00000000000E+00 -0.00000000000E+00 -0.29057385181E+03  0.29057385181E+03  0.00000000000E+00 0.  1.
         25    2    1    2    0    0  0.12985604828E+02  0.52037292934E+02 -0.18054604856E+03  0.22610482162E+03  0.12509999569E+03 0.  0.
         23    2    1    2    0    0 -0.12985604828E+02 -0.52037292934E+02 -0.54870183608E+02  0.11962664983E+03  0.91778497005E+02 0.  0.
          5    1    3    3  502    0 -0.25101911461E+02  0.32033682367E+02 -0.47006072949E+00  0.40914008874E+02  0.41800000000E+01 0.  1.
         -5    1    3    3    0  502  0.38087516289E+02  0.20003610567E+02 -0.18007598783E+03  0.18519081275E+03  0.41800000000E+01 0.  1.
        -11    1    4    4    0    0  0.23144301472E+02 -0.53575937938E+01  0.15049350115E+02  0.28121974340E+02  0.00000000000E+00 0. -1.
         11    1    4    4    0    0 -0.36129906300E+02 -0.46679699140E+02 -0.69919533723E+02  0.91504675493E+02  0.00000000000E+00 0.  1.
</event>
<event>
 8    1  0.6689467E-009  0.1071021E+03  0.7561462E-02  0.1266032E+00
          2   -1    0    0  501    0  0.00000000000E+00  0.00000000000E+00  0.14585954614E+03  0.14585954614E+03  0.00000000000E+00 0. -1.
         -2   -1    0    0    0  501 -0.00000000000E+00 -0.00000000000E+00 -0.10097075384E+03  0.10097075384E+03  0.00000000000E+00 0.  1.
         25    2    1    2    0    0  0.50365972257E+01  0.47614477078E+02  0.48287175612E+02  0.14237839656E+03  0.12508977072E+03 0.  0.
         23    2    1    2    0    0 -0.50365972257E+01 -0.47614477078E+02 -0.33983833097E+01  0.10445190343E+03  0.92769312713E+02 0.  0.
          5    1    3    3  502    0 -0.37335746559E+01  0.87935430621E+02  0.15405577957E+02  0.89450454277E+02  0.41800000000E+01 0. -1.
         -5    1    3    3    0  502  0.87701718816E+01 -0.40320953543E+02  0.32881597655E+02  0.52927942278E+02  0.41800000000E+01 0. -1.
        -11    1    4    4    0    0 -0.37154874220E+02 -0.31349616729E+02  0.28499795894E+02  0.56351765841E+02  0.00000000000E+00 0. -1.
         11    1    4    4    0    0  0.32118276995E+02 -0.16264860349E+02 -0.31898179203E+02  0.48100137586E+02  0.00000000000E+00 0.  1.
</event>
<event>
 8    1  0.6689467E-009  0.1374514E+03  0.7561462E-02  0.1216800E+00
          1   -1    0    0  501    0  0.00000000000E+00  0.00000000000E+00  0.64647690689E+02  0.64647690689E+02  0.00000000000E+00 0. -1.
         -1   -1    0    0    0  501 -0.00000000000E+00 -0.00000000000E+00 -0.37679075533E+03  0.37679075533E+03  0.00000000000E+00 0.  1.
         25    2    1    2    0    0  0.75708756493E+02  0.44490268646E+02 -0.26658211263E+03  0.30728672170E+03  0.12509159341E+03 0.  0.
         23    2    1    2    0    0 -0.75708756493E+02 -0.44490268646E+02 -0.45560952011E+02  0.13415172432E+03  0.90607311942E+02 0.  0.
          5    1    3    3  502    0  0.10442770676E+03  0.55012751605E+02 -0.23562492896E+03  0.26356807152E+03  0.41800000000E+01 0.  1.
         -5    1    3    3    0  502 -0.28718950267E+02 -0.10522482959E+02 -0.30957183668E+02  0.43718650170E+02  0.41800000000E+01 0.  1.
        -11    1    4    4    0    0 -0.63855892806E+02 -0.71840912360E+02 -0.31128090123E+02  0.10103291409E+03  0.00000000000E+00 0.  1.
         11    1    4    4    0    0 -0.11852863687E+02  0.27350643713E+02 -0.14432861888E+02  0.33118810235E+02  0.00000000000E+00 0. -1.
</event>
<event>
 8    1  0.6689467E-009  0.1569206E+03  0.7561462E-02  0.1192218E+00
         -2   -1    0    0    0  501 -0.00000000000E+00  0.00000000000E+00  0.34993376413E+02  0.34993376413E+02  0.00000000000E+00 0. -1.
          2   -1    0    0  501    0  0.00000000000E+00 -0.00000000000E+00 -0.10662519058E+04  0.10662519058E+04  0.00000000000E+00 0.  1.
         25    2    1    2    0    0 -0.15641658448E+03 -0.51030939328E+01 -0.61533693868E+03  0.64713425322E+03  0.12510397323E+03 0.  0.
         23    2    1    2    0    0  0.15641658448E+03  0.51030939328E+01 -0.41592159068E+03  0.45411102896E+03  0.93455163392E+02 0.  0.
          5    1    3    3  502    0 -0.11455514339E+03  0.74987372782E-01 -0.58207338771E+03  0.59325356095E+03  0.41800000000E+01 0. -1.
         -5    1    3    3    0  502 -0.41861441095E+02 -0.51780813056E+01 -0.33263550975E+02  0.53880692274E+02  0.41800000000E+01 0. -1.
        -11    1    4    4    0    0  0.35419951956E+02  0.53767264062E+01 -0.22036848221E+02  0.42060728274E+02  0.00000000000E+00 0. -1.
         11    1    4    4    0    0  0.12099663253E+03 -0.27363247342E+00 -0.39388474246E+03  0.41205030069E+03  0.00000000000E+00 0.  1.
</event>
<event>
 8    1  0.6689467E-009  0.1568487E+03  0.7561462E-02  0.1192301E+00
          1   -1    0    0  501    0  0.00000000000E+00  0.00000000000E+00  0.10159427307E+04  0.10159427307E+04  0.00000000000E+00 0. -1.
         -1   -1    0    0    0  501 -0.00000000000E+00 -0.00000000000E+00 -0.29330925539E+02  0.29330925539E+02  0.00000000000E+00 0.  1.
         25    2    1    2    0    0  0.55377929067E+02  0.10643790852E+03  0.34553383355E+03  0.38658512314E+03  0.12513466312E+03 0.  0.
         23    2    1    2    0    0 -0.55377929067E+02 -0.10643790852E+03  0.64107797159E+03  0.65868853307E+03  0.92162218614E+02 0.  0.
          5    1    3    3  502    0  0.31236427687E+01 -0.28258786833E+02  0.52845038885E+02  0.60153027456E+02  0.41800000000E+01 0. -1.
         -5    1    3    3    0  502  0.52254286298E+02  0.13469669535E+03  0.29268879466E+03  0.32643209569E+03  0.41800000000E+01 0. -1.
        -11    1    4    4    0    0  0.16338179156E+02 -0.68881834076E+01  0.25854243621E+02  0.31350041180E+02  0.00000000000E+00 0.  1.
         11    1    4    4    0    0 -0.71716108222E+02 -0.99549725114E+02  0.61522372797E+03  0.62733849189E+03  0.00000000000E+00 0. -1.
</event>
<event>
 8    1  0.6689467E-009  0.1260309E+03  0.7561462E-02  0.1233467E+00
         -2   -1    0    0    0  501 -0.00000000000E+00  0.00000000000E+00  0.97445286370E+02  0.97445286370E+02  0.00000000000E+00 0.  1.
          2   -1    0    0  501    0  0.00000000000E+00 -0.00000000000E+00 -0.25618362984E+03  0.25618362984E+03  0.00000000000E+00 0. -1.
         25    2    1    2    0    0  0.74187779107E+02 -0.38641289542E+02  0.31046818636E+01  0.15051337181E+03  0.12509060804E+03 0.  0.
         23    2    1    2    0    0 -0.74187779107E+02  0.38641289542E+02 -0.16184302534E+03  0.20311554440E+03  0.89809708273E+02 0.  0.
          5    1    3    3  502    0  0.23701781636E+02 -0.73173526853E+02  0.31155612344E+02  0.83092021671E+02  0.41800000000E+01 0. -1.
         -5    1    3    3    0  502  0.50485997471E+02  0.34532237311E+02 -0.28050930480E+02  0.67421350143E+02  0.41800000000E+01 0. -1.
        -11    1    4    4    0    0 -0.42045750264E+02 -0.20221879490E+02 -0.10610837642E+03  0.11591271315E+03  0.00000000000E+00 0.  1.
         11    1    4    4    0    0 -0.32142028844E+02  0.58863169032E+02 -0.55734648920E+02  0.87202831244E+02  0.00000000000E+00 0. -1.
</event>
<event>
 8    1  0.6689467E-009  0.9437737E+02  0.7561462E-02  0.1292585E+00
          3   -1    0    0  501    0  0.00000000000E+00  0.00000000000E+00  0.41215083875E+03  0.41215083875E+03  0.00000000000E+00 0. -1.
         -3   -1    0    0    0  501 -0.00000000000E+00 -0.00000000000E+00 -0.29427059087E+02  0.29427059087E+02  0.00000000000E+00 0.  1.
         25    2    1    2    0    0 -0.96464365457E+01 -0.46332982851E+00  0.18230909460E+03  0.22130853775E+03  0.12509034532E+03 0.  0.
         23    2    1    2    0    0  0.96464365457E+01  0.46332982851E+00  0.20041468506E+03  0.22026936009E+03  0.90880562250E+02 0.  0.
          5    1    3    3  502    0  0.82210899912E+00 -0.48164353036E+02  0.16056445365E+03  0.16768690153E+03  0.41800000000E+01 0. -1.
         -5    1    3    3    0  502 -0.10468545545E+02  0.47701023207E+02  0.21744640950E+02  0.53621636220E+02  0.41800000000E+01 0. -1.
        -11    1    4    4    0    0  0.50447008259E+02  0.27594647894E+01  0.11190683184E+03  0.12278295607E+03  0.00000000000E+00 0.  1.
         11    1    4    4    0    0 -0.40800571714E+02 -0.22961349609E+01  0.88507853220E+02  0.97486404024E+02  0.00000000000E+00 0. -1.
</event>
<event>
 8    1  0.6689467E-009  0.1115352E+03  0.7561462E-02  0.1257753E+00
         -2   -1    0    0    0  501 -0.00000000000E+00  0.00000000000E+00  0.18707697427E+03  0.18707697427E+03  0.00000000000E+00 0.  1.
          2   -1    0    0  501    0  0.00000000000E+00 -0.00000000000E+00 -0.13722374602E+03  0.13722374602E+03  0.00000000000E+00 0. -1.
         25    2    1    2    0    0  0.58092604301E+02 -0.13116769133E+02 -0.75996943230E+02  0.15799022056E+03  0.12505428464E+03 0.  0.
         23    2    1    2    0    0 -0.58092604301E+02  0.13116769133E+02  0.12585017148E+03  0.16631049973E+03  0.90962169901E+02 0.  0.
          5    1    3    3  502    0  0.60173688915E+02  0.43809872037E+02 -0.66873256480E+02  0.10014830282E+03  0.41800000000E+01 0. -1.
         -5    1    3    3    0  502 -0.20810846140E+01 -0.56926641170E+02 -0.91236867498E+01  0.57841917742E+02  0.41800000000E+01 0. -1.
        -11    1    4    4    0    0  0.14334829008E+02  0.12428234559E+02  0.76125545740E+02  0.78454107930E+02  0.00000000000E+00 0.  1.
         11    1    4    4    0    0 -0.72427433309E+02  0.68853457424E+00  0.49724625737E+02  0.87856391801E+02  0.00000000000E+00 0. -1.
</event>
<event>
 8    1  0.6689467E-009  0.1674077E+03  0.7561462E-02  0.1180578E+00
          1   -1    0    0  501    0  0.00000000000E+00  0.00000000000E+00  0.16771532551E+03  0.16771532551E+03  0.00000000000E+00 0. -1.
         -1   -1    0    0    0  501 -0.00000000000E+00 -0.00000000000E+00 -0.25240154043E+03  0.25240154043E+03  0.00000000000E+00 0.  1.
         25    2    1    2    0    0 -0.13985270403E+03 -0.17778671717E+02  0.60301477249E+02  0.19788516341E+03  0.12508960686E+03 0.  0.
         23    2    1    2    0    0  0.13985270403E+03  0.17778671717E+02 -0.14498769216E+03  0.22223170253E+03  0.92144662009E+02 0.  0.
          5    1    3    3  502    0 -0.13155772117E+03  0.33785675572E+02  0.47457596620E+02  0.14393957673E+03  0.41800000000E+01 0. -1.
         -5    1    3    3    0  502 -0.82949828648E+01 -0.51564347289E+02  0.12843880629E+02  0.53945586674E+02  0.41800000000E+01 0. -1.
        -11    1    4    4    0    0  0.74935747292E+02  0.29555238094E+02 -0.23377326301E+02  0.83877158428E+02  0.00000000000E+00 0. -1.
         11    1    4    4    0    0  0.64916956741E+02 -0.11776566377E+02 -0.12161036586E+03  0.13835454410E+03  0.00000000000E+00 0.  1.
</event>
<event>
 8    1  0.6689467E-009  0.9822750E+02  0.7561462E-02  0.1284068E+00
         -2   -1    0    0    0  501 -0.00000000000E+00  0.00000000000E+00  0.29797245867E+02  0.29797245867E+02  0.00000000000E+00 0.  1.
          2   -1    0    0  501    0  0.00000000000E+00 -0.00000000000E+00 -0.51868502119E+03  0.51868502119E+03  0.00000000000E+00 0. -1.
         25    2    1    2    0    0  0.52079296666E+02 -0.42093936474E+01 -0.34902029122E+03  0.37443576924E+03  0.12512797236E+03 0.  0.
         23    2    1    2    0    0 -0.52079296666E+02  0.42093936474E+01 -0.13986748410E+03  0.17404649781E+03  0.89438795590E+02 0.  0.
          5    1    3    3  502    0  0.44281629613E+02  0.57618316595E+02 -0.17432370689E+03  0.18890992645E+03  0.41800000000E+01 0.  1.
         -5    1    3    3    0  502  0.77976670535E+01 -0.61827710243E+02 -0.17469658433E+03  0.18552584278E+03  0.41800000000E+01 0.  1.
        -11    1    4    4    0    0 -0.16306338374E+02 -0.13613203555E+02  0.65844829121E+01  0.22238961249E+02  0.00000000000E+00 0.  1.
         11    1    4    4    0    0 -0.35772958292E+02  0.17822597203E+02 -0.14645196701E+03  0.15180753657E+03  0.00000000000E+00 0. -1.
</event>
<event>
 8    1  0.6689467E-009  0.9376115E+02  0.7561462E-02  0.1293991E+00
         -2   -1    0    0    0  501 -0.00000000000E+00  0.00000000000E+00  0.36384005989E+02  0.36384005989E+02  0.00000000000E+00 0.  1.
          2   -1    0    0  501    0  0.00000000000E+00 -0.00000000000E+00 -0.41376565254E+03  0.41376565254E+03  0.00000000000E+00 0. -1.
         25    2    1    2    0    0 -0.13891975000E+02  0.27993868464E+02 -0.29814078413E+03  0.32482514788E+03  0.12508719317E+03 0.  0.
         23    2    1    2    0    0  0.13891975000E+02 -0.27993868464E+02 -0.79240862420E+02  0.12532451065E+03  0.91926465452E+02 0.  0.
          5    1    3    3  502    0 -0.55305178474E+02 -0.25449371576E+02 -0.14961554040E+03  0.16158160665E+03  0.41800000000E+01 0.  1.
         -5    1    3    3    0  502  0.41413203475E+02  0.53443240039E+02 -0.14852524373E+03  0.16324354123E+03  0.41800000000E+01 0.  1.
        -11    1    4    4    0    0 -0.16010409336E+02 -0.23625704477E+02 -0.89082563007E+02  0.93542557967E+02  0.00000000000E+00 0. -1.
         11    1    4    4    0    0  0.29902384336E+02 -0.43681639864E+01  0.98417005871E+01  0.31781952678E+02  0.00000000000E+00 0.  1.
</event>
<event>
 8    1  0.6689467E-009  0.1018240E+03  0.7561462E-02  0.1276506E+00
          2   -1    0    0  501    0  0.00000000000E+00  0.00000000000E+00  0.17124990474E+03  0.17124990474E+03  0.00000000000E+00 0. -1.
         -2   -1    0    0    0  501 -0.00000000000E+00 -0.00000000000E+00 -0.12011318876E+03  0.12011318876E+03  0.00000000000E+00 0.  1.
         25    2    1    2    0    0 -0.63384060542E+02  0.19854994501E+02 -0.38071713180E+02  0.14665908318E+03  0.12509065272E+03 0.  0.
         23    2    1    2    0    0  0.63384060542E+02 -0.19854994501E+02  0.89208429165E+02  0.14470401032E+03  0.92570766605E+02 0.  0.
          5    1    3    3  502    0 -0.25325832516E+02  0.53540475007E+02  0.25959040782E+02  0.64802194831E+02  0.41800000000E+01 0.  1.
         -5    1    3    3    0  502 -0.38058228027E+02 -0.33685480506E+02 -0.64030753962E+02  0.81856888351E+02  0.41800000000E+01 0.  1.
        -11    1    4    4    0    0 -0.79629466699E+01 -0.20429884197E+02 -0.86714574924E+01  0.23579288857E+02  0.00000000000E+00 0.  1.
         11    1    4    4    0    0  0.71347007212E+02  0.57488969599E+00  0.97879886657E+02  0.12112472146E+03  0.00000000000E+00 0. -1.
</event>
<event>
 8    1  0.6689467E-009  0.1440710E+03  0.7561462E-02  0.1207954E+00
         -1   -1    0    0    0  501 -0.00000000000E+00  0.00000000000E+00  0.27273206118E+03  0.27273206118E+03  0.00000000000E+00 0.  1.
          1   -1    0    0  501    0  0.00000000000E+00 -0.00000000000E+00 -0.11988575304E+03  0.11988575304E+03  0.00000000000E+00 0. -1.
         25    2    1    2    0    0 -0.10172559519E+03  0.29619140501E+02 -0.26158543833E+02  0.16599626493E+03  0.12508037558E+03 0.  0.
         23    2    1    2    0    0  0.10172559519E+03 -0.29619140501E+02  0.17900485198E+03  0.22662154929E+03  0.89939976488E+02 0.  0.
          5    1    3    3  502    0  0.22879622531E+02 -0.16135076077E+01 -0.29282838854E+02  0.37430436616E+02  0.41800000000E+01 0. -1.
         -5    1    3    3    0  502 -0.12460521772E+03  0.31232648108E+02  0.31242950206E+01  0.12856582831E+03  0.41800000000E+01 0. -1.
        -11    1    4    4    0    0  0.87414982033E+02 -0.57729075966E+02  0.15455707347E+03  0.18671345494E+03  0.00000000000E+00 0. -1.
         11    1    4    4    0    0  0.14310613154E+02  0.28109935465E+02  0.24447778505E+02  0.39908094349E+02  0.00000000000E+00 0.  1.
</event>
<event>
 8    1  0.6689467E-009  0.4654129E+02  0.7561462E-02  0.1464943E+00
         -1   -1    0    0    0  501 -0.00000000000E+00  0.00000000000E+00  0.48678945726E+02  0.48678945726E+02  0.00000000000E+00 0.  1.
          1   -1    0    0  501    0  0.00000000000E+00 -0.00000000000E+00 -0.26652326035E+03  0.26652326035E+03  0.00000000000E+00 0. -1.
         25    2    1    2    0    0  0.88626146216E+01 -0.61158778959E+01 -0.15658868352E+03  0.20070589310E+03  0.12508752863E+03 0.  0.
         23    2    1    2    0    0 -0.88626146216E+01  0.61158778959E+01 -0.61255631105E+02  0.11449631297E+03  0.96131178305E+02 0.  0.
          5    1    3    3  502    0  0.37258951130E+01 -0.15431574640E+02 -0.17676037443E+03  0.17752103582E+03  0.41800000000E+01 0. -1.
         -5    1    3    3    0  502  0.51367195086E+01  0.93156967436E+01  0.20171690908E+02  0.23184857283E+02  0.41800000000E+01 0. -1.
        -11    1    4    4    0    0 -0.34967911764E+02 -0.75455949808E+01  0.10204949346E+02  0.37199890428E+02  0.00000000000E+00 0.  1.
         11    1    4    4    0    0  0.26105297142E+02  0.13661472877E+02 -0.71460580451E+02  0.77296422546E+02  0.00000000000E+00 0. -1.
</event>
<event>
 8    1  0.6689467E-009  0.8531656E+02  0.7561462E-02  0.1314607E+00
         -1   -1    0    0    0  501 -0.00000000000E+00  0.00000000000E+00  0.19546610550E+03  0.19546610550E+03  0.00000000000E+00 0.  1.
          1   -1    0    0  501    0  0.00000000000E+00 -0.00000000000E+00 -0.89097982508E+02  0.89097982508E+02  0.00000000000E+00 0. -1.
         25    2    1    2    0    0  0.38857796083E+01  0.34718844891E+02 -0.12371878102E+02  0.13046297690E+03  0.12508807897E+03 0.  0.
         23    2    1    2    0    0 -0.38857796083E+01 -0.34718844891E+02  0.11874000109E+03  0.15410111111E+03  0.91801236985E+02 0.  0.
          5    1    3    3  502    0  0.24446671443E+02 -0.26088811906E+02  0.35285676728E+02  0.50406519752E+02  0.41800000000E+01 0.  1.
         -5    1    3    3    0  502 -0.20560891835E+02  0.60807656797E+02 -0.47657554830E+02  0.80056457145E+02  0.41800000000E+01 0.  1.
        -11    1    4    4    0    0 -0.12515758471E+02 -0.50660372954E+02  0.12457048568E+03  0.13505896305E+03  0.00000000000E+00 0.  1.
         11    1    4    4    0    0  0.86299788625E+01  0.15941528063E+02 -0.58304845876E+01  0.19042148058E+02  0.00000000000E+00 0. -1.
</event>
<event>
 8    1  0.6689467E-009  0.6517008E+02  0.7561462E-02  0.1377333E+00
          1   -1    0    0  501    0  0.00000000000E+00  0.00000000000E+00  0.86405606712E+02  0.86405606712E+02  0.00000000000E+00 0. -1.
         -1   -1    0    0    0  501 -0.00000000000E+00 -0.00000000000E+00 -0.16599402586E+03  0.16599402586E+03  0.00000000000E+00 0.  1.
         25    2    1    2    0    0  0.46173899683E+02  0.19025485146E+02 -0.34974415407E+02  0.13915259083E+03  0.12508491397E+03 0.  0.
         23    2    1    2    0    0 -0.46173899683E+02 -0.19025485146E+02 -0.44614003741E+02  0.11324704175E+03  0.91326256014E+02 0.  0.
          5    1    3    3  502    0 -0.27577688044E+01 -0.87471094217E+00  0.43866179165E+02  0.44159760897E+02  0.41800000000E+01 0.  1.
         -5    1    3    3    0  502  0.48931668487E+02  0.19900196088E+02 -0.78840594572E+02  0.94992829928E+02  0.41800000000E+01 0.  1.
        -11    1    4    4    0    0 -0.69277008903E+01 -0.30581012848E+02 -0.61464662710E+02  0.69000696724E+02  0.00000000000E+00 0.  1.
         11    1    4    4    0    0 -0.39246198792E+02  0.11555527702E+02  0.16850658969E+02  0.44246345022E+02  0.00000000000E+00 0. -1.
</event>
<event>
 8    1  0.6689467E-009  0.1101820E+03  0.7561462E-02  0.1260233E+00
         -1   -1    0    0    0  501 -0.00000000000E+00  0.00000000000E+00  0.10958031142E+04  0.10958031142E+04  0.00000000000E+00 0.  1.
          1   -1    0    0  501    0  0.00000000000E+00 -0.00000000000E+00 -0.20343839572E+02  0.20343839572E+02  0.00000000000E+00 0. -1.
         25    2    1    2    0    0 -0.70028392084E+02  0.58009535843E+02  0.75740779288E+03  0.77303505692E+03  0.12509017773E+03 0.  0.
         23    2    1    2    0    0  0.70028392084E+02 -0.58009535843E+02  0.31805148176E+03  0.34311189686E+03  0.91104043672E+02 0.  0.
          5    1    3    3  502    0 -0.14857995872E+02  0.21966536067E+01  0.56474146752E+03  0.56495662034E+03  0.41800000000E+01 0.  1.
         -5    1    3    3    0  502 -0.55170396212E+02  0.55812882236E+02  0.19266632536E+03  0.20807843658E+03  0.41800000000E+01 0.  1.
        -11    1    4    4    0    0  0.41701669639E+02  0.17734878851E+02  0.83397355832E+02  0.94914035518E+02  0.00000000000E+00 0.  1.
         11    1    4    4    0    0  0.28326722445E+02 -0.75744414694E+02  0.23465412593E+03  0.24819786134E+03  0.00000000000E+00 0. -1.
</event>
<event>
 8    1  0.6689467E-009  0.1128577E+03  0.7561462E-02  0.1255368E+00
         -1   -1    0    0    0  501 -0.00000000000E+00  0.00000000000E+00  0.27179665901E+03  0.27179665901E+03  0.00000000000E+00 0.  1.
          1   -1    0    0  501    0  0.00000000000E+00 -0.00000000000E+00 -0.67961068195E+02  0.67961068195E+02  0.00000000000E+00 0. -1.
         25    2    1    2    0    0  0.55260818058E+02 -0.41451301871E+02  0.56337783169E+02  0.15360207325E+03  0.12509069772E+03 0.  0.
         23    2    1    2    0    0 -0.55260818058E+02  0.41451301871E+02  0.14749780764E+03  0.18615565395E+03  0.90146302188E+02 0.  0.
          5    1    3    3  502    0  0.23801807481E+02 -0.72451373100E+02  0.73535036036E+02  0.10602170263E+03  0.41800000000E+01 0. -1.
         -5    1    3    3    0  502  0.31459010576E+02  0.31000071229E+02 -0.17197252867E+02  0.47580370625E+02  0.41800000000E+01 0. -1.
        -11    1    4    4    0    0 -0.58903851355E+02  0.61172114762E+02  0.83528040082E+02  0.11911601407E+03  0.00000000000E+00 0. -1.
         11    1    4    4    0    0  0.36430332972E+01 -0.19720812891E+02  0.63969767559E+02  0.67039639873E+02  0.00000000000E+00 0.  1.
</event>
<event>
 8    1  0.6689467E-009  0.5087287E+02  0.7561462E-02  0.1440690E+00
          3   -1    0    0  501    0  0.00000000000E+00  0.00000000000E+00  0.11348795450E+03  0.11348795450E+03  0.00000000000E+00 0. -1.
         -3   -1    0    0    0  501 -0.00000000000E+00 -0.00000000000E+00 -0.10790275420E+03  0.10790275420E+03  0.00000000000E+00 0.  1.
         25    2    1    2    0    0 -0.18434423514E+02 -0.53658924552E+01  0.16613474047E+02  0.12763630732E+03  0.12508556534E+03 0.  0.
         23    2    1    2    0    0  0.18434423514E+02  0.53658924552E+01 -0.11028273746E+02  0.93754401384E+02  0.91102382981E+02 0.  0.
          5    1    3    3  502    0  0.31977867070E+01 -0.30407471900E+02  0.63205119648E+02  0.70336332979E+02  0.41800000000E+01 0. -1.
         -5    1    3    3    0  502 -0.21632210221E+02  0.25041579445E+02 -0.46591645601E+02  0.57299974345E+02  0.41800000000E+01 0. -1.
        -11    1    4    4    0    0  0.99864969818E+01  0.19016191962E+02 -0.48470293085E+02  0.53016176687E+02  0.00000000000E+00 0.  1.
         11    1    4    4    0    0  0.84479265318E+01 -0.13650299507E+02  0.37442019339E+02  0.40738224697E+02  0.00000000000E+00 0. -1.
</event>
<event>
 8    1  0.6689467E-009  0.3214851E+03  0.7561462E-02  0.1074968E+00
          1   -1    0    0  501    0  0.00000000000E+00  0.00000000000E+00  0.76022414491E+03  0.76022414491E+03  0.00000000000E+00 0. -1.
         -1   -1    0    0    0  501 -0.00000000000E+00 -0.00000000000E+00 -0.15472444444E+03  0.15472444444E+03  0.00000000000E+00 0.  1.
         25    2    1    2    0    0 -0.26599556808E+03  0.17153785342E+03  0.20908370749E+03  0.39942646040E+03  0.12508646264E+03 0.  0.
         23    2    1    2    0    0  0.26599556808E+03 -0.17153785342E+03  0.39641599297E+03  0.51552212895E+03  0.91861572798E+02 0.  0.
          5    1    3    3  502    0 -0.12325460938E+03  0.10934303019E+03  0.40135012924E+02  0.16963457385E+03  0.41800000000E+01 0.  1.
         -5    1    3    3    0  502 -0.14274095871E+03  0.62194823232E+02  0.16894869456E+03  0.22979188655E+03  0.41800000000E+01 0.  1.
        -11    1    4    4    0    0  0.10458632358E+03 -0.32959403596E+02  0.18838381301E+03  0.21797495812E+03  0.00000000000E+00 0. -1.
         11    1    4    4    0    0  0.16140924450E+03 -0.13857844982E+03  0.20803217997E+03  0.29754717083E+03  0.00000000000E+00 0.  1.
</event>
<event>
 8    1  0.6689467E-009  0.1094219E+03  0.7561462E-02  0.1261644E+00
          2   -1    0    0  501    0  0.00000000000E+00  0.00000000000E+00  0.17773429858E+03  0.17773429858E+03  0.00000000000E+00 0. -1.
         -2   -1    0    0    0  501 -0.00000000000E+00 -0.00000000000E+00 -0.10494476473E+03  0.10494476473E+03  0.00000000000E+00 0.  1.
         25    2    1    2    0    0  0.55145101239E+02 -0.58240049751E+02  0.18299223414E+02  0.14971876138E+03  0.12509180767E+03 0.  0.
         23    2    1    2    0    0 -0.55145101239E+02  0.58240049751E+02  0.54490310428E+02  0.13296030193E+03  0.90974514965E+02 0.  0.
          5    1    3    3  502    0  0.86864532330E+02 -0.55210446025E+02 -0.14234309402E+02  0.10398907775E+03  0.41800000000E+01 0. -1.
         -5    1    3    3    0  502 -0.31719431091E+02 -0.30296037252E+01  0.32533532816E+02  0.45729683631E+02  0.41800000000E+01 0. -1.
        -11    1    4    4    0    0 -0.26990463730E+01  0.16359579134E+02  0.63147677910E+02  0.65288206486E+02  0.00000000000E+00 0. -1.
         11    1    4    4    0    0 -0.52446054866E+02  0.41880470617E+02 -0.86573674813E+01  0.67672095444E+02  0.00000000000E+00 0.  1.
</event>
<event>
 8    1  0.6689467E-009  0.1063324E+03  0.7561462E-02  0.1267516E+00
         -2   -1    0    0    0  501 -0.00000000000E+00  0.00000000000E+00  0.51722267616E+02  0.51722267616E+02  0.00000000000E+00 0.  1.
          2   -1    0    0  501    0  0.00000000000E+00 -0.00000000000E+00 -0.35842914408E+03  0.35842914408E+03  0.00000000000E+00 0. -1.
         25    2    1    2    0    0 -0.61764074391E+01  0.63383803063E+02 -0.24857988016E+03  0.28547403842E+03  0.12509122786E+03 0.  0.
         23    2    1    2    0    0  0.61764074391E+01 -0.63383803063E+02 -0.58126996306E+02  0.12467737329E+03  0.90055789432E+02 0.  0.
          5    1    3    3  502    0  0.33290420769E+02 -0.28370672980E+01 -0.10624539549E+02  0.35307992104E+02  0.41800000000E+01 0.  1.
         -5    1    3    3    0  502 -0.39466828208E+02  0.66220870361E+02 -0.23795534061E+03  0.25016604631E+03  0.41800000000E+01 0.  1.
        -11    1    4    4    0    0  0.14465199078E+02 -0.81021157971E+02 -0.64072962460E+02  0.10430251455E+03  0.00000000000E+00 0. -1.
         11    1    4    4    0    0 -0.82887916392E+01  0.17637354907E+02  0.59459661537E+01  0.20374858735E+02  0.00000000000E+00 0.  1.
</event>
<event>
 8    1  0.6689467E-009  0.1180064E+03  0.7561462E-02  0.1246423E+00
          2   -1    0    0  501    0  0.00000000000E+00  0.00000000000E+00  0.97862843845E+03  0.97862843845E+03  0.00000000000E+00 0. -1.
         -2   -1    0    0    0  501 -0.00000000000E+00 -0.00000000000E+00 -0.20048311232E+02  0.20048311232E+02  0.00000000000E+00 0.  1.
         25    2    1    2    0    0 -0.59667297829E+02 -0.37886231506E+02  0.71302289104E+03  0.72735392712E+03  0.12508612705E+03 0.  0.
         23    2    1    2    0    0  0.59667297829E+02  0.37886231506E+02  0.24555723618E+03  0.27132282256E+03  0.91225900030E+02 0.  0.
          5    1    3    3  502    0  0.17835794574E+02 -0.58331729038E+02  0.37362160908E+03  0.37859118499E+03  0.41800000000E+01 0.  1.
         -5    1    3    3    0  502 -0.77503092402E+02  0.20445497532E+02  0.33940128197E+03  0.34876274213E+03  0.41800000000E+01 0.  1.
        -11    1    4    4    0    0 -0.29639928033E+01  0.31515164806E+02  0.17024949553E+03  0.17316720704E+03  0.00000000000E+00 0. -1.
         11    1    4    4    0    0  0.62631290632E+02  0.63710667000E+01  0.75307740650E+02  0.98155615524E+02  0.00000000000E+00 0.  1.
</event>
<event>
 8    1  0.6689467E-009  0.1125321E+03  0.7561462E-02  0.1255951E+00
         -1   -1    0    0    0  501 -0.00000000000E+00  0.00000000000E+00  0.13270609599E+03  0.13270609599E+03  0.00000000000E+00 0.  1.
          1   -1    0    0  501    0  0.00000000000E+00 -0.00000000000E+00 -0.10189070369E+03  0.10189070369E+03  0.00000000000E+00 0. -1.
         25    2    1    2    0    0 -0.33023006400E+02  0.16266119768E+02  0.38010881861E+02  0.13582584582E+03  0.12509487459E+03 0.  0.
         23    2    1    2    0    0  0.33023006400E+02 -0.16266119768E+02 -0.71954895610E+01  0.98770953854E+02  0.91371881075E+02 0.  0.
          5    1    3    3  502    0 -0.41185263762E+02  0.65748189599E+02  0.35547617480E+02  0.85440949756E+02  0.41800000000E+01 0.  1.
         -5    1    3    3    0  502  0.81622573615E+01 -0.49482069831E+02  0.24632643811E+01  0.50384896064E+02  0.41800000000E+01 0.  1.
        -11    1    4    4    0    0  0.55448495234E+02  0.16036193240E+02 -0.12593337206E+02  0.59078653161E+02  0.00000000000E+00 0. -1.
         11    1    4    4    0    0 -0.22425488834E+02 -0.32302313008E+02  0.53978476447E+01  0.39692300693E+02  0.00000000000E+00 0.  1.
</event>
<event>
 8    1  0.6689467E-009  0.9743219E+02  0.7561462E-02  0.1285790E+00
         -1   -1    0    0    0  501 -0.00000000000E+00  0.00000000000E+00  0.75296828287E+02  0.75296828287E+02  0.00000000000E+00 0.  1.
          1   -1    0    0  501    0  0.00000000000E+00 -0.00000000000E+00 -0.16966505356E+03  0.16966505356E+03  0.00000000000E+00 0. -1.
         25    2    1    2    0    0  0.31824627461E+02 -0.63816257035E+01 -0.67320404799E+02  0.14571787055E+03  0.12509248114E+03 0.  0.
         23    2    1    2    0    0 -0.31824627461E+02  0.63816257035E+01 -0.27047820478E+02  0.99244011297E+02  0.89801208934E+02 0.  0.
          5    1    3    3  502    0 -0.10151389766E+02 -0.58995658427E+02 -0.19688232613E+02  0.63155659532E+02  0.41800000000E+01 0. -1.
         -5    1    3    3    0  502  0.41976017227E+02  0.52614032724E+02 -0.47632172186E+02  0.82562211023E+02  0.41800000000E+01 0. -1.
        -11    1    4    4    0    0 -0.25558222958E+02 -0.24800972214E+02 -0.49016760401E+02  0.60588396445E+02  0.00000000000E+00 0. -1.
         11    1    4    4    0    0 -0.62664045037E+01  0.31182597917E+02  0.21968939923E+02  0.38655614852E+02  0.00000000000E+00 0.  1.
</event>
<event>
 8    1  0.6689467E-009  0.8561130E+02  0.7561462E-02  0.1313842E+00
          1   -1    0    0  501    0  0.00000000000E+00  0.00000000000E+00  0.18502213113E+03  0.18502213113E+03  0.00000000000E+00 0. -1.
         -1   -1    0    0    0  501 -0.00000000000E+00 -0.00000000000E+00 -0.91378179695E+02  0.91378179695E+02  0.00000000000E+00 0.  1.
         25    2    1    2    0    0 -0.21204857517E+02  0.10937701090E+02 -0.20674517583E+02  0.12901535738E+03  0.12509295534E+03 0.  0.
         23    2    1    2    0    0  0.21204857517E+02 -0.10937701090E+02  0.11431846902E+03  0.14738495344E+03  0.89912918179E+02 0.  0.
          5    1    3    3  502    0  0.49541835630E+01  0.46080439757E+02 -0.55836129930E+02  0.72684913624E+02  0.41800000000E+01 0. -1.
         -5    1    3    3    0  502 -0.26159041080E+02 -0.35142738667E+02  0.35161612347E+02  0.56330443759E+02  0.41800000000E+01 0. -1.
        -11    1    4    4    0    0 -0.22478410197E+02 -0.26094791039E+02  0.14484736982E+02  0.37363413251E+02  0.00000000000E+00 0.  1.
         11    1    4    4    0    0  0.43683267714E+02  0.15157089949E+02  0.99833732038E+02  0.11002154019E+03  0.00000000000E+00 0. -1.
</event>
<event>
 7    1  0.6689467E-009  0.1085219E+03  0.7561462E-02  0.1263332E+00
         -1   -1    0    0    0  501 -0.00000000000E+00  0.00000000000E+00  0.24730741811E+02  0.24730741811E+02  0.00000000000E+00 0.  1.
          1   -1    0    0  501    0  0.00000000000E+00 -0.00000000000E+00 -0.66658671520E+03  0.66658671520E+03  0.00000000000E+00 0. -1.
         23    2    1    2    0    0 -0.17234328830E+02 -0.62343027160E+02 -0.33003811367E+03  0.34912782358E+03  0.93709154288E+02 0.  0.
          5    1    1    2  502    0 -0.89446709407E+01 -0.17220340611E+02 -0.20700818437E+03  0.20795770739E+03  0.41800000000E+01 0.  1.
         -5    1    1    2    0  502  0.26178999771E+02  0.79563367772E+02 -0.10480967535E+03  0.13423192603E+03  0.41800000000E+01 0.  1.
        -11    1    3    3    0    0 -0.51785643774E+02 -0.13526195402E+02 -0.13908893597E+03  0.14903168446E+03  0.00000000000E+00 0.  1.
         11    1    3    3    0    0  0.34551314944E+02 -0.48816831758E+02 -0.19094917770E+03  0.20009613912E+03  0.00000000000E+00 0. -1.
</event>
<event>
 8    1  0.6689467E-009  0.1063530E+03  0.7561462E-02  0.1267477E+00
          1   -1    0    0  501    0  0.00000000000E+00  0.00000000000E+00  0.39342183050E+03  0.39342183050E+03  0.00000000000E+00 0. -1.
         -1   -1    0    0    0  501 -0.00000000000E+00 -0.00000000000E+00 -0.44710173401E+02  0.44710173401E+02  0.00000000000E+00 0.  1.
         25    2    1    2    0    0  0.59696263102E+01 -0.74451367809E+02  0.17560603833E+03  0.22817332835E+03  0.12508774707E+03 0.  0.
         23    2    1    2    0    0 -0.59696263102E+01  0.74451367809E+02  0.17310561877E+03  0.20995867554E+03  0.92403720603E+02 0.  0.
          5    1    3    3  502    0 -0.37740709455E+02  0.55452100034E+01  0.10925792394E+02  0.39899321343E+02  0.41800000000E+01 0. -1.
         -5    1    3    3    0  502  0.43710335765E+02 -0.79996577812E+02  0.16468024594E+03  0.18827400701E+03  0.41800000000E+01 0. -1.
        -11    1    4    4    0    0  0.15445045067E+02  0.30955819292E+02  0.49422793811E+01  0.34946219977E+02  0.00000000000E+00 0.  1.
         11    1    4    4    0    0 -0.21414671377E+02  0.43495548516E+02  0.16816333938E+03  0.17501245557E+03  0.00000000000E+00 0. -1.
</event>
<event>
 8    1  0.6689467E-009  0.2995099E+03  0.7561462E-02  0.1085486E+00
         -2   -1    0    0    0  501 -0.00000000000E+00  0.00000000000E+00  0.16344610165E+03  0.16344610165E+03  0.00000000000E+00 0.  1.
          2   -1    0    0  501    0  0.00000000000E+00 -0.00000000000E+00 -0.60840476283E+03  0.60840476283E+03  0.00000000000E+00 0. -1.
         25    2    1    2    0    0  0.27738799854E+03  0.10149818537E+03 -0.24361739619E+03  0.40279366392E+03  0.12508923456E+03 0.  0.
         23    2    1    2    0    0 -0.27738799854E+03 -0.10149818537E+03 -0.20134126500E+03  0.36905720056E+03  0.91754721532E+02 0.  0.
          5    1    3    3  502    0  0.58377209701E+02  0.53662144111E+02 -0.12773782579E+03  0.15040594689E+03  0.41800000000E+01 0.  1.
         -5    1    3    3    0  502  0.21901078884E+03  0.47836041264E+02 -0.11587957039E+03  0.25238771703E+03  0.41800000000E+01 0.  1.
        -11    1    4    4    0    0 -0.19202075990E+03 -0.72271456193E+02 -0.85630127107E+02  0.22232331025E+03  0.00000000000E+00 0.  1.
         11    1    4    4    0    0 -0.85367238638E+02 -0.29226729181E+02 -0.11571113789E+03  0.14673389031E+03  0.00000000000E+00 0. -1.
</event>
<event>
 8    1  0.6689467E-009  0.1771967E+03  0.7561462E-02  0.1170544E+00
          1   -1    0    0  501    0  0.00000000000E+00  0.00000000000E+00  0.71704145662E+03  0.71704145662E+03  0.00000000000E+00 0. -1.
         -1   -1    0    0    0  501 -0.00000000000E+00 -0.00000000000E+00 -0.68790482896E+02  0.68790482896E+02  0.00000000000E+00 0.  1.
         25    2    1    2    0    0  0.68314021729E+02  0.13962191925E+03  0.53891787605E+03  0.57466628771E+03  0.12509108364E+03 0.  0.
         23    2    1    2    0    0 -0.68314021729E+02 -0.13962191925E+03  0.10933309767E+03  0.21116565180E+03  0.92065847931E+02 0.  0.
          5    1    3    3  502    0 -0.25474671385E+02  0.76788595625E+02  0.29388024449E+03  0.30484179143E+03  0.41800000000E+01 0. -1.
         -5    1    3    3    0  502  0.93788693114E+02  0.62833323621E+02  0.24503763156E+03  0.26982449628E+03  0.41800000000E+01 0. -1.
        -11    1    4    4    0    0 -0.31668526179E+02 -0.10618085910E+03  0.25415279433E+02  0.11368028333E+03  0.00000000000E+00 0.  1.
         11    1    4    4    0    0 -0.36645495550E+02 -0.33441060146E+02  0.83917818239E+02  0.97485368470E+02  0.00000000000E+00 0. -1.
</event>
<event>
 8    1  0.6689467E-009  0.1145211E+03  0.7561462E-02  0.1252419E+00
          2   -1    0    0  501    0  0.00000000000E+00  0.00000000000E+00  0.15670171320E+03  0.15670171320E+03  0.00000000000E+00 0. -1.
         -2   -1    0    0    0  501 -0.00000000000E+00 -0.00000000000E+00 -0.92853119302E+02  0.92853119302E+02  0.00000000000E+00 0.  1.
         25    2    1    2    0    0 -0.47084647728E+02  0.20229276318E+02  0.46126896179E+02  0.14283128735E+03  0.12508756302E+03 0.  0.
         23    2    1    2    0    0  0.47084647728E+02 -0.20229276318E+02  0.17721697715E+02  0.10672354515E+03  0.91922080303E+02 0.  0.
          5    1    3    3  502    0  0.39670130157E+02  0.45091184640E+01  0.36115742317E+02  0.53998802016E+02  0.41800000000E+01 0. -1.
         -5    1    3    3    0  502 -0.86754777885E+02  0.15720157854E+02  0.10011153862E+02  0.88832485333E+02  0.41800000000E+01 0. -1.
        -11    1    4    4    0    0  0.72764379189E+02 -0.12640095118E+02  0.26621526542E+02  0.78505621192E+02  0.00000000000E+00 0.  1.
         11    1    4    4    0    0 -0.25679731462E+02 -0.75891811996E+01 -0.88998288275E+01  0.28217923956E+02  0.00000000000E+00 0. -1.
</event>
<event>
 8    1  0.6689467E-009  0.1564077E+03  0.7561462E-02  0.1192813E+00
          3   -1    0    0  501    0  0.00000000000E+00  0.00000000000E+00  0.71823007192E+02  0.71823007192E+02  0.00000000000E+00 0. -1.
         -3   -1    0    0    0  501 -0.00000000000E+00 -0.00000000000E+00 -0.46444159339E+03  0.46444159339E+03  0.00000000000E+00 0.  1.
         25    2    1    2    0    0 -0.15860435699E+02  0.12944698661E+03 -0.98625247719E+02  0.20586972377E+03  0.12508927978E+03 0.  0.
         23    2    1    2    0    0  0.15860435699E+02 -0.12944698661E+03 -0.29399333848E+03  0.33039487681E+03  0.75634752524E+02 0.  0.
          5    1    3    3  502    0 -0.32898377986E+02  0.14133759389E+03 -0.51226725107E+02  0.15394891518E+03  0.41800000000E+01 0. -1.
         -5    1    3    3    0  502  0.17037942286E+02 -0.11890607280E+02 -0.47398522612E+02  0.51920808590E+02  0.41800000000E+01 0. -1.
        -11    1    4    4    0    0 -0.25217494047E+02 -0.68074489486E+02 -0.10657179599E+03  0.12894807414E+03  0.00000000000E+00 0. -1.
         11    1    4    4    0    0  0.41077929746E+02 -0.61372497124E+02 -0.18742154249E+03  0.20144680267E+03  0.00000000000E+00 0.  1.
</event>
<event>
 8    1  0.6689467E-009  0.1497876E+03  0.7561462E-02  0.1200734E+00
         -1   -1    0    0    0  501 -0.00000000000E+00  0.00000000000E+00  0.87503518370E+02  0.87503518370E+02  0.00000000000E+00 0.  1.
          1   -1    0    0  501    0  0.00000000000E+00 -0.00000000000E+00 -0.67333165161E+03  0.67333165161E+03  0.00000000000E+00 0. -1.
         25    2    1    2    0    0 -0.10605357989E+03  0.59596940009E+02 -0.58308557064E+03  0.60863423018E+03  0.12509071265E+03 0.  0.
         23    2    1    2    0    0  0.10605357989E+03 -0.59596940009E+02 -0.27425626046E+01  0.15220093981E+03  0.91424544638E+02 0.  0.
          5    1    3    3  502    0 -0.13308222226E+03  0.56847973443E+02 -0.44912993897E+03  0.47188742773E+03  0.41800000000E+01 0.  1.
         -5    1    3    3    0  502  0.27028642370E+02  0.27489665657E+01 -0.13395563167E+03  0.13674680245E+03  0.41800000000E+01 0.  1.
        -11    1    4    4    0    0  0.73306359825E+02 -0.20114174039E+02  0.39576762928E+02  0.85701356768E+02  0.00000000000E+00 0.  1.
         11    1    4    4    0    0  0.32747220064E+02 -0.39482765970E+02 -0.42319325533E+02  0.66499583037E+02  0.00000000000E+00 0. -1.
</event>
<event>
 8    1  0.6689467E-009  0.1427406E+03  0.7561462E-02  0.1209688E+00
         -2   -1    0    0    0  501 -0.00000000000E+00  0.00000000000E+00  0.71056580520E+02  0.71056580520E+02  0.00000000000E+00 0.  1.
          2   -1    0    0  501    0  0.00000000000E+00 -0.00000000000E+00 -0.37395344391E+03  0.37395344391E+03  0.00000000000E+00 0. -1.
         25    2    1    2    0    0  0.33444399577E+02 -0.11086850260E+03 -0.11153958487E+03  0.20371210720E+03  0.12508873209E+03 0.  0.
         23    2    1    2    0    0 -0.33444399577E+02  0.11086850260E+03 -0.19135727852E+03  0.24129791722E+03  0.90535761338E+02 0.  0.
          5    1    3    3  502    0  0.12056333555E+02 -0.13483853613E+03 -0.10315069373E+03  0.17024783118E+03  0.41800000000E+01 0. -1.
         -5    1    3    3    0  502  0.21388066023E+02  0.23970033524E+02 -0.83888911356E+01  0.33464276024E+02  0.41800000000E+01 0. -1.
        -11    1    4    4    0    0  0.14926764803E+01  0.23530626825E+02  0.45174965501E+01  0.24006796057E+02  0.00000000000E+00 0.  1.
         11    1    4    4    0    0 -0.34937076058E+02  0.87337875779E+02 -0.19587477507E+03  0.21729112117E+03  0.00000000000E+00 0. -1.
</event>
<event>
 8    1  0.6689467E-009  0.6289800E+02  0.7561462E-02  0.1386057E+00
          2   -1    0    0  501    0  0.00000000000E+00  0.00000000000E+00  0.72246322820E+02  0.72246322820E+02  0.00000000000E+00 0. -1.
         -2   -1    0    0    0  501 -0.00000000000E+00 -0.00000000000E+00 -0.17814128515E+03  0.17814128515E+03  0.00000000000E+00 0.  1.
         25    2    1    2    0    0  0.36954978915E+01 -0.33099401708E+02 -0.57491201725E+02  0.14163660864E+03  0.12508582467E+03 0.  0.
         23    2    1    2    0    0 -0.36954978915E+01  0.33099401708E+02 -0.48403760606E+02  0.10875099933E+03  0.91512997532E+02 0.  0.
          5    1    3    3  502    0 -0.15262277197E+02  0.16758249895E+02  0.30757563754E+02  0.38435350562E+02  0.41800000000E+01 0. -1.
         -5    1    3    3    0  502  0.18957775088E+02 -0.49857651603E+02 -0.88248765479E+02  0.10320125807E+03  0.41800000000E+01 0. -1.
        -11    1    4    4    0    0 -0.19393060749E+02  0.24814504695E+02  0.20513111055E+02  0.37585079136E+02  0.00000000000E+00 0. -1.
         11    1    4    4    0    0  0.15697562857E+02  0.82848970124E+01 -0.68916871661E+02  0.71165920199E+02  0.00000000000E+00 0.  1.
</event>
<event>
 8    1  0.6689467E-009  0.9796827E+02  0.7561462E-02  0.1284627E+00
         -2   -1    0    0    0  501 -0.00000000000E+00  0.00000000000E+00  0.59451410743E+03  0.59451410743E+03  0.00000000000E+00 0.  1.
          2   -1    0    0  501    0  0.00000000000E+00 -0.00000000000E+00 -0.55974709460E+02  0.55974709460E+02  0.00000000000E+00 0. -1.
         25    2    1    2    0    0  0.43446146727E+02 -0.94318889103E+01  0.53384054451E+03  0.55010018576E+03  0.12509180316E+03 0.  0.
         23    2    1    2    0    0 -0.43446146727E+02  0.94318889103E+01  0.46988534638E+01  0.10038863113E+03  0.89884758681E+02 0.  0.
          5    1    3    3  502    0  0.31863993901E+01 -0.44612404356E+02  0.43782187783E+03  0.44012031181E+03  0.41800000000E+01 0.  1.
         -5    1    3    3    0  502  0.40259747337E+02  0.35180515445E+02  0.96018666680E+02  0.10997987395E+03  0.41800000000E+01 0.  1.
        -11    1    4    4    0    0 -0.30814936658E+02 -0.37643017608E+02  0.14313499073E+02  0.50709302417E+02  0.00000000000E+00 0.  1.
         11    1    4    4    0    0 -0.12631210069E+02  0.47074906519E+02 -0.96146456097E+01  0.49679328717E+02  0.00000000000E+00 0. -1.
</event>
<event>
 8    1  0.6689467E-009  0.9779586E+02  0.7561462E-02  0.1285000E+00
          1   -1    0    0  501    0  0.00000000000E+00  0.00000000000E+00  0.36392017237E+03  0.36392017237E+03  0.00000000000E+00 0. -1.
         -1   -1    0    0    0  501 -0.00000000000E+00 -0.00000000000E+00 -0.43660214749E+02  0.43660214749E+02  0.00000000000E+00 0.  1.
         25    2    1    2    0    0  0.24847214053E+02  0.26016751727E+02  0.94004497421E+02  0.16055780913E+03  0.12509080350E+03 0.  0.
         23    2    1    2    0    0 -0.24847214053E+02 -0.26016751727E+02  0.22625546020E+03  0.24702257800E+03  0.92381628864E+02 0.  0.
          5    1    3    3  502    0  0.30464122200E+02  0.61818869102E+02  0.10203885610E+03  0.12320322996E+03  0.41800000000E+01 0.  1.
         -5    1    3    3    0  502 -0.56169081472E+01 -0.35802117374E+02 -0.80343586752E+01  0.37354579170E+02  0.41800000000E+01 0.  1.
        -11    1    4    4    0    0  0.30279307130E+02 -0.15235478100E+02  0.39739653950E+02  0.52232138855E+02  0.00000000000E+00 0.  1.
         11    1    4    4    0    0 -0.55126521183E+02 -0.10781273627E+02  0.18651580625E+03  0.19479043914E+03  0.00000000000E+00 0. -1.
</event>
<event>
 8    1  0.6689467E-009  0.6625536E+02  0.7561462E-02  0.1373311E+00
          1   -1    0    0  501    0  0.00000000000E+00  0.00000000000E+00  0.35464448064E+03  0.35464448064E+03  0.00000000000E+00 0. -1.
         -1   -1    0    0    0  501 -0.00000000000E+00 -0.00000000000E+00 -0.42004168776E+02  0.42004168776E+02  0.00000000000E+00 0.  1.
         25    2    1    2    0    0 -0.33210245999E+02  0.13887136187E+02  0.24760194879E+03  0.27973398242E+03  0.12509437590E+03 0.  0.
         23    2    1    2    0    0  0.33210245999E+02 -0.13887136187E+02  0.65038363072E+02  0.11691466700E+03  0.90240111361E+02 0.  0.
          5    1    3    3  502    0 -0.13216398507E+02 -0.14950705866E+01  0.25317899490E+03  0.25356258455E+03  0.41800000000E+01 0.  1.
         -5    1    3    3    0  502 -0.19993847492E+02  0.15382206774E+02 -0.55770461093E+01  0.26171397862E+02  0.41800000000E+01 0.  1.
        -11    1    4    4    0    0  0.15607646372E+01 -0.47096875407E+02  0.49832828645E+02  0.68584710177E+02  0.00000000000E+00 0. -1.
         11    1    4    4    0    0  0.31649481361E+02  0.33209739220E+02  0.15205534426E+02  0.48329956825E+02  0.00000000000E+00 0.  1.
</event>
<event>
 8    1  0.6689467E-009  0.1101637E+03  0.7561462E-02  0.1260267E+00
         -1   -1    0    0    0  501 -0.00000000000E+00  0.00000000000E+00  0.24919432129E+02  0.24919432129E+02  0.00000000000E+00 0.  1.
          1   -1    0    0  501    0  0.00000000000E+00 -0.00000000000E+00 -0.57341940550E+03  0.57341940550E+03  0.00000000000E+00 0. -1.
         25    2    1    2    0    0 -0.43338660458E+02  0.19720032622E+02 -0.26124916158E+03  0.29354056363E+03  0.12509124227E+03 0.  0.
         23    2    1    2    0    0  0.43338660458E+02 -0.19720032622E+02 -0.28725081179E+03  0.30479827399E+03  0.90121250440E+02 0.  0.
          5    1    3    3  502    0 -0.68840803454E+02  0.55773025957E+02 -0.18867804444E+03  0.20848636286E+03  0.41800000000E+01 0.  1.
         -5    1    3    3    0  502  0.25502142997E+02 -0.36052993335E+02 -0.72571117146E+02  0.85054200776E+02  0.41800000000E+01 0.  1.
        -11    1    4    4    0    0  0.20191349657E+02  0.27832465006E+02 -0.43881424689E+02  0.55748687357E+02  0.00000000000E+00 0.  1.
         11    1    4    4    0    0  0.23147310800E+02 -0.47552497628E+02 -0.24336938710E+03  0.24904958664E+03  0.00000000000E+00 0. -1.
</event>
<event>
 8    1  0.6689467E-009  0.8361872E+02  0.7561462E-02  0.1319085E+00
         -1   -1    0    0    0  501 -0.00000000000E+00  0.00000000000E+00  0.29313564638E+03  0.29313564638E+03  0.00000000000E+00 0.  1.
          1   -1    0    0  501    0  0.00000000000E+00 -0.00000000000E+00 -0.56284137275E+02  0.56284137275E+02  0.00000000000E+00 0. -1.
         25    2    1    2    0    0 -0.68560173334E+01  0.25066845710E+02  0.21574055596E+03  0.25073140556E+03  0.12508756341E+03 0.  0.
         23    2    1    2    0    0  0.68560173334E+01 -0.25066845710E+02  0.21110953149E+02  0.98688378102E+02  0.92835186767E+02 0.  0.
          5    1    3    3  502    0  0.43136630372E+02  0.37732531048E+02  0.46999187524E+02  0.74235495600E+02  0.41800000000E+01 0.  1.
         -5    1    3    3    0  502 -0.49992647706E+02 -0.12665685338E+02  0.16874136844E+03  0.17649590996E+03  0.41800000000E+01 0.  1.
        -11    1    4    4    0    0  0.28023714546E+02 -0.42490046729E+01  0.49864840513E+02  0.57357518575E+02  0.00000000000E+00 0.  1.
         11    1    4    4    0    0 -0.21167697212E+02 -0.20817841037E+02 -0.28753887365E+02  0.41330859528E+02  0.00000000000E+00 0. -1.
</event>
<event>
 8    1  0.6689467E-009  0.9616551E+02  0.7561462E-02  0.1288572E+00
          1   -1    0    0  501    0  0.00000000000E+00  0.00000000000E+00  0.76911946834E+02  0.76911946834E+02  0.00000000000E+00 0. -1.
         -1   -1    0    0    0  501 -0.00000000000E+00 -0.00000000000E+00 -0.20155649214E+03  0.20155649214E+03  0.00000000000E+00 0.  1.
         25    2    1    2    0    0 -0.31673154474E+02  0.21039437382E+02 -0.12428382864E+03  0.18038857608E+03  0.12509085370E+03 0.  0.
         23    2    1    2    0    0  0.31673154474E+02 -0.21039437382E+02 -0.36071667007E+00  0.98079862896E+02  0.90408421895E+02 0.  0.
          5    1    3    3  502    0  0.16730681280E+02  0.45554034587E+02 -0.11538833207E+03  0.12524785564E+03  0.41800000000E+01 0. -1.
         -5    1    3    3    0  502 -0.48403835754E+02 -0.24514597205E+02 -0.88954965672E+01  0.55140720443E+02  0.41800000000E+01 0. -1.
        -11    1    4    4    0    0  0.47462068683E+02  0.15066797926E+02 -0.20468487693E+02  0.53838790401E+02  0.00000000000E+00 0.  1.
         11    1    4    4    0    0 -0.15788914208E+02 -0.36106235309E+02  0.20107771023E+02  0.44241072495E+02  0.00000000000E+00 0. -1.
</event>
<event>
 8    1  0.6689467E-009  0.1017971E+03  0.7561462E-02  0.1276562E+00
          1   -1    0    0  501    0  0.00000000000E+00  0.00000000000E+00  0.45755727553E+03  0.45755727553E+03  0.00000000000E+00 0. -1.
         -1   -1    0    0    0  501 -0.00000000000E+00 -0.00000000000E+00 -0.33202488362E+02  0.33202488362E+02  0.00000000000E+00 0.  1.
         25    2    1    2    0    0  0.10571725805E+01 -0.34781582201E+01  0.11595967758E+03  0.17060954056E+03  0.12509098012E+03 0.  0.
         23    2    1    2    0    0 -0.10571725805E+01  0.34781582201E+01  0.30839510960E+03  0.32015022334E+03  0.85880187952E+02 0.  0.
          5    1    3    3  502    0  0.62199193450E+02  0.40523992533E+01  0.47949547912E+02  0.78751464434E+02  0.41800000000E+01 0. -1.
         -5    1    3    3    0  502 -0.61142020870E+02 -0.75305574734E+01  0.68010129663E+02  0.91858076121E+02  0.41800000000E+01 0. -1.
        -11    1    4    4    0    0 -0.18854743136E+02 -0.33442239535E+02  0.88504421961E+02  0.96472366149E+02  0.00000000000E+00 0.  1.
         11    1    4    4    0    0  0.17797570556E+02  0.36920397755E+02  0.21989068764E+03  0.22367785719E+03  0.00000000000E+00 0. -1.
</event>
<event>
 8    1  0.6689467E-009  0.9467596E+02  0.7561462E-02  0.1291908E+00
          1   -1    0    0  501    0  0.00000000000E+00  0.00000000000E+00  0.38601881495E+03  0.38601881495E+03  0.00000000000E+00 0. -1.
         -1   -1    0    0    0  501 -0.00000000000E+00 -0.00000000000E+00 -0.37651603432E+02  0.37651603432E+02  0.00000000000E+00 0.  1.
         25    2    1    2    0    0 -0.49648512559E+02 -0.76867486111E+01  0.16375921722E+03  0.21210425649E+03  0.12508826282E+03 0.  0.
         23    2    1    2    0    0  0.49648512559E+02  0.76867486111E+01  0.18460799431E+03  0.21156616189E+03  0.90310953897E+02 0.  0.
          5    1    3    3  502    0  0.92891479706E+01 -0.23880784719E+02  0.14603824318E+03  0.14832808575E+03  0.41800000000E+01 0. -1.
         -5    1    3    3    0  502 -0.58937660530E+02  0.16194036107E+02  0.17720974032E+02  0.63776170745E+02  0.41800000000E+01 0. -1.
        -11    1    4    4    0    0  0.74131137714E+02 -0.54665791009E+01  0.11891128850E+03  0.14023267664E+03  0.00000000000E+00 0.  1.
         11    1    4    4    0    0 -0.24482625155E+02  0.13153327712E+02  0.65696705807E+02  0.71333485252E+02  0.00000000000E+00 0. -1.
</event>
<event>
 8    1  0.6689467E-009  0.1021651E+03  0.7561462E-02  0.1275808E+00
         -2   -1    0    0    0  501 -0.00000000000E+00  0.00000000000E+00  0.15689893646E+03  0.15689893646E+03  0.00000000000E+00 0.  1.
          2   -1    0    0  501    0  0.00000000000E+00 -0.00000000000E+00 -0.11713514018E+03  0.11713514018E+03  0.00000000000E+00 0. -1.
         25    2    1    2    0    0 -0.31101222762E+02  0.70299522280E+02 -0.38026153129E+01  0.14687097557E+03  0.12508922691E+03 0.  0.
         23    2    1    2    0    0  0.31101222762E+02 -0.70299522280E+02  0.43566411586E+02  0.12716310107E+03  0.91450058314E+02 0.  0.
          5    1    3    3  502    0 -0.40209683509E+02 -0.12416956358E+01 -0.47544300130E+02  0.62420295824E+02  0.41800000000E+01 0. -1.
         -5    1    3    3    0  502  0.91084607470E+01  0.71541217916E+02  0.43741684817E+02  0.84450679741E+02  0.41800000000E+01 0. -1.
        -11    1    4    4    0    0  0.44032033052E+02 -0.43533355461E+02 -0.12993234263E+02  0.63267662427E+02  0.00000000000E+00 0. -1.
         11    1    4    4    0    0 -0.12930810291E+02 -0.26766166819E+02  0.56559645849E+02  0.63895438645E+02  0.00000000000E+00 0.  1.
</event>
<event>
 8    1  0.6689467E-009  0.1373780E+03  0.7561462E-02  0.1216901E+00
          4   -1    0    0  501    0  0.00000000000E+00  0.00000000000E+00  0.56080759752E+02  0.56080759752E+02  0.00000000000E+00 0. -1.
         -4   -1    0    0    0  501 -0.00000000000E+00 -0.00000000000E+00 -0.35812856559E+03  0.35812856559E+03  0.00000000000E+00 0.  1.
         25    2    1    2    0    0 -0.59813881006E+02  0.64679584695E+02 -0.18552770705E+03  0.24047368399E+03  0.12508362631E+03 0.  0.
         23    2    1    2    0    0  0.59813881006E+02 -0.64679584695E+02 -0.11652009879E+03  0.17373564135E+03  0.94053126566E+02 0.  0.
          5    1    3    3  502    0 -0.34667906977E+02  0.98228902392E+02 -0.96855582787E+02  0.14229988530E+03  0.41800000000E+01 0.  1.
         -5    1    3    3    0  502 -0.25145974029E+02 -0.33549317696E+02 -0.88672124265E+02  0.98173798690E+02  0.41800000000E+01 0. -1.
        -11    1    4    4    0    0 -0.14204136919E+02  0.14280661466E+02 -0.13019939250E+02  0.23983611396E+02  0.00000000000E+00 0.  1.
         11    1    4    4    0    0  0.74018017926E+02 -0.78960246161E+02 -0.10350015953E+03  0.14975202995E+03  0.00000000000E+00 0. -1.
</event>
<event>
 8    1  0.6689467E-009  0.1201300E+03  0.7561462E-02  0.1242883E+00
          2   -1    0    0  501    0  0.00000000000E+00  0.00000000000E+00  0.59235278045E+03  0.59235278045E+03  0.00000000000E+00 0. -1.
         -2   -1    0    0    0  501 -0.00000000000E+00 -0.00000000000E+00 -0.29038093509E+02  0.29038093509E+02  0.00000000000E+00 0.  1.
         25    2    1    2    0    0  0.69175932800E+02 -0.27987394662E+02  0.31145758875E+03  0.34382831107E+03  0.12507387405E+03 0.  0.
         23    2    1    2    0    0 -0.69175932800E+02  0.27987394662E+02  0.25185709819E+03  0.27756256288E+03  0.89668135169E+02 0.  0.
          5    1    3    3  502    0  0.95705500128E+02  0.10368750514E+02  0.23740370490E+03  0.25621289047E+03  0.41800000000E+01 0.  1.
         -5    1    3    3    0  502 -0.26529567329E+02 -0.38356145176E+02  0.74053883845E+02  0.87615420605E+02  0.41800000000E+01 0.  1.
        -11    1    4    4    0    0 -0.40166432923E+02 -0.16946678597E+02  0.40366219105E+02  0.59413499258E+02  0.00000000000E+00 0.  1.
         11    1    4    4    0    0 -0.29009499877E+02  0.44934073259E+02  0.21149087909E+03  0.21814906362E+03  0.00000000000E+00 0. -1.
</event>
<event>
 8    1  0.6689467E-009  0.2594182E+03  0.7561462E-02  0.1107493E+00
          2   -1    0    0  501    0  0.00000000000E+00  0.00000000000E+00  0.26453691754E+03  0.26453691754E+03  0.00000000000E+00 0. -1.
         -2   -1    0    0    0  501 -0.00000000000E+00 -0.00000000000E+00 -0.31713296432E+03  0.31713296432E+03  0.00000000000E+00 0.  1.
         25    2    1    2    0    0 -0.23535552023E+03 -0.91290536229E+02 -0.11809030618E+03  0.30548189931E+03  0.12509071702E+03 0.  0.
         23    2    1    2    0    0  0.23535552023E+03  0.91290536229E+02  0.65494259390E+02  0.27618798255E+03  0.90907209739E+02 0.  0.
          5    1    3    3  502    0 -0.63224146922E+02 -0.28861827942E+02  0.24032354150E+02  0.73656800855E+02  0.41800000000E+01 0. -1.
         -5    1    3    3    0  502 -0.17213137331E+03 -0.62428708287E+02 -0.14212266033E+03  0.23182509846E+03  0.41800000000E+01 0. -1.
        -11    1    4    4    0    0  0.66877886591E+02  0.69038435697E+02  0.66559193586E+01  0.96349668297E+02  0.00000000000E+00 0.  1.
         11    1    4    4    0    0  0.16847763364E+03  0.22252100532E+02  0.58838340031E+02  0.17983831425E+03  0.00000000000E+00 0. -1.
</event>
<event>
 8    1  0.6689467E-009  0.7633200E+02  0.7561462E-02  0.1339795E+00
          2   -1    0    0  501    0  0.00000000000E+00  0.00000000000E+00  0.17517280839E+03  0.17517280839E+03  0.00000000000E+00 0.  1.
         -2   -1    0    0    0  501 -0.00000000000E+00 -0.00000000000E+00 -0.75251179505E+02  0.75251179505E+02  0.00000000000E+00 0. -1.
         25    2    1    2    0    0 -0.29908448302E+02 -0.72388630362E+01  0.65370051808E+02  0.14445496694E+03  0.12508827835E+03 0.  0.
         23    2    1    2    0    0  0.29908448302E+02  0.72388630362E+01  0.34551577075E+02  0.10596902096E+03  0.95334702529E+02 0.  0.
          5    1    3    3  502    0 -0.47597975826E+02 -0.35027415369E+02 -0.11831929139E+02  0.60414849808E+02  0.41800000000E+01 0.  1.
         -5    1    3    3    0  502  0.17689527524E+02  0.27788552333E+02  0.77201980947E+02  0.84040117129E+02  0.41800000000E+01 0.  1.
        -11    1    4    4    0    0  0.44834310597E+02  0.48110452169E+01  0.60788069559E+02  0.75686530926E+02  0.00000000000E+00 0.  1.
         11    1    4    4    0    0 -0.14925862295E+02  0.24278178193E+01 -0.26236492485E+02  0.30282490032E+02  0.00000000000E+00 0. -1.
</event>
<event>
 8    1  0.6689467E-009  0.8891281E+02  0.7561462E-02  0.1305506E+00
         -1   -1    0    0    0  501 -0.00000000000E+00  0.00000000000E+00  0.93650659805E+02  0.93650659805E+02  0.00000000000E+00 0.  1.
          1   -1    0    0  501    0  0.00000000000E+00 -0.00000000000E+00 -0.15357454626E+03  0.15357454626E+03  0.00000000000E+00 0. -1.
         25    2    1    2    0    0  0.15089593871E+02 -0.45293221474E+02 -0.34832686817E+02  0.13834494175E+03  0.12508730984E+03 0.  0.
         23    2    1    2    0    0 -0.15089593871E+02  0.45293221474E+02 -0.25091199642E+02  0.10888026432E+03  0.94584205360E+02 0.  0.
          5    1    3    3  502    0  0.11790316974E+02  0.26822639488E+02 -0.55706282188E+02  0.63080328461E+02  0.41800000000E+01 0.  1.
         -5    1    3    3    0  502  0.32992768964E+01 -0.72115860961E+02  0.20873595371E+02  0.75264613292E+02  0.41800000000E+01 0.  1.
        -11    1    4    4    0    0  0.22899037847E+02  0.18340103190E+02  0.26385590869E+02  0.39457885459E+02  0.00000000000E+00 0.  1.
         11    1    4    4    0    0 -0.37988631717E+02  0.26953118283E+02 -0.51476790512E+02  0.69422378858E+02  0.00000000000E+00 0. -1.
</event>
<event>
 8    1  0.6689467E-009  0.1143730E+03  0.7561462E-02  0.1252680E+00
         -3   -1    0    0    0  501 -0.00000000000E+00  0.00000000000E+00  0.70950752018E+02  0.70950752018E+02  0.00000000000E+00 0.  1.
          3   -1    0    0  501    0  0.00000000000E+00 -0.00000000000E+00 -0.22468856009E+03  0.22468856009E+03  0.00000000000E+00 0. -1.
         25    2    1    2    0    0 -0.22291846580E+02 -0.39829442646E+02 -0.31698273375E+02  0.13687724193E+03  0.12508911982E+03 0.  0.
         23    2    1    2    0    0  0.22291846580E+02  0.39829442646E+02 -0.12203953470E+03  0.15876207018E+03  0.90710726887E+02 0.  0.
          5    1    3    3  502    0 -0.66237022732E+02 -0.48818842128E+02 -0.39145025517E+02  0.91216379833E+02  0.41800000000E+01 0. -1.
         -5    1    3    3    0  502  0.43945176152E+02  0.89893994817E+01  0.74467521421E+01  0.45660862098E+02  0.41800000000E+01 0. -1.
        -11    1    4    4    0    0  0.50749000566E+02  0.49849578407E+02 -0.80585215002E+02  0.10749148061E+03  0.00000000000E+00 0.  1.
         11    1    4    4    0    0 -0.28457153986E+02 -0.10020135761E+02 -0.41454319696E+02  0.51270589573E+02  0.00000000000E+00 0. -1.
</event>
<event>
 8    1  0.6689467E-009  0.8524940E+02  0.7561462E-02  0.1314782E+00
         -2   -1    0    0    0  501 -0.00000000000E+00  0.00000000000E+00  0.13736390751E+02  0.13736390751E+02  0.00000000000E+00 0.  1.
          2   -1    0    0  501    0  0.00000000000E+00 -0.00000000000E+00 -0.21629899337E+04  0.21629899337E+04  0.00000000000E+00 0. -1.
         25    2    1    2    0    0 -0.36275170241E+02  0.64161516778E+02 -0.18330817484E+04  0.18388225983E+04  0.12508902174E+03 0.  0.
         23    2    1    2    0    0  0.36275170241E+02 -0.64161516778E+02 -0.31617179448E+03  0.33790372612E+03  0.93710918725E+02 0.  0.
          5    1    3    3  502    0  0.16759696190E+02  0.25902036886E+02 -0.10548285468E+03  0.10998139826E+03  0.41800000000E+01 0.  1.
         -5    1    3    3    0  502 -0.53034866432E+02  0.38259479892E+02 -0.17275988938E+04  0.17288412000E+04  0.41800000000E+01 0.  1.
        -11    1    4    4    0    0  0.70805691470E+01 -0.92681401124E+01  0.35509027138E+01  0.12191873961E+02  0.00000000000E+00 0.  1.
         11    1    4    4    0    0  0.29194601094E+02 -0.54893376666E+02 -0.31972269719E+03  0.32571185216E+03  0.00000000000E+00 0. -1.
</event>
<event>
 8    1  0.6689467E-009  0.1474845E+03  0.7561462E-02  0.1203598E+00
         -2   -1    0    0    0  501 -0.00000000000E+00  0.00000000000E+00  0.24526050824E+02  0.24526050824E+02  0.00000000000E+00 0.  1.
          2   -1    0    0  501    0  0.00000000000E+00 -0.00000000000E+00 -0.11813117719E+04  0.11813117719E+04  0.00000000000E+00 0. -1.
         25    2    1    2    0    0 -0.23597356693E+02  0.11504806030E+03 -0.81925434288E+03  0.83702947226E+03  0.12509103758E+03 0.  0.
         23    2    1    2    0    0  0.23597356693E+02 -0.11504806030E+03 -0.33753137822E+03  0.36880835048E+03  0.91100366002E+02 0.  0.
          5    1    3    3  502    0 -0.62800653077E+02  0.61052368826E+02 -0.63489702214E+03  0.64092356400E+03  0.41800000000E+01 0. -1.
         -5    1    3    3    0  502  0.39203296384E+02  0.53995691470E+02 -0.18435732074E+03  0.19610590826E+03  0.41800000000E+01 0. -1.
        -11    1    4    4    0    0  0.51176330753E+02 -0.60037081663E+02 -0.12736004789E+03  0.14981338325E+03  0.00000000000E+00 0.  1.
         11    1    4    4    0    0 -0.27578974061E+02 -0.55010978634E+02 -0.21017133033E+03  0.21899496723E+03  0.00000000000E+00 0. -1.
</event>
<event>
 8    1  0.6689467E-009  0.1357193E+03  0.7561462E-02  0.1219208E+00
         -4   -1    0    0    0  501 -0.00000000000E+00  0.00000000000E+00  0.29957256207E+02  0.29957256207E+02  0.00000000000E+00 0.  1.
          4   -1    0    0  501    0  0.00000000000E+00 -0.00000000000E+00 -0.75355164111E+03  0.75355164111E+03  0.00000000000E+00 0. -1.
         25    2    1    2    0    0 -0.81986474560E+02  0.43764726228E+02 -0.26714006582E+03  0.30927154004E+03  0.12509171611E+03 0.  0.
         23    2    1    2    0    0  0.81986474560E+02 -0.43764726228E+02 -0.45645431908E+03  0.47423735727E+03  0.88957250155E+02 0.  0.
          5    1    3    3  502    0  0.22068962367E+02  0.33778677289E+02 -0.31193453037E+02  0.51171691898E+02  0.41800000000E+01 0. -1.
         -5    1    3    3    0  502 -0.10405543693E+03  0.99860489390E+01 -0.23594661279E+03  0.25809984815E+03  0.41800000000E+01 0. -1.
        -11    1    4    4    0    0  0.24648451841E+02  0.26084258180E+02 -0.92141810902E+02  0.98884012961E+02  0.00000000000E+00 0. -1.
         11    1    4    4    0    0  0.57338022719E+02 -0.69848984408E+02 -0.36431250818E+03  0.37535334431E+03  0.00000000000E+00 0.  1.
</event>
<event>
 8    1  0.6689467E-009  0.2236746E+03  0.7561462E-02  0.1131173E+00
          1   -1    0    0  501    0  0.00000000000E+00  0.00000000000E+00  0.78049906527E+03  0.78049906527E+03  0.00000000000E+00 0. -1.
         -1   -1    0    0    0  501 -0.00000000000E+00 -0.00000000000E+00 -0.72592709884E+02  0.72592709884E+02  0.00000000000E+00 0.  1.
         25    2    1    2    0    0 -0.19317006809E+03  0.83577673346E+02  0.32474756249E+03  0.40670539726E+03  0.12509355750E+03 0.  0.
         23    2    1    2    0    0  0.19317006809E+03 -0.83577673346E+02  0.38315879290E+03  0.44638637790E+03  0.90278652577E+02 0.  0.
          5    1    3    3  502    0 -0.80928378264E+02 -0.29497027883E+01  0.20729794557E+03  0.22259383143E+03  0.41800000000E+01 0. -1.
         -5    1    3    3    0  502 -0.11224168982E+03  0.86527376134E+02  0.11744961692E+03  0.18411156582E+03  0.41800000000E+01 0. -1.
        -11    1    4    4    0    0  0.16574200187E+03 -0.98950867856E+02  0.29271852736E+03  0.35063630972E+03  0.00000000000E+00 0.  1.
         11    1    4    4    0    0  0.27428066221E+02  0.15373194511E+02  0.90440265536E+02  0.95750068179E+02  0.00000000000E+00 0. -1.
</event>
<event>
 8    1  0.6689467E-009  0.1222886E+03  0.7561462E-02  0.1239369E+00
          2   -1    0    0  501    0  0.00000000000E+00  0.00000000000E+00  0.26577842347E+03  0.26577842347E+03  0.00000000000E+00 0. -1.
         -2   -1    0    0    0  501 -0.00000000000E+00 -0.00000000000E+00 -0.67011185022E+02  0.67011185022E+02  0.00000000000E+00 0.  1.
         25    2    1    2    0    0 -0.30128707277E+01 -0.70130519779E+02  0.65476861129E+02  0.15767422441E+03  0.12508626826E+03 0.  0.
         23    2    1    2    0    0  0.30128707277E+01  0.70130519779E+02  0.13329037732E+03  0.17511538407E+03  0.89284409950E+02 0.  0.
          5    1    3    3  502    0 -0.14889781254E-01 -0.10416922440E+03  0.30557856831E+02  0.10863923116E+03  0.41800000000E+01 0.  1.
         -5    1    3    3    0  502 -0.29979809464E+01  0.34038704620E+02  0.34919004298E+02  0.49034993251E+02  0.41800000000E+01 0.  1.
        -11    1    4    4    0    0  0.27028983210E+02  0.76431468452E+02  0.69927898723E+02  0.10706188081E+03  0.00000000000E+00 0.  1.
         11    1    4    4    0    0 -0.24016112482E+02 -0.63009486728E+01  0.63362478593E+02  0.68053503263E+02  0.00000000000E+00 0. -1.
</event>
<event>
 8    1  0.6689467E-009  0.5837364E+02  0.7561462E-02  0.1404786E+00
         -1   -1    0    0    0  501 -0.00000000000E+00  0.00000000000E+00  0.14270867584E+02  0.14270867584E+02  0.00000000000E+00 0.  1.
          1   -1    0    0  501    0  0.00000000000E+00 -0.00000000000E+00 -0.97757366521E+03  0.97757366521E+03  0.00000000000E+00 0. -1.
         25    2    1    2    0    0  0.40647573944E+02 -0.15179490257E+00 -0.65867868367E+03  0.67168346631E+03  0.12509525282E+03 0.  0.
         23    2    1    2    0    0 -0.40647573944E+02  0.15179490257E+00 -0.30462411395E+03  0.32016106648E+03  0.89749704077E+02 0.  0.
          5    1    3    3  502    0  0.11585053965E+02  0.42588731133E+01 -0.71609979512E+00  0.13051309301E+02  0.41800000000E+01 0. -1.
         -5    1    3    3    0  502  0.29062519979E+02 -0.44106680158E+01 -0.65796258388E+03  0.65863215701E+03  0.41800000000E+01 0. -1.
        -11    1    4    4    0    0  0.16681649823E+02 -0.55853308336E+00 -0.88709961993E+01  0.18901956872E+02  0.00000000000E+00 0.  1.
         11    1    4    4    0    0 -0.57329223768E+02  0.71032798593E+00 -0.29575311775E+03  0.30125910961E+03  0.00000000000E+00 0. -1.
</event>
<event>
 8    1  0.6689467E-009  0.1156858E+03  0.7561462E-02  0.1250389E+00
         -3   -1    0    0    0  501 -0.00000000000E+00  0.00000000000E+00  0.11630406463E+03  0.11630406463E+03  0.00000000000E+00 0.  1.
          3   -1    0    0  501    0  0.00000000000E+00 -0.00000000000E+00 -0.23061137456E+03  0.23061137456E+03  0.00000000000E+00 0. -1.
         25    2    1    2    0    0  0.30426921371E+02  0.63324956053E+02 -0.16526252098E+03  0.21884939793E+03  0.12509000973E+03 0.  0.
         23    2    1    2    0    0 -0.30426921371E+02 -0.63324956053E+02  0.50955211049E+02  0.12806604126E+03  0.94173402765E+02 0.  0.
          5    1    3    3  502    0  0.56560274797E+02 -0.12494348884E+02 -0.41744864116E+02  0.71521182311E+02  0.41800000000E+01 0.  1.
         -5    1    3    3    0  502 -0.26133353426E+02  0.75819304936E+02 -0.12351765686E+03  0.14732821562E+03  0.41800000000E+01 0.  1.
        -11    1    4    4    0    0 -0.32660543821E+02 -0.74632145263E+02  0.60330136042E+01  0.81688833279E+02  0.00000000000E+00 0. -1.
         11    1    4    4    0    0  0.22336224499E+01  0.11307189211E+02  0.44922197445E+02  0.46377207983E+02  0.00000000000E+00 0.  1.
</event>
<event>
 8    1  0.6689467E-009  0.1538239E+03  0.7561462E-02  0.1195851E+00
         -1   -1    0    0    0  501 -0.00000000000E+00  0.00000000000E+00  0.23991960671E+03  0.23991960671E+03  0.00000000000E+00 0.  1.
          1   -1    0    0  501    0  0.00000000000E+00 -0.00000000000E+00 -0.19564636419E+03  0.19564636419E+03  0.00000000000E+00 0. -1.
         25    2    1    2    0    0  0.13443570892E+03  0.71672576807E+02  0.13407299209E+03  0.23839995790E+03  0.12509618148E+03 0.  0.
         23    2    1    2    0    0 -0.13443570892E+03 -0.71672576807E+02 -0.89799749568E+02  0.19716601299E+03  0.87180981616E+02 0.  0.
          5    1    3    3  502    0  0.10800940094E+03  0.67887402250E+02  0.15743689683E+03  0.20267851134E+03  0.41800000000E+01 0.  1.
         -5    1    3    3    0  502  0.26426307981E+02  0.37851745578E+01 -0.23363904740E+02  0.35721446564E+02  0.41800000000E+01 0.  1.
        -11    1    4    4    0    0 -0.24066911043E+02 -0.19153559923E+02  0.16744197382E+02  0.35020611229E+02  0.00000000000E+00 0.  1.
         11    1    4    4    0    0 -0.11036879788E+03 -0.52519016884E+02 -0.10654394695E+03  0.16214540176E+03  0.00000000000E+00 0. -1.
</event>
<event>
 8    1  0.6689467E-009  0.1581571E+03  0.7561462E-02  0.1190793E+00
         -2   -1    0    0    0  501 -0.00000000000E+00  0.00000000000E+00  0.52401628263E+02  0.52401628263E+02  0.00000000000E+00 0.  1.
          2   -1    0    0  501    0  0.00000000000E+00 -0.00000000000E+00 -0.62715320430E+03  0.62715320430E+03  0.00000000000E+00 0. -1.
         25    2    1    2    0    0  0.10756941890E+03  0.79621190836E+02 -0.40567061110E+03  0.44511539143E+03  0.12509337741E+03 0.  0.
         23    2    1    2    0    0 -0.10756941890E+03 -0.79621190836E+02 -0.16908096494E+03  0.23443944113E+03  0.91993287468E+02 0.  0.
          5    1    3    3  502    0  0.38824079097E+02 -0.22201727578E+02 -0.43019874445E+02  0.62196525807E+02  0.41800000000E+01 0. -1.
         -5    1    3    3    0  502  0.68745339805E+02  0.10182291841E+03 -0.36265073665E+03  0.38291886563E+03  0.41800000000E+01 0. -1.
        -11    1    4    4    0    0  0.85853822043E+01 -0.94253043030E+01 -0.57044988603E+02  0.58452338478E+02  0.00000000000E+00 0.  1.
         11    1    4    4    0    0 -0.11615480111E+03 -0.70195886533E+02 -0.11203597634E+03  0.17598710266E+03  0.00000000000E+00 0. -1.
</event>
<event>
 8    1  0.6689467E-009  0.8860169E+02  0.7561462E-02  0.1306274E+00
         -4   -1    0    0    0  501 -0.00000000000E+00  0.00000000000E+00  0.66145797201E+02  0.66145797201E+02  0.00000000000E+00 0.  1.
          4   -1    0    0  501    0  0.00000000000E+00 -0.00000000000E+00 -0.17012583748E+03  0.17012583748E+03  0.00000000000E+00 0. -1.
         25    2    1    2    0    0  0.16460377220E+01  0.41432141822E+01 -0.83326064734E+02  0.15036901321E+03  0.12509089257E+03 0.  0.
         23    2    1    2    0    0 -0.16460377220E+01 -0.41432141822E+01 -0.20653975547E+02  0.85902621478E+02  0.83263425386E+02 0.  0.
          5    1    3    3  502    0  0.36444858929E+02  0.34093067575E+02 -0.90770714493E+02  0.10366947482E+03  0.41800000000E+01 0. -1.
         -5    1    3    3    0  502 -0.34798821207E+02 -0.29949853393E+02  0.74446497597E+01  0.46699538389E+02  0.41800000000E+01 0. -1.
        -11    1    4    4    0    0  0.69034708185E+00  0.38403610299E+02 -0.19959123576E+02  0.43286030969E+02  0.00000000000E+00 0. -1.
         11    1    4    4    0    0 -0.23363848039E+01 -0.42546824481E+02 -0.69485197120E+00  0.42616590509E+02  0.00000000000E+00 0.  1.
</event>
<event>
 8    1  0.6689467E-009  0.1045236E+03  0.7561462E-02  0.1271061E+00
          2   -1    0    0  501    0  0.00000000000E+00  0.00000000000E+00  0.80418876972E+02  0.80418876972E+02  0.00000000000E+00 0. -1.
         -2   -1    0    0    0  501 -0.00000000000E+00 -0.00000000000E+00 -0.17202859012E+03  0.17202859012E+03  0.00000000000E+00 0.  1.
         25    2    1    2    0    0 -0.82953424669E+01  0.41026076557E+02 -0.33208728294E+02  0.13602584272E+03  0.12509299976E+03 0.  0.
         23    2    1    2    0    0  0.82953424669E+01 -0.41026076557E+02 -0.58400984857E+02  0.11642162437E+03  0.91604409967E+02 0.  0.
          5    1    3    3  502    0  0.61384618516E+01  0.78214944808E+02 -0.49360621751E+02  0.92785783851E+02  0.41800000000E+01 0.  1.
         -5    1    3    3    0  502 -0.14433804318E+02 -0.37188868251E+02  0.16151893457E+02  0.43240058870E+02  0.41800000000E+01 0.  1.
        -11    1    4    4    0    0 -0.10141993815E+02  0.22255622074E+02 -0.41833647794E+02  0.48458506376E+02  0.00000000000E+00 0.  1.
         11    1    4    4    0    0  0.18437336282E+02 -0.63281698631E+02 -0.16567337063E+02  0.67963117999E+02  0.00000000000E+00 0. -1.
</event>
<event>
 8    1  0.6689467E-009  0.1325142E+03  0.7561462E-02  0.1223772E+00
          2   -1    0    0  501    0  0.00000000000E+00  0.00000000000E+00  0.50165803085E+03  0.50165803085E+03  0.00000000000E+00 0. -1.
         -2   -1    0    0    0  501 -0.00000000000E+00 -0.00000000000E+00 -0.59220840998E+02  0.59220840998E+02  0.00000000000E+00 0.  1.
         25    2    1    2    0    0 -0.89795942534E+02  0.65658238545E+02  0.11076468765E+03  0.20074021464E+03  0.12511395669E+03 0.  0.
         23    2    1    2    0    0  0.89795942534E+02 -0.65658238545E+02  0.33167250221E+03  0.36013865722E+03  0.85550500387E+02 0.  0.
          5    1    3    3  502    0  0.59204717671E+01  0.14942989374E+02 -0.23123508344E+02  0.28469526788E+02  0.41800000000E+01 0. -1.
         -5    1    3    3    0  502 -0.95716414302E+02  0.50715249171E+02  0.13388819599E+03  0.17227068785E+03  0.41800000000E+01 0. -1.
        -11    1    4    4    0    0  0.78540572873E+02 -0.86187510883E+02  0.26671265539E+03  0.29108855897E+03  0.00000000000E+00 0.  1.
         11    1    4    4    0    0  0.11255369661E+02  0.20529272338E+02  0.64959846815E+02  0.69050098242E+02  0.00000000000E+00 0. -1.
</event>
<event>
 8    1  0.6689467E-009  0.1088378E+03  0.7561462E-02  0.1262737E+00
          1   -1    0    0  501    0  0.00000000000E+00  0.00000000000E+00  0.17107488662E+03  0.17107488662E+03  0.00000000000E+00 0. -1.
         -1   -1    0    0    0  501 -0.00000000000E+00 -0.00000000000E+00 -0.81588768606E+02  0.81588768606E+02  0.00000000000E+00 0.  1.
         25    2    1    2    0    0  0.23270855751E+01 -0.45004112965E+02  0.70491696956E+02  0.15048347301E+03  0.12508161655E+03 0.  0.
         23    2    1    2    0    0 -0.23270855751E+01  0.45004112965E+02  0.18994421059E+02  0.10218018222E+03  0.89717423589E+02 0.  0.
          5    1    3    3  502    0  0.51955405042E+02 -0.26205642067E+01  0.67088774715E+02  0.84997691513E+02  0.41800000000E+01 0. -1.
         -5    1    3    3    0  502 -0.49628319467E+02 -0.42383548759E+02  0.34029222409E+01  0.65485781497E+02  0.41800000000E+01 0. -1.
        -11    1    4    4    0    0 -0.45301209397E+02  0.30993296452E+02  0.14403567535E+02  0.56747218042E+02  0.00000000000E+00 0. -1.
         11    1    4    4    0    0  0.42974123822E+02  0.14010816513E+02  0.45908535241E+01  0.45432964175E+02  0.00000000000E+00 0.  1.
</event>
<event>
 8    1  0.6689467E-009  0.1850829E+03  0.7561462E-02  0.1162972E+00
          4   -1    0    0  501    0  0.00000000000E+00  0.00000000000E+00  0.96624138634E+03  0.96624138634E+03  0.00000000000E+00 0.  1.
         -4   -1    0    0    0  501 -0.00000000000E+00 -0.00000000000E+00 -0.49082969381E+02  0.49082969381E+02  0.00000000000E+00 0. -1.
         25    2    1    2    0    0 -0.92331861314E+02  0.12495537649E+03  0.72399105962E+03  0.75096577327E+03  0.12509004549E+03 0.  0.
         23    2    1    2    0    0  0.92331861314E+02 -0.12495537649E+03  0.19316735734E+03  0.26435858246E+03  0.91830351454E+02 0.  0.
          5    1    3    3  502    0 -0.66581115317E+02 -0.50169935130E+01  0.24352578153E+03  0.25254800299E+03  0.41800000000E+01 0.  1.
         -5    1    3    3    0  502 -0.25750745997E+02  0.12997237001E+03  0.48046527809E+03  0.49841777028E+03  0.41800000000E+01 0.  1.
        -11    1    4    4    0    0  0.38282580265E+02 -0.10716679666E+03  0.16610826247E+03  0.20135101966E+03  0.00000000000E+00 0.  1.
         11    1    4    4    0    0  0.54049281049E+02 -0.17788579839E+02  0.27059094873E+02  0.63007562800E+02  0.00000000000E+00 0. -1.
</event>
<event>
 8    1  0.6689467E-009  0.9738344E+02  0.7561462E-02  0.1285896E+00
         -2   -1    0    0    0  501 -0.00000000000E+00  0.00000000000E+00  0.15320087851E+02  0.15320087851E+02  0.00000000000E+00 0. -1.
          2   -1    0    0  501    0  0.00000000000E+00 -0.00000000000E+00 -0.84780484701E+03  0.84780484701E+03  0.00000000000E+00 0.  1.
         25    2    1    2    0    0  0.21214983002E+02  0.28527491731E+02 -0.49992022705E+03  0.51655766282E+03  0.12509073635E+03 0.  0.
         23    2    1    2    0    0 -0.21214983002E+02 -0.28527491731E+02 -0.33256453211E+03  0.34656727204E+03  0.90806457593E+02 0.  0.
          5    1    3    3  502    0 -0.36280941378E+02 -0.36833848729E+01 -0.35967428436E+03  0.36154244185E+03  0.41800000000E+01 0. -1.
         -5    1    3    3    0  502  0.57495924380E+02  0.32210876604E+02 -0.14024594269E+03  0.15501522097E+03  0.41800000000E+01 0. -1.
        -11    1    4    4    0    0 -0.36078337843E+02 -0.52569470399E+02 -0.27680029069E+03  0.28404858142E+03  0.00000000000E+00 0. -1.
         11    1    4    4    0    0  0.14863354841E+02  0.24041978668E+02 -0.55764241420E+02  0.62518690618E+02  0.00000000000E+00 0.  1.
</event>
<event>
 8    1  0.6689467E-009  0.1950709E+03  0.7561462E-02  0.1153966E+00
          1   -1    0    0  501    0  0.00000000000E+00  0.00000000000E+00  0.61573237214E+03  0.61573237214E+03  0.00000000000E+00 0. -1.
         -1   -1    0    0    0  501 -0.00000000000E+00 -0.00000000000E+00 -0.77038997831E+02  0.77038997831E+02  0.00000000000E+00 0.  1.
         25    2    1    2    0    0 -0.10302873325E+03 -0.15234438082E+03  0.34009388737E+03  0.40636875661E+03  0.12509190176E+03 0.  0.
         23    2    1    2    0    0  0.10302873325E+03  0.15234438082E+03  0.19859948694E+03  0.28640261335E+03  0.93600055991E+02 0.  0.
          5    1    3    3  502    0 -0.12425187051E+02 -0.92308567072E+02  0.24409275813E+03  0.26129294632E+03  0.41800000000E+01 0. -1.
         -5    1    3    3    0  502 -0.90603546202E+02 -0.60035813744E+02  0.96001129239E+02  0.14507581029E+03  0.41800000000E+01 0. -1.
        -11    1    4    4    0    0  0.88193317695E+02  0.98164960448E+02  0.77823418711E+02  0.15320217115E+03  0.00000000000E+00 0.  1.
         11    1    4    4    0    0  0.14835415558E+02  0.54179420368E+02  0.12077606823E+03  0.13320044220E+03  0.00000000000E+00 0. -1.
</event>
<event>
 8    1  0.6689467E-009  0.8782269E+02  0.7561462E-02  0.1308212E+00
          2   -1    0    0  501    0  0.00000000000E+00  0.00000000000E+00  0.41657149588E+03  0.41657149588E+03  0.00000000000E+00 0. -1.
         -2   -1    0    0    0  501 -0.00000000000E+00 -0.00000000000E+00 -0.36199724065E+02  0.36199724065E+02  0.00000000000E+00 0.  1.
         25    2    1    2    0    0 -0.19207598625E+02  0.31668138648E+02  0.29498225444E+03  0.32253924136E+03  0.12508088956E+03 0.  0.
         23    2    1    2    0    0  0.19207598625E+02 -0.31668138648E+02  0.85389517373E+02  0.13023197858E+03  0.91088943992E+02 0.  0.
          5    1    3    3  502    0  0.19674434595E+02  0.57796207091E+02  0.25027945785E+03  0.25765240995E+03  0.41800000000E+01 0. -1.
         -5    1    3    3    0  502 -0.38882033219E+02 -0.26128068443E+02  0.44702796589E+02  0.64886831412E+02  0.41800000000E+01 0. -1.
        -11    1    4    4    0    0  0.11524307449E+02  0.15674896775E+02 -0.11157630928E+02  0.22427768035E+02  0.00000000000E+00 0.  1.
         11    1    4    4    0    0  0.76832911757E+01 -0.47343035423E+02  0.96547148301E+02  0.10780421055E+03  0.00000000000E+00 0. -1.
</event>
<event>
 8    1  0.6689467E-009  0.6535295E+02  0.7561462E-02  0.1376649E+00
         -1   -1    0    0    0  501 -0.00000000000E+00  0.00000000000E+00  0.60785303839E+02  0.60785303839E+02  0.00000000000E+00 0.  1.
          1   -1    0    0  501    0  0.00000000000E+00 -0.00000000000E+00 -0.22115368430E+03  0.22115368430E+03  0.00000000000E+00 0. -1.
         25    2    1    2    0    0  0.27590427250E+02 -0.25028326294E+02 -0.11445400936E+03  0.17359318126E+03  0.12508886253E+03 0.  0.
         23    2    1    2    0    0 -0.27590427250E+02  0.25028326294E+02 -0.45914371097E+02  0.10834580687E+03  0.90791164772E+02 0.  0.
          5    1    3    3  502    0 -0.17850863331E+02  0.63561263744E+01  0.20190323129E+02  0.28003128614E+02  0.41800000000E+01 0. -1.
         -5    1    3    3    0  502  0.45441290580E+02 -0.31384452668E+02 -0.13464433249E+03  0.14559005265E+03  0.41800000000E+01 0. -1.
        -11    1    4    4    0    0 -0.35215745044E+02  0.64044918809E+01 -0.68993082719E+02  0.77725231929E+02  0.00000000000E+00 0. -1.
         11    1    4    4    0    0  0.76253177947E+01  0.18623834413E+02  0.23078711623E+02  0.30620574943E+02  0.00000000000E+00 0.  1.
</event>
<event>
 8    1  0.6689467E-009  0.1286783E+03  0.7561462E-02  0.1229430E+00
         -2   -1    0    0    0  501 -0.00000000000E+00  0.00000000000E+00  0.56991130481E+03  0.56991130481E+03  0.00000000000E+00 0.  1.
          2   -1    0    0  501    0  0.00000000000E+00 -0.00000000000E+00 -0.43390953410E+02  0.43390953410E+02  0.00000000000E+00 0. -1.
         25    2    1    2    0    0 -0.60332824803E+02 -0.49679767600E+02  0.12275885507E+03  0.19189676328E+03  0.12508597924E+03 0.  0.
         23    2    1    2    0    0  0.60332824803E+02  0.49679767600E+02  0.40376149634E+03  0.42140549494E+03  0.91929952607E+02 0.  0.
          5    1    3    3  502    0 -0.36044536822E+02 -0.88284051515E+02  0.10717561117E+03  0.14351782613E+03  0.41800000000E+01 0. -1.
         -5    1    3    3    0  502 -0.24288287981E+02  0.38604283915E+02  0.15583243896E+02  0.48378937152E+02  0.41800000000E+01 0. -1.
        -11    1    4    4    0    0  0.62492469712E+02  0.71052455656E+02  0.36524980043E+03  0.37730780132E+03  0.00000000000E+00 0.  1.
         11    1    4    4    0    0 -0.21596449089E+01 -0.21372688057E+02  0.38511695906E+02  0.44097693619E+02  0.00000000000E+00 0. -1.
</event>
<event>
 8    1  0.6689467E-009  0.1318180E+03  0.7561462E-02  0.1224783E+00
          2   -1    0    0  501    0  0.00000000000E+00  0.00000000000E+00  0.14352390566E+04  0.14352390566E+04  0.00000000000E+00 0.  1.
         -2   -1    0    0    0  501 -0.00000000000E+00 -0.00000000000E+00 -0.16912821644E+02  0.16912821644E+02  0.00000000000E+00 0. -1.
         25    2    1    2    0    0 -0.10874330810E+03 -0.25870068595E+02  0.77923293327E+03  0.79708580709E+03  0.12508977601E+03 0.  0.
         23    2    1    2    0    0  0.10874330810E+03  0.25870068595E+02  0.63909330164E+03  0.65506607111E+03  0.90426444203E+02 0.  0.
          5    1    3    3  502    0 -0.10916216038E+03 -0.19320568826E+01  0.75464551080E+03  0.76251388806E+03  0.41800000000E+01 0. -1.
         -5    1    3    3    0  502  0.41885227802E+00 -0.23938011713E+02  0.24587422467E+02  0.34571919032E+02  0.41800000000E+01 0. -1.
        -11    1    4    4    0    0  0.99903075084E+02 -0.29307031138E+01  0.58192239096E+03  0.59044295451E+03  0.00000000000E+00 0.  1.
         11    1    4    4    0    0  0.88402330208E+01  0.28800771709E+02  0.57170910685E+02  0.64623116603E+02  0.00000000000E+00 0. -1.
</event>
<event>
 8    1  0.6689467E-009  0.1290884E+03  0.7561462E-02  0.1228815E+00
         -4   -1    0    0    0  501 -0.00000000000E+00  0.00000000000E+00  0.69400421612E+03  0.69400421612E+03  0.00000000000E+00 0.  1.
          4   -1    0    0  501    0  0.00000000000E+00 -0.00000000000E+00 -0.33987329793E+02  0.33987329793E+02  0.00000000000E+00 0. -1.
         25    2    1    2    0    0  0.15771137082E+02  0.69114742050E+02  0.54957078176E+03  0.56806739811E+03  0.12508776239E+03 0.  0.
         23    2    1    2    0    0 -0.15771137082E+02 -0.69114742050E+02  0.11044610456E+03  0.15992414780E+03  0.91388263484E+02 0.  0.
          5    1    3    3  502    0 -0.11316788800E+02 -0.33935912541E+02  0.17183866273E+03  0.17557253281E+03  0.41800000000E+01 0.  1.
         -5    1    3    3    0  502  0.27087925882E+02  0.10305065459E+03  0.37773211904E+03  0.39249486531E+03  0.41800000000E+01 0.  1.
        -11    1    4    4    0    0  0.20959806669E+02  0.13626041658E+02  0.20805469832E+02  0.32524607327E+02  0.00000000000E+00 0.  1.
         11    1    4    4    0    0 -0.36730943751E+02 -0.82740783707E+02  0.89640634732E+02  0.12739954047E+03  0.00000000000E+00 0. -1.
</event>
<event>
 8    1  0.6689467E-009  0.2986672E+03  0.7561462E-02  0.1085909E+00
          2   -1    0    0  501    0  0.00000000000E+00  0.00000000000E+00  0.27914973429E+04  0.27914973429E+04  0.00000000000E+00 0.  1.
         -2   -1    0    0    0  501 -0.00000000000E+00 -0.00000000000E+00 -0.51317735917E+02  0.51317735917E+02  0.00000000000E+00 0. -1.
         25    2    1    2    0    0  0.12899799121E+03  0.24777543510E+03  0.22517720970E+04  0.22724782829E+04  0.12508725409E+03 0.  0.
         23    2    1    2    0    0 -0.12899799121E+03 -0.24777543510E+03  0.48840750999E+03  0.57033679599E+03  0.93322114603E+02 0.  0.
          5    1    3    3  502    0  0.15235927962E+03  0.22327240169E+03  0.20645598922E+04  0.20821836942E+04  0.41800000000E+01 0. -1.
         -5    1    3    3    0  502 -0.23361288410E+02  0.24503033412E+02  0.18721220484E+03  0.19029458868E+03  0.41800000000E+01 0. -1.
        -11    1    4    4    0    0  0.11947698284E+02 -0.40534710847E+02  0.93586694105E+02  0.10268534263E+03  0.00000000000E+00 0. -1.
         11    1    4    4    0    0 -0.14094568949E+03 -0.20724072425E+03  0.39482081588E+03  0.46765145336E+03  0.00000000000E+00 0.  1.
</event>
<event>
 8    1  0.6689467E-009  0.1234725E+03  0.7561462E-02  0.1237476E+00
         -2   -1    0    0    0  501 -0.00000000000E+00  0.00000000000E+00  0.32303457999E+02  0.32303457999E+02  0.00000000000E+00 0.  1.
          2   -1    0    0  501    0  0.00000000000E+00 -0.00000000000E+00 -0.66660331808E+03  0.66660331808E+03  0.00000000000E+00 0. -1.
         25    2    1    2    0    0 -0.31678310725E+02  0.84846500542E+02 -0.25225451077E+03  0.29576893066E+03  0.12507788819E+03 0.  0.
         23    2    1    2    0    0  0.31678310725E+02 -0.84846500542E+02 -0.38204534932E+03  0.40313784542E+03  0.91427728041E+02 0.  0.
          5    1    3    3  502    0  0.18989500604E+02 -0.44949153987E+01 -0.14807335923E+03  0.14941217324E+03  0.41800000000E+01 0.  1.
         -5    1    3    3    0  502 -0.50667811330E+02  0.89341415940E+02 -0.10418115154E+03  0.14635675742E+03  0.41800000000E+01 0.  1.
        -11    1    4    4    0    0  0.44460787296E+02 -0.66445967057E+01 -0.90998334636E+02  0.10149684320E+03  0.00000000000E+00 0.  1.
         11    1    4    4    0    0 -0.12782476570E+02 -0.78201903836E+02 -0.29104701468E+03  0.30164100223E+03  0.00000000000E+00 0. -1.
</event>
<event>
 8    1  0.6689467E-009  0.7970720E+02  0.7561462E-02  0.1329884E+00
         -2   -1    0    0    0  501 -0.00000000000E+00  0.00000000000E+00  0.26966469036E+03  0.26966469036E+03  0.00000000000E+00 0.  1.
          2   -1    0    0  501    0  0.00000000000E+00 -0.00000000000E+00 -0.51649298128E+02  0.51649298128E+02  0.00000000000E+00 0. -1.
         25    2    1    2    0    0 -0.84902383833E+00 -0.38668829541E+02  0.15725317740E+03  0.20462752796E+03  0.12509142328E+03 0.  0.
         23    2    1    2    0    0  0.84902383833E+00  0.38668829541E+02  0.60762214830E+02  0.11668646052E+03  0.91802418807E+02 0.  0.
          5    1    3    3  502    0  0.23784344399E+02 -0.25325380388E+02  0.17000143677E+03  0.17356563840E+03  0.41800000000E+01 0.  1.
         -5    1    3    3    0  502 -0.24633368237E+02 -0.13343449153E+02 -0.12748259370E+02  0.31061889559E+02  0.41800000000E+01 0.  1.
        -11    1    4    4    0    0 -0.34855385521E+02  0.47879004966E+02  0.21971425678E+02  0.63166767866E+02  0.00000000000E+00 0.  1.
         11    1    4    4    0    0  0.35704409359E+02 -0.92101754250E+01  0.38790789152E+02  0.53519692657E+02  0.00000000000E+00 0. -1.
</event>
<event>
 8    1  0.6689467E-009  0.7881362E+02  0.7561462E-02  0.1332452E+00
          2   -1    0    0  501    0  0.00000000000E+00  0.00000000000E+00  0.23839451780E+03  0.23839451780E+03  0.00000000000E+00 0. -1.
         -2   -1    0    0    0  501 -0.00000000000E+00 -0.00000000000E+00 -0.65391994021E+02  0.65391994021E+02  0.00000000000E+00 0.  1.
         25    2    1    2    0    0  0.34087070117E+02 -0.39840273425E+02  0.13600337129E+03  0.19207742103E+03  0.12509053894E+03 0.  0.
         23    2    1    2    0    0 -0.34087070117E+02  0.39840273425E+02  0.36999152482E+02  0.11170909079E+03  0.91437453726E+02 0.  0.
          5    1    3    3  502    0  0.26631063934E+02 -0.69372336370E+02  0.14239836487E+03  0.16067514225E+03  0.41800000000E+01 0.  1.
         -5    1    3    3    0  502  0.74560061828E+01  0.29532062945E+02 -0.63949935742E+01  0.31402278784E+02  0.41800000000E+01 0.  1.
        -11    1    4    4    0    0 -0.70438218939E+01  0.92584627646E+01  0.62501108867E+02  0.63574548124E+02  0.00000000000E+00 0. -1.
         11    1    4    4    0    0 -0.27043248223E+02  0.30581810661E+02 -0.25501956385E+02  0.48134542661E+02  0.00000000000E+00 0.  1.
</event>
<event>
 8    1  0.6689467E-009  0.1223863E+03  0.7561462E-02  0.1239212E+00
         -2   -1    0    0    0  501 -0.00000000000E+00  0.00000000000E+00  0.18696532671E+02  0.18696532671E+02  0.00000000000E+00 0.  1.
          2   -1    0    0  501    0  0.00000000000E+00 -0.00000000000E+00 -0.16068347475E+04  0.16068347475E+04  0.00000000000E+00 0. -1.
         25    2    1    2    0    0 -0.32953781337E+02 -0.93528197337E+02 -0.12536623529E+04  0.12637834367E+04  0.12508319053E+03 0.  0.
         23    2    1    2    0    0  0.32953781337E+02  0.93528197337E+02 -0.33447586195E+03  0.36174784343E+03  0.95676144349E+02 0.  0.
          5    1    3    3  502    0 -0.43105412802E+02 -0.78011619002E+02 -0.12308945581E+04  0.12341242948E+04  0.41800000000E+01 0. -1.
         -5    1    3    3    0  502  0.10151631465E+02 -0.15516578335E+02 -0.22767794748E+02  0.29659141969E+02  0.41800000000E+01 0. -1.
        -11    1    4    4    0    0  0.50881832617E+02  0.10963390497E+02 -0.15191062264E+03  0.16058017964E+03  0.00000000000E+00 0.  1.
         11    1    4    4    0    0 -0.17928051280E+02  0.82564806840E+02 -0.18256523931E+03  0.20116766379E+03  0.00000000000E+00 0. -1.
</event>
<event>
 8    1  0.6689467E-009  0.6976882E+02  0.7561462E-02  0.1360881E+00
          2   -1    0    0  501    0  0.00000000000E+00  0.00000000000E+00  0.53855829889E+03  0.53855829889E+03  0.00000000000E+00 0. -1.
         -2   -1    0    0    0  501 -0.00000000000E+00 -0.00000000000E+00 -0.34988469345E+02  0.34988469345E+02  0.00000000000E+00 0.  1.
         25    2    1    2    0    0 -0.32980890779E+02  0.40884747925E+02  0.41534082550E+03  0.43693643939E+03  0.12508456729E+03 0.  0.
         23    2    1    2    0    0  0.32980890779E+02 -0.40884747925E+02  0.88229004044E+02  0.13661032884E+03  0.90103956747E+02 0.  0.
          5    1    3    3  502    0  0.90956443548E+00  0.16334509481E+02  0.38428623719E+03  0.38465702645E+03  0.41800000000E+01 0. -1.
         -5    1    3    3    0  502 -0.33890455215E+02  0.24550238444E+02  0.31054588311E+02  0.52279412941E+02  0.41800000000E+01 0. -1.
        -11    1    4    4    0    0  0.51213541102E+02 -0.29557200701E+02  0.96853867327E+02  0.11347742737E+03  0.00000000000E+00 0. -1.
         11    1    4    4    0    0 -0.18232650323E+02 -0.11327547224E+02 -0.86248632829E+01  0.23132901473E+02  0.00000000000E+00 0.  1.
</event>
<event>
 8    1  0.6689467E-009  0.1357193E+03  0.7561462E-02  0.1219208E+00
          1   -1    0    0  501    0  0.00000000000E+00  0.00000000000E+00  0.30175589008E+02  0.30175589008E+02  0.00000000000E+00 0. -1.
         -1   -1    0    0    0  501 -0.00000000000E+00 -0.00000000000E+00 -0.13250183958E+04  0.13250183958E+04  0.00000000000E+00 0.  1.
         25    2    1    2    0    0  0.10171121802E+03 -0.16939593763E+02 -0.11301963507E+04  0.11417640909E+04  0.12509726777E+03 0.  0.
         23    2    1    2    0    0 -0.10171121802E+03  0.16939593763E+02 -0.16464645606E+03  0.21342989389E+03  0.88384061933E+02 0.  0.
          5    1    3    3  502    0 -0.22641627809E+02  0.29286695572E+01 -0.40793479022E+03  0.40859452503E+03  0.41800000000E+01 0. -1.
         -5    1    3    3    0  502  0.12435284583E+03 -0.19868263320E+02 -0.72226156051E+03  0.73316956589E+03  0.41800000000E+01 0. -1.
        -11    1    4    4    0    0 -0.36538586243E+01 -0.17822104527E+02  0.55229547356E+00  0.18201184657E+02  0.00000000000E+00 0. -1.
         11    1    4    4    0    0 -0.98057359393E+02  0.34761698290E+02 -0.16519875154E+03  0.19522870923E+03  0.00000000000E+00 0.  1.
</event>
<event>
 8    1  0.6689467E-009  0.8740446E+02  0.7561462E-02  0.1309262E+00
         -3   -1    0    0    0  501 -0.00000000000E+00  0.00000000000E+00  0.19211236206E+03  0.19211236206E+03  0.00000000000E+00 0.  1.
          3   -1    0    0  501    0  0.00000000000E+00 -0.00000000000E+00 -0.71485824953E+02  0.71485824953E+02  0.00000000000E+00 0. -1.
         25    2    1    2    0    0 -0.19887907358E+01  0.43687767711E+02  0.56598411281E+02  0.14409524054E+03  0.12508989508E+03 0.  0.
         23    2    1    2    0    0  0.19887907358E+01 -0.43687767711E+02  0.64028125822E+02  0.11950294646E+03  0.90932815755E+02 0.  0.
          5    1    3    3  502    0 -0.39280604646E+02  0.60268694636E+01 -0.24684884981E+02  0.46969192067E+02  0.41800000000E+01 0. -1.
         -5    1    3    3    0  502  0.37291813911E+02  0.37660898247E+02  0.81283296262E+02  0.97126048477E+02  0.41800000000E+01 0. -1.
        -11    1    4    4    0    0  0.21777757880E+02  0.10368482781E+02  0.56519098920E+02  0.61450668965E+02  0.00000000000E+00 0. -1.
         11    1    4    4    0    0 -0.19788967145E+02 -0.54056250492E+02  0.75090269020E+01  0.58052277500E+02  0.00000000000E+00 0.  1.
</event>
<event>
 8    1  0.6689467E-009  0.1067506E+03  0.7561462E-02  0.1266708E+00
          1   -1    0    0  501    0  0.00000000000E+00  0.00000000000E+00  0.19175419182E+03  0.19175419182E+03  0.00000000000E+00 0.  1.
         -1   -1    0    0    0  501 -0.00000000000E+00 -0.00000000000E+00 -0.96785366124E+02  0.96785366124E+02  0.00000000000E+00 0. -1.
         25    2    1    2    0    0 -0.57914898744E+02 -0.68197486876E+02  0.67807579645E+02  0.16807799957E+03  0.12508922164E+03 0.  0.
         23    2    1    2    0    0  0.57914898744E+02  0.68197486876E+02  0.27161246047E+02  0.12046155837E+03  0.75948805420E+02 0.  0.
          5    1    3    3  502    0 -0.19304399321E+02 -0.57513328760E+02  0.99645636489E+02  0.11673546200E+03  0.41800000000E+01 0. -1.
         -5    1    3    3    0  502 -0.38610499423E+02 -0.10684158116E+02 -0.31838056844E+02  0.51342537568E+02  0.41800000000E+01 0. -1.
        -11    1    4    4    0    0 -0.13870125946E+02  0.71635675639E+00 -0.77882187120E+01  0.15923250657E+02  0.00000000000E+00 0. -1.
         11    1    4    4    0    0  0.71785024691E+02  0.67481130120E+02  0.34949464759E+02  0.10453830771E+03  0.00000000000E+00 0.  1.
</event>
<event>
 8    1  0.6689467E-009  0.9698972E+02  0.7561462E-02  0.1286757E+00
          1   -1    0    0  501    0  0.00000000000E+00  0.00000000000E+00  0.48322335127E+03  0.48322335127E+03  0.00000000000E+00 0. -1.
         -1   -1    0    0    0  501 -0.00000000000E+00 -0.00000000000E+00 -0.27675685409E+02  0.27675685409E+02  0.00000000000E+00 0.  1.
         25    2    1    2    0    0  0.41525504069E+00  0.39275318393E+02  0.24019154029E+03  0.27363022091E+03  0.12505518261E+03 0.  0.
         23    2    1    2    0    0 -0.41525504069E+00 -0.39275318393E+02  0.21535612557E+03  0.23726881577E+03  0.91517796326E+02 0.  0.
          5    1    3    3  502    0 -0.50298836253E+02  0.38126528824E+02  0.19689932763E+03  0.20681011278E+03  0.41800000000E+01 0. -1.
         -5    1    3    3    0  502  0.50714091293E+02  0.11487895691E+01  0.43292212667E+02  0.66820108132E+02  0.41800000000E+01 0. -1.
        -11    1    4    4    0    0  0.32443327269E+02 -0.58718700880E+01  0.25401926529E+02  0.41620982857E+02  0.00000000000E+00 0.  1.
         11    1    4    4    0    0 -0.32858582309E+02 -0.33403448305E+02  0.18995419904E+03  0.19564783291E+03  0.00000000000E+00 0. -1.
</event>
<event>
 8    1  0.6689467E-009  0.1218549E+03  0.7561462E-02  0.1240068E+00
          2   -1    0    0  501    0  0.00000000000E+00  0.00000000000E+00  0.22384968635E+03  0.22384968635E+03  0.00000000000E+00 0. -1.
         -2   -1    0    0    0  501 -0.00000000000E+00 -0.00000000000E+00 -0.84099786973E+02  0.84099786973E+02  0.00000000000E+00 0.  1.
         25    2    1    2    0    0 -0.42946937031E+02  0.51285749188E+02  0.19505374437E+02  0.14318831352E+03  0.12509103096E+03 0.  0.
         23    2    1    2    0    0  0.42946937031E+02 -0.51285749188E+02  0.12024452494E+03  0.16476115980E+03  0.90624646377E+02 0.  0.
          5    1    3    3  502    0 -0.84768638631E+02  0.21881512334E+02 -0.17493533751E+01  0.87664447267E+02  0.41800000000E+01 0.  1.
         -5    1    3    3    0  502  0.41821701600E+02  0.29404236854E+02  0.21254727812E+02  0.55523866256E+02  0.41800000000E+01 0.  1.
        -11    1    4    4    0    0  0.50185070765E+02  0.27398481401E+01  0.27780808676E+02  0.57426661284E+02  0.00000000000E+00 0.  1.
         11    1    4    4    0    0 -0.72381337338E+01 -0.54025597328E+02  0.92463716268E+02  0.10733449852E+03  0.00000000000E+00 0. -1.
</event>
<event>
 8    1  0.6689467E-009  0.1600020E+03  0.7561462E-02  0.1188695E+00
          1   -1    0    0  501    0  0.00000000000E+00  0.00000000000E+00  0.27394826982E+03  0.27394826982E+03  0.00000000000E+00 0. -1.
         -1   -1    0    0    0  501 -0.00000000000E+00 -0.00000000000E+00 -0.24427012295E+03  0.24427012295E+03  0.00000000000E+00 0.  1.
         25    2    1    2    0    0 -0.12136766653E+03  0.14197431601E+02  0.21567300127E+03  0.27765640977E+03  0.12508621373E+03 0.  0.
         23    2    1    2    0    0  0.12136766653E+03 -0.14197431601E+02 -0.18599485439E+03  0.24056198300E+03  0.91347163422E+02 0.  0.
          5    1    3    3  502    0  0.15890096050E+02 -0.22276347619E+02  0.14165352651E+02  0.31094379418E+02  0.41800000000E+01 0. -1.
         -5    1    3    3    0  502 -0.13725776258E+03  0.36473779219E+02  0.20150764862E+03  0.24656203035E+03  0.41800000000E+01 0. -1.
        -11    1    4    4    0    0  0.45004364056E+01  0.26203651873E+02 -0.18596139900E+02  0.32445365131E+02  0.00000000000E+00 0.  1.
         11    1    4    4    0    0  0.11686723012E+03 -0.40401083474E+02 -0.16739871449E+03  0.20811661787E+03  0.00000000000E+00 0. -1.
</event>
<event>
 8    1  0.6689467E-009  0.1434827E+03  0.7561462E-02  0.1208718E+00
         -2   -1    0    0    0  501 -0.00000000000E+00  0.00000000000E+00  0.23784995022E+02  0.23784995022E+02  0.00000000000E+00 0.  1.
          2   -1    0    0  501    0  0.00000000000E+00 -0.00000000000E+00 -0.97800050309E+03  0.97800050309E+03  0.00000000000E+00 0. -1.
         25    2    1    2    0    0 -0.30573468190E+02 -0.10144697636E+03 -0.47345183034E+03  0.50102973710E+03  0.12509170971E+03 0.  0.
         23    2    1    2    0    0  0.30573468190E+02  0.10144697636E+03 -0.48076367773E+03  0.50075576101E+03  0.91631830674E+02 0.  0.
          5    1    3    3  502    0 -0.17285981913E+02  0.19013362731E+02 -0.20267142481E+03  0.20433671223E+03  0.41800000000E+01 0. -1.
         -5    1    3    3    0  502 -0.13287486277E+02 -0.12046033909E+03 -0.27078040553E+03  0.29669302487E+03  0.41800000000E+01 0. -1.
        -11    1    4    4    0    0  0.51148011045E+02  0.18791972606E+02 -0.20661559629E+03  0.21368027962E+03  0.00000000000E+00 0.  1.
         11    1    4    4    0    0 -0.20574542855E+02  0.82655003753E+02 -0.27414808144E+03  0.28707548139E+03  0.00000000000E+00 0. -1.
</event>
<event>
 8    1  0.6689467E-009  0.6924751E+02  0.7561462E-02  0.1362671E+00
         -1   -1    0    0    0  501 -0.00000000000E+00  0.00000000000E+00  0.42493914146E+02  0.42493914146E+02  0.00000000000E+00 0.  1.
          1   -1    0    0  501    0  0.00000000000E+00 -0.00000000000E+00 -0.31627137551E+03  0.31627137551E+03  0.00000000000E+00 0. -1.
         25    2    1    2    0    0  0.11939548770E+02 -0.26049051168E+02 -0.20096953365E+03  0.23844818361E+03  0.12509067481E+03 0.  0.
         23    2    1    2    0    0 -0.11939548770E+02  0.26049051168E+02 -0.72807927723E+02  0.12031710605E+03  0.91400797461E+02 0.  0.
          5    1    3    3  502    0 -0.21792166957E+02 -0.10940027422E+02 -0.19970351583E+03  0.20123009063E+03  0.41800000000E+01 0. -1.
         -5    1    3    3    0  502  0.33731715727E+02 -0.15109023746E+02 -0.12660178196E+01  0.37218092986E+02  0.41800000000E+01 0. -1.
        -11    1    4    4    0    0  0.20580399704E+02  0.36921026201E+02 -0.74857000413E+02  0.85966769967E+02  0.00000000000E+00 0. -1.
         11    1    4    4    0    0 -0.32519948474E+02 -0.10871975033E+02  0.20490726899E+01  0.34350336080E+02  0.00000000000E+00 0.  1.
</event>
<event>
 8    1  0.6689467E-009  0.7740105E+02  0.7561462E-02  0.1336593E+00
         -2   -1    0    0    0  501 -0.00000000000E+00  0.00000000000E+00  0.80993793193E+01  0.80993793193E+01  0.00000000000E+00 0.  1.
          2   -1    0    0  501    0  0.00000000000E+00 -0.00000000000E+00 -0.24319184718E+04  0.24319184718E+04  0.00000000000E+00 0. -1.
         25    2    1    2    0    0 -0.50015124965E+02  0.19036343730E+02 -0.19448854225E+04  0.19496383777E+04  0.12508637795E+03 0.  0.
         23    2    1    2    0    0  0.50015124965E+02 -0.19036343730E+02 -0.47893367002E+03  0.49037947348E+03  0.90723054545E+02 0.  0.
          5    1    3    3  502    0 -0.43473578004E+02  0.14791878721E+02 -0.19376783074E+04  0.19382268822E+04  0.41800000000E+01 0.  1.
         -5    1    3    3    0  502 -0.65415469602E+01  0.42444650090E+01 -0.72071150717E+01  0.11411495410E+02  0.41800000000E+01 0.  1.
        -11    1    4    4    0    0 -0.24334882169E+01  0.28772312798E+02 -0.77155813565E+02  0.82381960498E+02  0.00000000000E+00 0.  1.
         11    1    4    4    0    0  0.52448613182E+02 -0.47808656527E+02 -0.40177785645E+03  0.40799751298E+03  0.00000000000E+00 0. -1.
</event>
<event>
 8    1  0.6689467E-009  0.1037100E+03  0.7561462E-02  0.1272682E+00
         -2   -1    0    0    0  501 -0.00000000000E+00  0.00000000000E+00  0.93601150347E+02  0.93601150347E+02  0.00000000000E+00 0.  1.
          2   -1    0    0  501    0  0.00000000000E+00 -0.00000000000E+00 -0.16798194162E+03  0.16798194162E+03  0.00000000000E+00 0. -1.
         25    2    1    2    0    0  0.58112769726E+02  0.44268528134E+02 -0.21581453175E+02  0.14645505668E+03  0.12508608203E+03 0.  0.
         23    2    1    2    0    0 -0.58112769726E+02 -0.44268528134E+02 -0.52799338101E+02  0.11512803529E+03  0.71623304991E+02 0.  0.
          5    1    3    3  502    0  0.72638538297E+01  0.53761427738E+02 -0.60662805552E+02  0.81489281886E+02  0.41800000000E+01 0.  1.
         -5    1    3    3    0  502  0.50848915896E+02 -0.94928996043E+01  0.39081352377E+02  0.64965774792E+02  0.41800000000E+01 0.  1.
        -11    1    4    4    0    0 -0.73235881770E+02 -0.26745663538E+02 -0.32978279034E+02  0.84654543793E+02  0.00000000000E+00 0.  1.
         11    1    4    4    0    0  0.15123112045E+02 -0.17522864596E+02 -0.19821059067E+02  0.30473491499E+02  0.00000000000E+00 0. -1.
</event>
<event>
 8    1  0.6689467E-009  0.1545534E+03  0.7561462E-02  0.1194987E+00
          2   -1    0    0  501    0  0.00000000000E+00  0.00000000000E+00  0.11728395526E+04  0.11728395526E+04  0.00000000000E+00 0. -1.
         -2   -1    0    0    0  501 -0.00000000000E+00 -0.00000000000E+00 -0.20544125939E+02  0.20544125939E+02  0.00000000000E+00 0.  1.
         25    2    1    2    0    0 -0.10665151995E+03  0.28621980372E+02  0.60032049992E+03  0.62307512483E+03  0.12507655292E+03 0.  0.
         23    2    1    2    0    0  0.10665151995E+03 -0.28621980372E+02  0.55197492671E+03  0.57030855368E+03  0.91551964548E+02 0.  0.
          5    1    3    3  502    0 -0.13006587050E+03  0.14096203575E+01  0.48985209861E+03  0.50684481709E+03  0.41800000000E+01 0. -1.
         -5    1    3    3    0  502  0.23414350554E+02  0.27212360015E+02  0.11046840131E+03  0.11623030774E+03  0.41800000000E+01 0. -1.
        -11    1    4    4    0    0  0.28017657471E+02 -0.53463462747E+02  0.25975076244E+03  0.26667168872E+03  0.00000000000E+00 0.  1.
         11    1    4    4    0    0  0.78633862477E+02  0.24841482375E+02  0.29222416427E+03  0.30363686495E+03  0.00000000000E+00 0. -1.
</event>
<event>
 8    1  0.6689467E-009  0.5926781E+02  0.7561462E-02  0.1400930E+00
          1   -1    0    0  501    0  0.00000000000E+00  0.00000000000E+00  0.95636068807E+02  0.95636068807E+02  0.00000000000E+00 0. -1.
         -1   -1    0    0    0  501 -0.00000000000E+00 -0.00000000000E+00 -0.12147890104E+03  0.12147890104E+03  0.00000000000E+00 0.  1.
         25    2    1    2    0    0  0.50020173887E+00 -0.28841670283E+02 -0.10288642622E+02  0.12878886245E+03  0.12509445542E+03 0.  0.
         23    2    1    2    0    0 -0.50020173887E+00  0.28841670283E+02 -0.15554189612E+02  0.88326107400E+02  0.82021194136E+02 0.  0.
          5    1    3    3  502    0  0.34737030566E+02 -0.26826398466E+02 -0.56136852019E+02  0.71380217860E+02  0.41800000000E+01 0. -1.
         -5    1    3    3    0  502 -0.34236828827E+02 -0.20152718162E+01  0.45848209397E+02  0.57408644588E+02  0.41800000000E+01 0. -1.
        -11    1    4    4    0    0  0.11835802510E+02  0.46016470365E+01 -0.45871363452E+02  0.47596673848E+02  0.00000000000E+00 0.  1.
         11    1    4    4    0    0 -0.12336004249E+02  0.24240023246E+02  0.30317173840E+02  0.40729433552E+02  0.00000000000E+00 0. -1.
</event>
<event>
 8    1  0.6689467E-009  0.1029049E+03  0.7561462E-02  0.1274303E+00
         -1   -1    0    0    0  501 -0.00000000000E+00  0.00000000000E+00  0.75537010460E+02  0.75537010460E+02  0.00000000000E+00 0.  1.
          1   -1    0    0  501    0  0.00000000000E+00 -0.00000000000E+00 -0.34729649681E+03  0.34729649681E+03  0.00000000000E+00 0. -1.
         25    2    1    2    0    0 -0.62089864170E+02 -0.34517882625E+02 -0.19899626370E+02  0.14522514456E+03  0.12509081513E+03 0.  0.
         23    2    1    2    0    0  0.62089864170E+02  0.34517882625E+02 -0.25185985998E+03  0.27760836271E+03  0.92662713776E+02 0.  0.
          5    1    3    3  502    0 -0.81786233784E+02 -0.42998804377E+02 -0.52216088057E+02  0.10621618270E+03  0.41800000000E+01 0. -1.
         -5    1    3    3    0  502  0.19696369614E+02  0.84809217516E+01  0.32316461687E+02  0.39008961864E+02  0.41800000000E+01 0. -1.
        -11    1    4    4    0    0  0.43626839956E+02 -0.86856608641E+01 -0.21007275223E+03  0.21473076887E+03  0.00000000000E+00 0.  1.
         11    1    4    4    0    0  0.18463024213E+02  0.43203543489E+02 -0.41787107744E+02  0.62877593837E+02  0.00000000000E+00 0. -1.
</event>
<event>
 8    1  0.6689467E-009  0.1144359E+03  0.7561462E-02  0.1252569E+00
         -1   -1    0    0    0  501 -0.00000000000E+00  0.00000000000E+00  0.11932526562E+03  0.11932526562E+03  0.00000000000E+00 0.  1.
          1   -1    0    0  501    0  0.00000000000E+00 -0.00000000000E+00 -0.12153717828E+03  0.12153717828E+03  0.00000000000E+00 0. -1.
         25    2    1    2    0    0 -0.18467467187E+02  0.45961777881E+02  0.15928953148E+02  0.13548010988E+03  0.12509035237E+03 0.  0.
         23    2    1    2    0    0  0.18467467187E+02 -0.45961777881E+02 -0.18140865803E+02  0.10538233402E+03  0.91229452156E+02 0.  0.
          5    1    3    3  502    0 -0.52794009095E+02 -0.18806728038E+02 -0.11018644761E+02  0.57269392770E+02  0.41800000000E+01 0. -1.
         -5    1    3    3    0  502  0.34326541908E+02  0.64768505919E+02  0.26947597908E+02  0.78210717113E+02  0.41800000000E+01 0. -1.
        -11    1    4    4    0    0 -0.14785679876E+02  0.20299554309E+02 -0.18587129556E+02  0.31243713282E+02  0.00000000000E+00 0. -1.
         11    1    4    4    0    0  0.33253147064E+02 -0.66261332190E+02  0.44626375230E+00  0.74138620736E+02  0.00000000000E+00 0.  1.
</event>
<event>
 8    1  0.6689467E-009  0.1143647E+03  0.7561462E-02  0.1252694E+00
          1   -1    0    0  501    0  0.00000000000E+00  0.00000000000E+00  0.26150612785E+03  0.26150612785E+03  0.00000000000E+00 0. -1.
         -1   -1    0    0    0  501 -0.00000000000E+00 -0.00000000000E+00 -0.63651996254E+02  0.63651996254E+02  0.00000000000E+00 0.  1.
         25    2    1    2    0    0 -0.31615237350E+02 -0.60356864411E+02  0.10713466370E+03  0.17823008407E+03  0.12508258227E+03 0.  0.
         23    2    1    2    0    0  0.31615237350E+02  0.60356864411E+02  0.90719467889E+02  0.14692804003E+03  0.93356053780E+02 0.  0.
          5    1    3    3  502    0  0.39832716845E+02  0.10744674071E+02  0.28452205432E+02  0.50290095905E+02  0.41800000000E+01 0. -1.
         -5    1    3    3    0  502 -0.71447954195E+02 -0.71101538482E+02  0.78682458270E+02  0.12793998817E+03  0.41800000000E+01 0. -1.
        -11    1    4    4    0    0  0.57797009920E+01  0.60264867106E+02  0.10209757840E+03  0.11869782924E+03  0.00000000000E+00 0. -1.
         11    1    4    4    0    0  0.25835536358E+02  0.91997304949E-01 -0.11378110509E+02  0.28230210789E+02  0.00000000000E+00 0.  1.
</event>
<event>
 8    1  0.6689467E-009  0.9047416E+02  0.7561462E-02  0.1301707E+00
         -1   -1    0    0    0  501 -0.00000000000E+00  0.00000000000E+00  0.18309837225E+02  0.18309837225E+02  0.00000000000E+00 0.  1.
          1   -1    0    0  501    0  0.00000000000E+00 -0.00000000000E+00 -0.14263201543E+04  0.14263201543E+04  0.00000000000E+00 0. -1.
         25    2    1    2    0    0  0.45306813662E+02 -0.23369050290E+02 -0.12357818203E+04  0.12431424366E+04  0.12509032931E+03 0.  0.
         23    2    1    2    0    0 -0.45306813662E+02  0.23369050290E+02 -0.17222849684E+03  0.20148755496E+03  0.91300382279E+02 0.  0.
          5    1    3    3  502    0  0.11676823720E+02 -0.40816278782E+02 -0.11282289711E+04  0.11290351636E+04  0.41800000000E+01 0.  1.
         -5    1    3    3    0  502  0.33629989941E+02  0.17447228492E+02 -0.10755284915E+03  0.11410727306E+03  0.41800000000E+01 0.  1.
        -11    1    4    4    0    0  0.84877263736E+01  0.42301141326E+02 -0.46514779406E+02  0.63443303505E+02  0.00000000000E+00 0.  1.
         11    1    4    4    0    0 -0.53794540035E+02 -0.18932091036E+02 -0.12571371743E+03  0.13804425145E+03  0.00000000000E+00 0. -1.
</event>
<event>
 8    1  0.6689467E-009  0.1334473E+03  0.7561462E-02  0.1222428E+00
         -1   -1    0    0    0  501 -0.00000000000E+00  0.00000000000E+00  0.73203202139E+02  0.73203202139E+02  0.00000000000E+00 0.  1.
          1   -1    0    0  501    0  0.00000000000E+00 -0.00000000000E+00 -0.27188966172E+03  0.27188966172E+03  0.00000000000E+00 0. -1.
         25    2    1    2    0    0  0.21912722355E+02  0.90185202035E+02 -0.97130804230E+02  0.18356076762E+03  0.12508646694E+03 0.  0.
         23    2    1    2    0    0 -0.21912722355E+02 -0.90185202035E+02 -0.10155565535E+03  0.16153209624E+03  0.84649447227E+02 0.  0.
          5    1    3    3  502    0 -0.39066793609E+02  0.65626170613E+02 -0.88742564781E+02  0.11715683436E+03  0.41800000000E+01 0. -1.
         -5    1    3    3    0  502  0.60979515964E+02  0.24559031421E+02 -0.83882394484E+01  0.66403933261E+02  0.41800000000E+01 0. -1.
        -11    1    4    4    0    0  0.21348343729E+02 -0.76100195264E+02 -0.74407213855E+02  0.10855148535E+03  0.00000000000E+00 0.  1.
         11    1    4    4    0    0 -0.43261066084E+02 -0.14085006771E+02 -0.27148441498E+02  0.52980610890E+02  0.00000000000E+00 0. -1.
</event>
<event>
 8    1  0.6689467E-009  0.1170710E+03  0.7561462E-02  0.1248009E+00
         -2   -1    0    0    0  501 -0.00000000000E+00  0.00000000000E+00  0.19168903917E+03  0.19168903917E+03  0.00000000000E+00 0.  1.
          2   -1    0    0  501    0  0.00000000000E+00 -0.00000000000E+00 -0.78108066836E+02  0.78108066836E+02  0.00000000000E+00 0. -1.
         25    2    1    2    0    0 -0.44366083804E+02 -0.32894933500E+02  0.44595233099E+02  0.14382835826E+03  0.12508971093E+03 0.  0.
         23    2    1    2    0    0  0.44366083804E+02  0.32894933500E+02  0.68985739231E+02  0.12596874775E+03  0.89770079367E+02 0.  0.
          5    1    3    3  502    0 -0.42706608867E+01  0.42955305344E+02 -0.65446975030E+01  0.43860030403E+02  0.41800000000E+01 0. -1.
         -5    1    3    3    0  502 -0.40095422918E+02 -0.75850238843E+02  0.51139930602E+02  0.99968327852E+02  0.41800000000E+01 0. -1.
        -11    1    4    4    0    0 -0.25386844404E+02  0.23313626315E+02  0.28687261713E+02  0.44843907338E+02  0.00000000000E+00 0.  1.
         11    1    4    4    0    0  0.69752928209E+02  0.95813071846E+01  0.40298477518E+02  0.81124840408E+02  0.00000000000E+00 0. -1.
</event>
<event>
 8    1  0.6689467E-009  0.7953661E+02  0.7561462E-02  0.1330372E+00
          2   -1    0    0  501    0  0.00000000000E+00  0.00000000000E+00  0.48952477771E+02  0.48952477771E+02  0.00000000000E+00 0. -1.
         -2   -1    0    0    0  501 -0.00000000000E+00 -0.00000000000E+00 -0.31462924238E+03  0.31462924238E+03  0.00000000000E+00 0.  1.
         25    2    1    2    0    0  0.27964263306E+02  0.35040719608E+02 -0.20734860468E+03  0.24627458006E+03  0.12509145801E+03 0.  0.
         23    2    1    2    0    0 -0.27964263306E+02 -0.35040719608E+02 -0.58328159931E+02  0.11730714009E+03  0.91372527728E+02 0.  0.
          5    1    3    3  502    0  0.40249414820E+00 -0.75662391409E+01 -0.19324819408E+03  0.19344184369E+03  0.41800000000E+01 0.  1.
         -5    1    3    3    0  502  0.27561769158E+02  0.42606958749E+02 -0.14100410602E+02  0.52832736368E+02  0.41800000000E+01 0.  1.
        -11    1    4    4    0    0 -0.37093842903E+02  0.21066315658E+02 -0.37400768901E+02  0.56732357179E+02  0.00000000000E+00 0.  1.
         11    1    4    4    0    0  0.91295795970E+01 -0.56107035266E+02 -0.20927391030E+02  0.60574782915E+02  0.00000000000E+00 0. -1.
</event>
<event>
 8    1  0.6689467E-009  0.8581406E+02  0.7561462E-02  0.1313317E+00
         -3   -1    0    0    0  501 -0.00000000000E+00  0.00000000000E+00  0.30040681882E+02  0.30040681882E+02  0.00000000000E+00 0.  1.
          3   -1    0    0  501    0  0.00000000000E+00 -0.00000000000E+00 -0.49871883876E+03  0.49871883876E+03  0.00000000000E+00 0. -1.
         25    2    1    2    0    0  0.35523701339E+02 -0.17079485849E+02 -0.35350743447E+03  0.37705505900E+03  0.12509743843E+03 0.  0.
         23    2    1    2    0    0 -0.35523701339E+02  0.17079485849E+02 -0.11517072241E+03  0.15170446164E+03  0.90533453417E+02 0.  0.
          5    1    3    3  502    0  0.25299543631E+02  0.35058421426E+02 -0.39992892197E+02  0.59042896669E+02  0.41800000000E+01 0. -1.
         -5    1    3    3    0  502  0.10224157708E+02 -0.52137907275E+02 -0.31351454227E+03  0.31801216233E+03  0.41800000000E+01 0. -1.
        -11    1    4    4    0    0 -0.44891579144E+02 -0.10216025023E+02 -0.16510518036E+02  0.48910308230E+02  0.00000000000E+00 0.  1.
         11    1    4    4    0    0  0.93678778048E+01  0.27295510871E+02 -0.98660204378E+02  0.10279415341E+03  0.00000000000E+00 0. -1.
</event>
<event>
 8    1  0.6689467E-009  0.1037442E+03  0.7561462E-02  0.1272614E+00
         -2   -1    0    0    0  501 -0.00000000000E+00  0.00000000000E+00  0.40982246077E+02  0.40982246077E+02  0.00000000000E+00 0.  1.
          2   -1    0    0  501    0  0.00000000000E+00 -0.00000000000E+00 -0.29000764134E+03  0.29000764134E+03  0.00000000000E+00 0. -1.
         25    2    1    2    0    0 -0.98378199305E+01 -0.30375727206E+01 -0.13043918901E+03  0.18101889411E+03  0.12508976155E+03 0.  0.
         23    2    1    2    0    0  0.98378199305E+01  0.30375727206E+01 -0.11858620625E+03  0.14997099331E+03  0.91228290414E+02 0.  0.
          5    1    3    3  502    0  0.52073041364E+02 -0.11404506896E+02 -0.26500188446E+02  0.59677439641E+02  0.41800000000E+01 0. -1.
         -5    1    3    3    0  502 -0.61910861295E+02  0.83669341756E+01 -0.10393900057E+03  0.12134145447E+03  0.41800000000E+01 0. -1.
        -11    1    4    4    0    0 -0.40323969538E+02 -0.48915227463E+01 -0.45779314295E+02  0.61202084371E+02  0.00000000000E+00 0.  1.
         11    1    4    4    0    0  0.50161789468E+02  0.79290954668E+01 -0.72806891956E+02  0.88768908937E+02  0.00000000000E+00 0. -1.
</event>
<event>
 8    1  0.6689467E-009  0.3189960E+03  0.7561462E-02  0.1076112E+00
          2   -1    0    0  501    0  0.00000000000E+00  0.00000000000E+00  0.35741766048E+03  0.35741766048E+03  0.00000000000E+00 0. -1.
         -2   -1    0    0    0  501 -0.00000000000E+00 -0.00000000000E+00 -0.32590366517E+03  0.32590366517E+03  0.00000000000E+00 0.  1.
         25    2    1    2    0    0  0.18708340519E+02  0.31367452689E+03  0.89381657611E+02  0.34982625548E+03  0.12509043721E+03 0.  0.
         23    2    1    2    0    0 -0.18708340519E+02 -0.31367452689E+03 -0.57867662302E+02  0.33349507017E+03  0.95543627025E+02 0.  0.
          5    1    3    3  502    0 -0.87992842839E+01  0.63987053395E+02 -0.30390330183E+02  0.71503950763E+02  0.41800000000E+01 0.  1.
         -5    1    3    3    0  502  0.27507624803E+02  0.24968747349E+03  0.11977198779E+03  0.27832230471E+03  0.41800000000E+01 0.  1.
        -11    1    4    4    0    0  0.18076457770E+02 -0.22903632751E+03 -0.11054000252E+02  0.23001432252E+03  0.00000000000E+00 0. -1.
         11    1    4    4    0    0 -0.36784798290E+02 -0.84638199380E+02 -0.46813662050E+02  0.10348074765E+03  0.00000000000E+00 0.  1.
</event>
<event>
 8    1  0.6689467E-009  0.1229421E+03  0.7561462E-02  0.1238321E+00
         -2   -1    0    0    0  501 -0.00000000000E+00  0.00000000000E+00  0.20496012777E+02  0.20496012777E+02  0.00000000000E+00 0.  1.
          2   -1    0    0  501    0  0.00000000000E+00 -0.00000000000E+00 -0.10234802841E+04  0.10234802841E+04  0.00000000000E+00 0. -1.
         25    2    1    2    0    0 -0.24958632906E+02  0.87812921820E+02 -0.67227971973E+03  0.68988480616E+03  0.12508789560E+03 0.  0.
         23    2    1    2    0    0  0.24958632906E+02 -0.87812921820E+02 -0.33070455163E+03  0.35409149074E+03  0.87642687970E+02 0.  0.
          5    1    3    3  502    0 -0.36852000746E+01  0.11672093747E+03 -0.55484184824E+03  0.56701349799E+03  0.41800000000E+01 0.  1.
         -5    1    3    3    0  502 -0.21273432831E+02 -0.28908015651E+02 -0.11743787149E+03  0.12287130818E+03  0.41800000000E+01 0.  1.
        -11    1    4    4    0    0  0.18513474803E+02 -0.34134659274E+02 -0.31387284068E+02  0.49930805263E+02  0.00000000000E+00 0.  1.
         11    1    4    4    0    0  0.64451581031E+01 -0.53678262546E+02 -0.29931726756E+03  0.30416068548E+03  0.00000000000E+00 0. -1.
</event>
<event>
 8    1  0.6689467E-009  0.9977633E+02  0.7561462E-02  0.1280767E+00
          4   -1    0    0  501    0  0.00000000000E+00  0.00000000000E+00  0.35286799243E+02  0.35286799243E+02  0.00000000000E+00 0. -1.
         -4   -1    0    0    0  501 -0.00000000000E+00 -0.00000000000E+00 -0.43288287398E+03  0.43288287398E+03  0.00000000000E+00 0.  1.
         25    2    1    2    0    0  0.26929379820E+01  0.59585322885E+02 -0.23723691799E+03  0.27474807074E+03  0.12508990567E+03 0.  0.
         23    2    1    2    0    0 -0.26929379820E+01 -0.59585322885E+02 -0.16035915674E+03  0.19342160248E+03  0.90217484648E+02 0.  0.
          5    1    3    3  502    0 -0.27760038180E+02 -0.15620597725E+02 -0.15809974868E+03  0.16133079596E+03  0.41800000000E+01 0. -1.
         -5    1    3    3    0  502  0.30452976162E+02  0.75205920610E+02 -0.79137169317E+02  0.11341727478E+03  0.41800000000E+01 0. -1.
        -11    1    4    4    0    0  0.29776466030E+02 -0.29538961173E+02 -0.20406317360E+02  0.46643391221E+02  0.00000000000E+00 0. -1.
         11    1    4    4    0    0 -0.32469404012E+02 -0.30046361712E+02 -0.13995283938E+03  0.14677821126E+03  0.00000000000E+00 0.  1.
</event>
<event>
 8    1  0.6689467E-009  0.1103394E+03  0.7561462E-02  0.1259943E+00
         -2   -1    0    0    0  501 -0.00000000000E+00  0.00000000000E+00  0.11184518085E+03  0.11184518085E+03  0.00000000000E+00 0.  1.
          2   -1    0    0  501    0  0.00000000000E+00 -0.00000000000E+00 -0.16111434890E+03  0.16111434890E+03  0.00000000000E+00 0. -1.
         25    2    1    2    0    0 -0.50791384163E+02 -0.62481664925E+02 -0.25902913769E+02  0.15100076985E+03  0.12508616388E+03 0.  0.
         23    2    1    2    0    0  0.50791384163E+02  0.62481664925E+02 -0.23366254284E+02  0.12195875991E+03  0.88567681028E+02 0.  0.
          5    1    3    3  502    0  0.36268262591E+02 -0.22149401357E+02 -0.34051396432E+02  0.54616415580E+02  0.41800000000E+01 0.  1.
         -5    1    3    3    0  502 -0.87059646754E+02 -0.40332263568E+02  0.81484826635E+01  0.96384354265E+02  0.41800000000E+01 0.  1.
        -11    1    4    4    0    0  0.26787692587E+02  0.21106751697E+02  0.33393974703E+02  0.47730838960E+02  0.00000000000E+00 0.  1.
         11    1    4    4    0    0  0.24003691575E+02  0.41374913229E+02 -0.56760228988E+02  0.74227920951E+02  0.00000000000E+00 0. -1.
</event>
<event>
 8    1  0.6689467E-009  0.1758849E+03  0.7561462E-02  0.1171846E+00
          1   -1    0    0  501    0  0.00000000000E+00  0.00000000000E+00  0.54644015532E+03  0.54644015532E+03  0.00000000000E+00 0. -1.
         -1   -1    0    0    0  501 -0.00000000000E+00 -0.00000000000E+00 -0.66113161853E+02  0.66113161853E+02  0.00000000000E+00 0.  1.
         25    2    1    2    0    0  0.15258834378E+03  0.25353224855E+02  0.22626561342E+03  0.30127973067E+03  0.12508940654E+03 0.  0.
         23    2    1    2    0    0 -0.15258834378E+03 -0.25353224855E+02  0.25406138005E+03  0.31127358650E+03  0.91750052614E+02 0.  0.
          5    1    3    3  502    0  0.15279478028E+03 -0.35127753778E+01  0.12998915600E+03  0.20068193130E+03  0.41800000000E+01 0. -1.
         -5    1    3    3    0  502 -0.20643650180E+00  0.28866000232E+02  0.96276457418E+02  0.10059779937E+03  0.41800000000E+01 0. -1.
        -11    1    4    4    0    0 -0.27656563791E+02 -0.34764769878E+02  0.27124827023E+02  0.52050273644E+02  0.00000000000E+00 0.  1.
         11    1    4    4    0    0 -0.12493177999E+03  0.94115450230E+01  0.22693655303E+03  0.25922331286E+03  0.00000000000E+00 0. -1.
</event>
<event>
 8    1  0.6689467E-009  0.1053004E+03  0.7561462E-02  0.1269529E+00
          2   -1    0    0  501    0  0.00000000000E+00  0.00000000000E+00  0.25053625992E+03  0.25053625992E+03  0.00000000000E+00 0. -1.
         -2   -1    0    0    0  501 -0.00000000000E+00 -0.00000000000E+00 -0.51632407300E+02  0.51632407300E+02  0.00000000000E+00 0.  1.
         25    2    1    2    0    0  0.30552039984E+02 -0.77946291242E+01  0.79119052768E+02  0.15133336403E+03  0.12509108348E+03 0.  0.
         23    2    1    2    0    0 -0.30552039984E+02  0.77946291242E+01  0.11978479985E+03  0.15083530319E+03  0.86073846332E+02 0.  0.
          5    1    3    3  502    0  0.78171494896E+01 -0.63050274317E+02  0.62395179466E+02  0.89146372547E+02  0.41800000000E+01 0. -1.
         -5    1    3    3    0  502  0.22734890494E+02  0.55255645193E+02  0.16723873302E+02  0.62186991483E+02  0.41800000000E+01 0. -1.
        -11    1    4    4    0    0 -0.39904876887E+02 -0.28832970101E+02  0.90470251362E+02  0.10299808613E+03  0.00000000000E+00 0. -1.
         11    1    4    4    0    0  0.93528369030E+01  0.36627599225E+02  0.29314548487E+02  0.47837217061E+02  0.00000000000E+00 0.  1.
</event>
<event>
 8    1  0.6689467E-009  0.1045505E+03  0.7561462E-02  0.1271008E+00
          2   -1    0    0  501    0  0.00000000000E+00  0.00000000000E+00  0.15741009728E+03  0.15741009728E+03  0.00000000000E+00 0. -1.
         -2   -1    0    0    0  501 -0.00000000000E+00 -0.00000000000E+00 -0.91633024492E+02  0.91633024492E+02  0.00000000000E+00 0.  1.
         25    2    1    2    0    0 -0.32252978356E+02 -0.28651866542E+02  0.60164488888E+02  0.14536033009E+03  0.12509466723E+03 0.  0.
         23    2    1    2    0    0  0.32252978356E+02  0.28651866542E+02  0.56125839043E+01  0.10368279169E+03  0.94113952874E+02 0.  0.
          5    1    3    3  502    0 -0.10482960165E+02  0.49664982023E+02  0.23101718094E+02  0.55925527911E+02  0.41800000000E+01 0. -1.
         -5    1    3    3    0  502 -0.21770018191E+02 -0.78316848565E+02  0.37062770794E+02  0.89434802175E+02  0.41800000000E+01 0. -1.
        -11    1    4    4    0    0  0.42155600019E+02 -0.42944428217E+01 -0.31708906171E+02  0.52924394967E+02  0.00000000000E+00 0.  1.
         11    1    4    4    0    0 -0.99026216634E+01  0.32946309363E+02  0.37321490075E+02  0.50758396723E+02  0.00000000000E+00 0. -1.
</event>
<event>
 8    1  0.6689467E-009  0.1959131E+03  0.7561462E-02  0.1153234E+00
         -3   -1    0    0    0  501 -0.00000000000E+00  0.00000000000E+00  0.71287383747E+03  0.71287383747E+03  0.00000000000E+00 0.  1.
          3   -1    0    0  501    0  0.00000000000E+00 -0.00000000000E+00 -0.62662910119E+02  0.62662910119E+02  0.00000000000E+00 0. -1.
         25    2    1    2    0    0 -0.10413160254E+03 -0.12435440708E+03  0.48287322686E+03  0.52451760855E+03  0.12507901207E+03 0.  0.
         23    2    1    2    0    0  0.10413160254E+03  0.12435440708E+03  0.16733770050E+03  0.25101913904E+03  0.93280721190E+02 0.  0.
          5    1    3    3  502    0 -0.76441778706E+01  0.25262995291E+02  0.60652518709E+02  0.66278599956E+02  0.41800000000E+01 0.  1.
         -5    1    3    3    0  502 -0.96487424670E+02 -0.14961740238E+03  0.42222070815E+03  0.45823900860E+03  0.41800000000E+01 0.  1.
        -11    1    4    4    0    0  0.69947549445E+02  0.13789551181E+02  0.60164221510E+02  0.93287431871E+02  0.00000000000E+00 0. -1.
         11    1    4    4    0    0  0.34184053096E+02  0.11056485590E+03  0.10717347899E+03  0.15773170717E+03  0.00000000000E+00 0.  1.
</event>
<event>
 8    1  0.6689467E-009  0.1731144E+03  0.7561462E-02  0.1174638E+00
          1   -1    0    0  501    0  0.00000000000E+00  0.00000000000E+00  0.10859399203E+03  0.10859399203E+03  0.00000000000E+00 0. -1.
         -1   -1    0    0    0  501 -0.00000000000E+00 -0.00000000000E+00 -0.34755451612E+03  0.34755451612E+03  0.00000000000E+00 0.  1.
         25    2    1    2    0    0  0.14639072804E+01  0.15027399042E+03 -0.19538018505E+03  0.27641476846E+03  0.12508913738E+03 0.  0.
         23    2    1    2    0    0 -0.14639072804E+01 -0.15027399042E+03 -0.43580339032E+02  0.17973373969E+03  0.88433907579E+02 0.  0.
          5    1    3    3  502    0  0.53416221894E+02  0.61458928444E+02 -0.42122053953E+02  0.91772721852E+02  0.41800000000E+01 0. -1.
         -5    1    3    3    0  502 -0.51952314614E+02  0.88815061978E+02 -0.15325813110E+03  0.18464204661E+03  0.41800000000E+01 0. -1.
        -11    1    4    4    0    0  0.24363776764E+02 -0.29743000317E+02 -0.41326881817E+02  0.56445999387E+02  0.00000000000E+00 0.  1.
         11    1    4    4    0    0 -0.25827684044E+02 -0.12053099010E+03 -0.22534572151E+01  0.12328774030E+03  0.00000000000E+00 0. -1.
</event>
<event>
 8    1  0.6689467E-009  0.1141174E+03  0.7561462E-02  0.1253130E+00
          2   -1    0    0  501    0  0.00000000000E+00  0.00000000000E+00  0.35019639869E+03  0.35019639869E+03  0.00000000000E+00 0. -1.
         -2   -1    0    0    0  501 -0.00000000000E+00 -0.00000000000E+00 -0.45138013649E+02  0.45138013649E+02  0.00000000000E+00 0.  1.
         25    2    1    2    0    0  0.21785857749E+02  0.27097587340E+02  0.24879375639E+03  0.28063372221E+03  0.12509216595E+03 0.  0.
         23    2    1    2    0    0 -0.21785857749E+02 -0.27097587340E+02  0.56264628650E+02  0.11470069013E+03  0.93710389193E+02 0.  0.
          5    1    3    3  502    0  0.64096608181E+02  0.49027855342E+02  0.13736707308E+03  0.15937154999E+03  0.41800000000E+01 0. -1.
         -5    1    3    3    0  502 -0.42310750432E+02 -0.21930268003E+02  0.11142668332E+03  0.12126217222E+03  0.41800000000E+01 0. -1.
        -11    1    4    4    0    0 -0.52796410097E+02  0.72753300682E+01  0.25223176797E+02  0.58962700027E+02  0.00000000000E+00 0.  1.
         11    1    4    4    0    0  0.31010552348E+02 -0.34372917408E+02  0.31041451853E+02  0.55737990107E+02  0.00000000000E+00 0. -1.
</event>
<event>
 8    1  0.6689467E-009  0.1075327E+03  0.7561462E-02  0.1265208E+00
          1   -1    0    0  501    0  0.00000000000E+00  0.00000000000E+00  0.46708173367E+02  0.46708173367E+02  0.00000000000E+00 0. -1.
         -1   -1    0    0    0  501 -0.00000000000E+00 -0.00000000000E+00 -0.41804564662E+03  0.41804564662E+03  0.00000000000E+00 0.  1.
         25    2    1    2    0    0 -0.15055040727E+02  0.38135749065E+02 -0.74161831332E+02  0.15109155496E+03  0.12509073165E+03 0.  0.
         23    2    1    2    0    0  0.15055040727E+02 -0.38135749065E+02 -0.29717564192E+03  0.31366226503E+03  0.91595113095E+02 0.  0.
          5    1    3    3  502    0  0.24034517479E+02 -0.36910324731E+02 -0.11491916279E+02  0.45711777935E+02  0.41800000000E+01 0.  1.
         -5    1    3    3    0  502 -0.39089558207E+02  0.75046073797E+02 -0.62669915053E+02  0.10537977702E+03  0.41800000000E+01 0.  1.
        -11    1    4    4    0    0  0.27499776853E+02 -0.57124444369E+02 -0.27392320936E+03  0.28116430161E+03  0.00000000000E+00 0.  1.
         11    1    4    4    0    0 -0.12444736126E+02  0.18988695303E+02 -0.23252432561E+02  0.32497963422E+02  0.00000000000E+00 0. -1.
</event>
<event>
 8    1  0.6689467E-009  0.1215493E+03  0.7561462E-02  0.1240563E+00
          2   -1    0    0  501    0  0.00000000000E+00  0.00000000000E+00  0.43330319599E+03  0.43330319599E+03  0.00000000000E+00 0. -1.
         -2   -1    0    0    0  501 -0.00000000000E+00 -0.00000000000E+00 -0.57573764239E+02  0.57573764239E+02  0.00000000000E+00 0.  1.
         25    2    1    2    0    0  0.45150671184E+02 -0.10108263231E+03  0.16118541568E+03  0.23213222409E+03  0.12509336341E+03 0.  0.
         23    2    1    2    0    0 -0.45150671184E+02  0.10108263231E+03  0.21454401607E+03  0.25874473614E+03  0.93077505255E+02 0.  0.
          5    1    3    3  502    0  0.98900158493E-02 -0.43004249954E+02  0.15183690456E+03  0.15786476363E+03  0.41800000000E+01 0. -1.
         -5    1    3    3    0  502  0.45140781169E+02 -0.58078382359E+02  0.93485111211E+01  0.74267460453E+02  0.41800000000E+01 0. -1.
        -11    1    4    4    0    0 -0.54664220055E+02  0.49446521766E+02  0.58496724117E+02  0.94101021256E+02  0.00000000000E+00 0.  1.
         11    1    4    4    0    0  0.95135488708E+01  0.51636110546E+02  0.15604729195E+03  0.16464371488E+03  0.00000000000E+00 0. -1.
</event>
<event>
 8    1  0.6689467E-009  0.8385200E+02  0.7561462E-02  0.1318462E+00
          2   -1    0    0  501    0  0.00000000000E+00  0.00000000000E+00  0.10652993163E+03  0.10652993163E+03  0.00000000000E+00 0.  1.
         -2   -1    0    0    0  501 -0.00000000000E+00 -0.00000000000E+00 -0.13728532325E+03  0.13728532325E+03  0.00000000000E+00 0. -1.
         25    2    1    2    0    0 -0.39262145441E+02 -0.47376356999E+02 -0.20715796401E+02  0.14094117512E+03  0.12509690386E+03 0.  0.
         23    2    1    2    0    0  0.39262145441E+02  0.47376356999E+02 -0.10039595211E+02  0.10287407976E+03  0.81830602759E+02 0.  0.
          5    1    3    3  502    0 -0.10000481255E+02 -0.46402288827E+02  0.47073191883E+02  0.66981637990E+02  0.41800000000E+01 0.  1.
         -5    1    3    3    0  502 -0.29261664186E+02 -0.97406817133E+00 -0.67788988284E+02  0.73959537129E+02  0.41800000000E+01 0.  1.
        -11    1    4    4    0    0  0.42807363235E+02  0.62049174584E+02  0.11825258487E+02  0.76304699410E+02  0.00000000000E+00 0.  1.
         11    1    4    4    0    0 -0.35452177938E+01 -0.14672817585E+02 -0.21864853698E+02  0.26569380353E+02  0.00000000000E+00 0. -1.
</event>
<event>
 8    1  0.6689467E-009  0.1092484E+03  0.7561462E-02  0.1261968E+00
          1   -1    0    0  501    0  0.00000000000E+00  0.00000000000E+00  0.42971211763E+03  0.42971211763E+03  0.00000000000E+00 0. -1.
         -1   -1    0    0    0  501 -0.00000000000E+00 -0.00000000000E+00 -0.42524393391E+02  0.42524393391E+02  0.00000000000E+00 0.  1.
         25    2    1    2    0    0 -0.78254421671E+02 -0.93032417972E+01  0.17437566167E+03  0.22862048169E+03  0.12510055333E+03 0.  0.
         23    2    1    2    0    0  0.78254421671E+02  0.93032417972E+01  0.21281206257E+03  0.24361602934E+03  0.88597352992E+02 0.  0.
          5    1    3    3  502    0  0.13453440190E+02  0.17939427231E+01  0.12103961140E+03  0.12186990281E+03  0.41800000000E+01 0.  1.
         -5    1    3    3    0  502 -0.91707861861E+02 -0.11097184520E+02  0.53336050275E+02  0.10675057888E+03  0.41800000000E+01 0.  1.
        -11    1    4    4    0    0 -0.31198904429E+01 -0.23778310733E+02  0.18227224954E+02  0.30122641106E+02  0.00000000000E+00 0.  1.
         11    1    4    4    0    0  0.81374312114E+02  0.33081552530E+02  0.19458483761E+03  0.21349338823E+03  0.00000000000E+00 0. -1.
</event>
<event>
 8    1  0.6689467E-009  0.1646238E+03  0.7561462E-02  0.1183573E+00
         -1   -1    0    0    0  501 -0.00000000000E+00  0.00000000000E+00  0.27253681744E+02  0.27253681744E+02  0.00000000000E+00 0.  1.
          1   -1    0    0  501    0  0.00000000000E+00 -0.00000000000E+00 -0.10377425962E+04  0.10377425962E+04  0.00000000000E+00 0. -1.
         25    2    1    2    0    0  0.58361301296E+02 -0.11380966822E+03 -0.50160199435E+03  0.53255200277E+03  0.12509353637E+03 0.  0.
         23    2    1    2    0    0 -0.58361301296E+02  0.11380966822E+03 -0.50888692015E+03  0.53244427522E+03  0.90400921734E+02 0.  0.
          5    1    3    3  502    0 -0.34929891095E+02 -0.47802389795E+02 -0.11530923059E+03  0.12968753534E+03  0.41800000000E+01 0. -1.
         -5    1    3    3    0  502  0.93291192391E+02 -0.66007278427E+02 -0.38629276376E+03  0.40286446743E+03  0.41800000000E+01 0. -1.
        -11    1    4    4    0    0 -0.76143133807E+01 -0.15148424202E+02 -0.38505681372E+02  0.42073032004E+02  0.00000000000E+00 0.  1.
         11    1    4    4    0    0 -0.50746987915E+02  0.12895809242E+03 -0.47038123878E+03  0.49037124322E+03  0.00000000000E+00 0. -1.
</event>
<event>
 8    1  0.6689467E-009  0.7991986E+02  0.7561462E-02  0.1329279E+00
          1   -1    0    0  501    0  0.00000000000E+00  0.00000000000E+00  0.13507877103E+03  0.13507877103E+03  0.00000000000E+00 0.  1.
         -1   -1    0    0    0  501 -0.00000000000E+00 -0.00000000000E+00 -0.11638540720E+03  0.11638540720E+03  0.00000000000E+00 0. -1.
         25    2    1    2    0    0  0.22078885222E+02  0.47727692971E+02  0.38261813981E+02  0.14099075879E+03  0.12509603434E+03 0.  0.
         23    2    1    2    0    0 -0.22078885222E+02 -0.47727692971E+02 -0.19568450153E+02  0.11047341943E+03  0.95163240331E+02 0.  0.
          5    1    3    3  502    0  0.49825001922E+02  0.25390567895E+02 -0.30208309124E+02  0.63696358566E+02  0.41800000000E+01 0. -1.
         -5    1    3    3    0  502 -0.27746116699E+02  0.22337125077E+02  0.68470123105E+02  0.77294400228E+02  0.41800000000E+01 0. -1.
        -11    1    4    4    0    0 -0.27902391686E+02 -0.98729522437E+01 -0.52298826758E+02  0.60093143769E+02  0.00000000000E+00 0. -1.
         11    1    4    4    0    0  0.58235064635E+01 -0.37854740728E+02  0.32730376605E+02  0.50380275662E+02  0.00000000000E+00 0.  1.
</event>
<event>
 8    1  0.6689467E-009  0.1299400E+03  0.7561462E-02  0.1227545E+00
          1   -1    0    0  501    0  0.00000000000E+00  0.00000000000E+00  0.36992674348E+03  0.36992674348E+03  0.00000000000E+00 0. -1.
         -1   -1    0    0    0  501 -0.00000000000E+00 -0.00000000000E+00 -0.68922748192E+02  0.68922748192E+02  0.00000000000E+00 0.  1.
         25    2    1    2    0    0 -0.65003090443E+01  0.89082160265E+02  0.58710818033E+02  0.16453405148E+03  0.12508640472E+03 0.  0.
         23    2    1    2    0    0  0.65003090443E+01 -0.89082160265E+02  0.24229317726E+03  0.27431544020E+03  0.92547780576E+02 0.  0.
          5    1    3    3  502    0 -0.30101878287E+02  0.11348917793E+03  0.33917198169E+02  0.12228558916E+03  0.41800000000E+01 0. -1.
         -5    1    3    3    0  502  0.23601569243E+02 -0.24407017669E+02  0.24793619863E+02  0.42248462317E+02  0.41800000000E+01 0. -1.
        -11    1    4    4    0    0 -0.17369332970E+02 -0.81214364593E+02  0.23326761684E+03  0.24761108176E+03  0.00000000000E+00 0. -1.
         11    1    4    4    0    0  0.23869642014E+02 -0.78677956725E+01  0.90255604159E+01  0.26704358435E+02  0.00000000000E+00 0.  1.
</event>
<event>
 8    1  0.6689467E-009  0.1374104E+03  0.7561462E-02  0.1216857E+00
         -2   -1    0    0    0  501 -0.00000000000E+00  0.00000000000E+00  0.10931817894E+03  0.10931817894E+03  0.00000000000E+00 0.  1.
          2   -1    0    0  501    0  0.00000000000E+00 -0.00000000000E+00 -0.21438686138E+03  0.21438686138E+03  0.00000000000E+00 0. -1.
         25    2    1    2    0    0  0.75560203415E+02 -0.67049415348E+02 -0.20168932400E+02  0.16204505144E+03  0.12508734718E+03 0.  0.
         23    2    1    2    0    0 -0.75560203415E+02  0.67049415348E+02 -0.84899750038E+02  0.16165998888E+03  0.93386380208E+02 0.  0.
          5    1    3    3  502    0  0.10046213599E+03 -0.54265894491E+02 -0.46529074842E+02  0.12336877757E+03  0.41800000000E+01 0. -1.
         -5    1    3    3    0  502 -0.24901932574E+02 -0.12783520857E+02  0.26360142442E+02  0.38676273877E+02  0.41800000000E+01 0. -1.
        -11    1    4    4    0    0 -0.58318550341E+02 -0.46631832846E+01 -0.15820556385E+02  0.60606011225E+02  0.00000000000E+00 0.  1.
         11    1    4    4    0    0 -0.17241653074E+02  0.71712598633E+02 -0.69079193653E+02  0.10105397765E+03  0.00000000000E+00 0. -1.
</event>
<event>
 8    1  0.6689467E-009  0.1446708E+03  0.7561462E-02  0.1207179E+00
         -1   -1    0    0    0  501 -0.00000000000E+00  0.00000000000E+00  0.13612726128E+03  0.13612726128E+03  0.00000000000E+00 0.  1.
          1   -1    0    0  501    0  0.00000000000E+00 -0.00000000000E+00 -0.19726995576E+03  0.19726995576E+03  0.00000000000E+00 0. -1.
         25    2    1    2    0    0 -0.56339034468E+02  0.97270263732E+02  0.15137218616E+02  0.16885488730E+03  0.12508895462E+03 0.  0.
         23    2    1    2    0    0  0.56339034468E+02 -0.97270263732E+02 -0.76279913095E+02  0.16454232974E+03  0.92843751132E+02 0.  0.
          5    1    3    3  502    0 -0.91170244824E+02  0.95305514802E+02  0.40798531543E+01  0.13201996930E+03  0.41800000000E+01 0. -1.
         -5    1    3    3    0  502  0.34831210356E+02  0.19647489293E+01  0.11057365461E+02  0.36834918001E+02  0.41800000000E+01 0. -1.
        -11    1    4    4    0    0  0.62207765759E+02 -0.67047752902E+02 -0.92211401179E+02  0.12987744145E+03  0.00000000000E+00 0. -1.
         11    1    4    4    0    0 -0.58687312907E+01 -0.30222510830E+02  0.15931488085E+02  0.34664888294E+02  0.00000000000E+00 0.  1.
</event>
<event>
 8    1  0.6689467E-009  0.9260512E+02  0.7561462E-02  0.1296663E+00
         -2   -1    0    0    0  501 -0.00000000000E+00  0.00000000000E+00  0.10219434737E+02  0.10219434737E+02  0.00000000000E+00 0. -1.
          2   -1    0    0  501    0  0.00000000000E+00 -0.00000000000E+00 -0.16819916926E+04  0.16819916926E+04  0.00000000000E+00 0.  1.
         25    2    1    2    0    0  0.23308214885E+02 -0.29263420092E+02 -0.13302486477E+04  0.13366408151E+04  0.12509030017E+03 0.  0.
         23    2    1    2    0    0 -0.23308214885E+02  0.29263420092E+02 -0.34152361014E+03  0.35557031223E+03  0.91609224546E+02 0.  0.
          5    1    3    3  502    0  0.52089647286E+02 -0.27895536815E+02 -0.29016775569E+03  0.29615247959E+03  0.41800000000E+01 0.  1.
         -5    1    3    3    0  502 -0.28781432401E+02 -0.13678832770E+01 -0.10400808920E+04  0.10404883355E+04  0.41800000000E+01 0.  1.
        -11    1    4    4    0    0 -0.12793528374E+01 -0.31860332663E+02 -0.14917585801E+03  0.15254558058E+03  0.00000000000E+00 0.  1.
         11    1    4    4    0    0 -0.22028862047E+02  0.61123752755E+02 -0.19234775213E+03  0.20302473165E+03  0.00000000000E+00 0. -1.
</event>
<event>
 8    1  0.6689467E-009  0.9742916E+02  0.7561462E-02  0.1285797E+00
         -1   -1    0    0    0  501 -0.00000000000E+00  0.00000000000E+00  0.24780005310E+02  0.24780005310E+02  0.00000000000E+00 0.  1.
          1   -1    0    0  501    0  0.00000000000E+00 -0.00000000000E+00 -0.54504218716E+03  0.54504218716E+03  0.00000000000E+00 0. -1.
         25    2    1    2    0    0 -0.28367805485E+02 -0.19627018362E+02 -0.34753786879E+03  0.37097408778E+03  0.12509696771E+03 0.  0.
         23    2    1    2    0    0  0.28367805485E+02  0.19627018362E+02 -0.17272431307E+03  0.19884810469E+03  0.92287204833E+02 0.  0.
          5    1    3    3  502    0  0.41016649651E+00 -0.55849570463E+02 -0.29739101791E+03  0.30261895627E+03  0.41800000000E+01 0. -1.
         -5    1    3    3    0  502 -0.28777971982E+02  0.36222552101E+02 -0.50146850873E+02  0.68355131515E+02  0.41800000000E+01 0. -1.
        -11    1    4    4    0    0 -0.22370774972E+02  0.33055904036E+02 -0.11025084071E+03  0.11725353829E+03  0.00000000000E+00 0. -1.
         11    1    4    4    0    0  0.50738580457E+02 -0.13428885674E+02 -0.62473472354E+02  0.81594566395E+02  0.00000000000E+00 0.  1.
</event>
<event>
 8    1  0.6689467E-009  0.1175479E+03  0.7561462E-02  0.1247198E+00
         -1   -1    0    0    0  501 -0.00000000000E+00  0.00000000000E+00  0.15479070593E+02  0.15479070593E+02  0.00000000000E+00 0.  1.
          1   -1    0    0  501    0  0.00000000000E+00 -0.00000000000E+00 -0.14591260560E+04  0.14591260560E+04  0.00000000000E+00 0. -1.
         25    2    1    2    0    0  0.59446988732E+02  0.10648146516E+02 -0.11969409770E+04  0.12049743193E+04  0.12509228706E+03 0.  0.
         23    2    1    2    0    0 -0.59446988732E+02 -0.10648146516E+02 -0.24670600840E+03  0.26963080727E+03  0.90496354387E+02 0.  0.
          5    1    3    3  502    0 -0.12181227407E+02 -0.41448174755E+02 -0.58954096201E+03  0.59113649167E+03  0.41800000000E+01 0. -1.
         -5    1    3    3    0  502  0.71628216139E+02  0.52096321271E+02 -0.60740001495E+03  0.61383782761E+03  0.41800000000E+01 0. -1.
        -11    1    4    4    0    0 -0.50802607819E+02  0.31647957249E+02 -0.98444797182E+02  0.11521230946E+03  0.00000000000E+00 0.  1.
         11    1    4    4    0    0 -0.86443809134E+01 -0.42296103765E+02 -0.14826121122E+03  0.15441849781E+03  0.00000000000E+00 0. -1.
</event>
<event>
 8    1  0.6689467E-009  0.1718107E+03  0.7561462E-02  0.1175973E+00
         -1   -1    0    0    0  501 -0.00000000000E+00  0.00000000000E+00  0.62559776876E+03  0.62559776876E+03  0.00000000000E+00 0.  1.
          1   -1    0    0  501    0  0.00000000000E+00 -0.00000000000E+00 -0.13073841122E+03  0.13073841122E+03  0.00000000000E+00 0. -1.
         25    2    1    2    0    0  0.42544960060E+02  0.14784084927E+03  0.53490015812E+03  0.57046440400E+03  0.12507784269E+03 0.  0.
         23    2    1    2    0    0 -0.42544960060E+02 -0.14784084927E+03 -0.40040800584E+02  0.18587177598E+03  0.96322692307E+02 0.  0.
          5    1    3    3  502    0  0.17655589133E+02 -0.12237804967E+02  0.16733670213E+03  0.16876174916E+03  0.41800000000E+01 0.  1.
         -5    1    3    3    0  502  0.24889370926E+02  0.16007865424E+03  0.36756345599E+03  0.40170265484E+03  0.41800000000E+01 0.  1.
        -11    1    4    4    0    0 -0.46157704117E+02 -0.84902211984E+02 -0.66703074627E+02  0.11742324903E+03  0.00000000000E+00 0. -1.
         11    1    4    4    0    0  0.36127440580E+01 -0.62938637291E+02  0.26662274043E+02  0.68448526944E+02  0.00000000000E+00 0.  1.
</event>
<event>
 8    1  0.6689467E-009  0.1420405E+03  0.7561462E-02  0.1210609E+00
          1   -1    0    0  501    0  0.00000000000E+00  0.00000000000E+00  0.42414689993E+02  0.42414689993E+02  0.00000000000E+00 0. -1.
         -1   -1    0    0    0  501 -0.00000000000E+00 -0.00000000000E+00 -0.60143365933E+03  0.60143365933E+03  0.00000000000E+00 0.  1.
         25    2    1    2    0    0  0.73460493842E+02 -0.66106106805E+02 -0.17410070219E+03  0.23606287313E+03  0.12509262191E+03 0.  0.
         23    2    1    2    0    0 -0.73460493842E+02  0.66106106805E+02 -0.38491826715E+03  0.40778547619E+03  0.91435554875E+02 0.  0.
          5    1    3    3  502    0  0.25945335510E+02  0.31370441236E+02 -0.89666821574E+02  0.98564072101E+02  0.41800000000E+01 0.  1.
         -5    1    3    3    0  502  0.47515158332E+02 -0.97476548040E+02 -0.84433880615E+02  0.13749880103E+03  0.41800000000E+01 0.  1.
        -11    1    4    4    0    0 -0.25396457848E+00  0.61269559482E+02 -0.17499438927E+03  0.18541051668E+03  0.00000000000E+00 0. -1.
         11    1    4    4    0    0 -0.73206529264E+02  0.48365473223E+01 -0.20992387788E+03  0.22237495951E+03  0.00000000000E+00 0.  1.
</event>
<event>
 8    1  0.6689467E-009  0.1151138E+03  0.7561462E-02  0.1251383E+00
         -2   -1    0    0    0  501 -0.00000000000E+00  0.00000000000E+00  0.75136114347E+03  0.75136114347E+03  0.00000000000E+00 0.  1.
          2   -1    0    0  501    0  0.00000000000E+00 -0.00000000000E+00 -0.18249412942E+02  0.18249412942E+02  0.00000000000E+00 0. -1.
         25    2    1    2    0    0  0.33301123345E+02 -0.69878927676E+01  0.34259979707E+03  0.36630580263E+03  0.12509006605E+03 0.  0.
         23    2    1    2    0    0 -0.33301123345E+02  0.69878927676E+01  0.39051193345E+03  0.40330475378E+03  0.94854408383E+02 0.  0.
          5    1    3    3  502    0  0.78670556333E+02 -0.21606856639E+02  0.22275500063E+03  0.23726182877E+03  0.41800000000E+01 0. -1.
         -5    1    3    3    0  502 -0.45369432987E+02  0.14618963872E+02  0.11984479645E+03  0.12904397386E+03  0.41800000000E+01 0. -1.
        -11    1    4    4    0    0  0.32000187203E+02  0.14160299477E+02  0.12790927428E+03  0.13260960941E+03  0.00000000000E+00 0. -1.
         11    1    4    4    0    0 -0.65301310548E+02 -0.71724067095E+01  0.26260265917E+03  0.27069514436E+03  0.00000000000E+00 0.  1.
</event>
<event>
 8    1  0.6689467E-009  0.1016289E+03  0.7561462E-02  0.1276907E+00
         -4   -1    0    0    0  501 -0.00000000000E+00  0.00000000000E+00  0.29206639487E+03  0.29206639487E+03  0.00000000000E+00 0.  1.
          4   -1    0    0  501    0  0.00000000000E+00 -0.00000000000E+00 -0.50090816789E+02  0.50090816789E+02  0.00000000000E+00 0. -1.
         25    2    1    2    0    0 -0.21097797865E+02  0.47525287326E+02  0.86852657030E+02  0.16092368704E+03  0.12509707833E+03 0.  0.
         23    2    1    2    0    0  0.21097797865E+02 -0.47525287326E+02  0.15512292105E+03  0.18123352462E+03  0.77966016959E+02 0.  0.
          5    1    3    3  502    0 -0.42042294325E+02 -0.21915968350E+02 -0.12433438466E+00  0.47595714512E+02  0.41800000000E+01 0. -1.
         -5    1    3    3    0  502  0.20944496460E+02  0.69441255676E+02  0.86976991414E+02  0.11332797253E+03  0.41800000000E+01 0. -1.
        -11    1    4    4    0    0 -0.52663963930E+01 -0.55279572757E+02  0.13825194998E+03  0.14898713961E+03  0.00000000000E+00 0.  1.
         11    1    4    4    0    0  0.26364194258E+02  0.77542854315E+01  0.16870971070E+02  0.32246385010E+02  0.00000000000E+00 0. -1.
</event>
<event>
 8    1  0.6689467E-009  0.1694455E+03  0.7561462E-02  0.1178427E+00
         -1   -1    0    0    0  501 -0.00000000000E+00  0.00000000000E+00  0.41202750381E+02  0.41202750381E+02  0.00000000000E+00 0. -1.
          1   -1    0    0  501    0  0.00000000000E+00 -0.00000000000E+00 -0.85905091761E+03  0.85905091761E+03  0.00000000000E+00 0.  1.
         25    2    1    2    0    0  0.86981057344E+02  0.11294145647E+03 -0.29314066745E+03  0.34914192118E+03  0.12508858175E+03 0.  0.
         23    2    1    2    0    0 -0.86981057344E+02 -0.11294145647E+03 -0.52470749978E+03  0.55111174681E+03  0.89915072284E+02 0.  0.
          5    1    3    3  502    0 -0.15756233151E+02  0.66378802662E+02 -0.63664063632E+02  0.93407653456E+02  0.41800000000E+01 0. -1.
         -5    1    3    3    0  502  0.10273729049E+03  0.46562653807E+02 -0.22947660382E+03  0.25573426772E+03  0.41800000000E+01 0. -1.
        -11    1    4    4    0    0 -0.76760070097E+02 -0.45037617209E+02 -0.38862526049E+03  0.39868545047E+03  0.00000000000E+00 0.  1.
         11    1    4    4    0    0 -0.10220987247E+02 -0.67903839260E+02 -0.13608223928E+03  0.15242629633E+03  0.00000000000E+00 0. -1.
</event>
<event>
 8    1  0.6689467E-009  0.1201356E+03  0.7561462E-02  0.1242874E+00
         -2   -1    0    0    0  501 -0.00000000000E+00  0.00000000000E+00  0.55080506569E+02  0.55080506569E+02  0.00000000000E+00 0.  1.
          2   -1    0    0  501    0  0.00000000000E+00 -0.00000000000E+00 -0.37055096040E+03  0.37055096040E+03  0.00000000000E+00 0. -1.
         25    2    1    2    0    0  0.85125614970E+02 -0.24418382685E+02 -0.13147946193E+03  0.20193157164E+03  0.12508750129E+03 0.  0.
         23    2    1    2    0    0 -0.85125614970E+02  0.24418382685E+02 -0.18399099190E+03  0.22369989532E+03  0.91358252675E+02 0.  0.
          5    1    3    3  502    0  0.11078186584E+03  0.25532478732E+01 -0.73966434491E+02  0.13329533639E+03  0.41800000000E+01 0. -1.
         -5    1    3    3    0  502 -0.25656250868E+02 -0.26971630559E+02 -0.57513027443E+02  0.68636235250E+02  0.41800000000E+01 0. -1.
        -11    1    4    4    0    0 -0.37588617001E+02 -0.18046632049E+01 -0.15996352381E+03  0.16433042898E+03  0.00000000000E+00 0. -1.
         11    1    4    4    0    0 -0.47536997969E+02  0.26223045890E+02 -0.24027468084E+02  0.59369466346E+02  0.00000000000E+00 0.  1.
</event>
<event>
 8    1  0.6689467E-009  0.1042265E+03  0.7561462E-02  0.1271651E+00
         -1   -1    0    0    0  501 -0.00000000000E+00  0.00000000000E+00  0.72013488560E+02  0.72013488560E+02  0.00000000000E+00 0.  1.
          1   -1    0    0  501    0  0.00000000000E+00 -0.00000000000E+00 -0.17837444539E+03  0.17837444539E+03  0.00000000000E+00 0. -1.
         25    2    1    2    0    0  0.22454223940E+02 -0.81106989927E+00 -0.34540542678E+02  0.13171278353E+03  0.12510139188E+03 0.  0.
         23    2    1    2    0    0 -0.22454223940E+02  0.81106989927E+00 -0.71820414149E+02  0.11867515042E+03  0.91764750480E+02 0.  0.
          5    1    3    3  502    0  0.69366266673E+02  0.58179426958E+01  0.49253879016E+01  0.69908935448E+02  0.41800000000E+01 0.  1.
         -5    1    3    3    0  502 -0.46912042734E+02 -0.66290125951E+01 -0.39465930579E+02  0.61803848084E+02  0.41800000000E+01 0.  1.
        -11    1    4    4    0    0 -0.36474455719E+02 -0.36315328026E+02 -0.24762447554E+02  0.57117140847E+02  0.00000000000E+00 0.  1.
         11    1    4    4    0    0  0.14020231780E+02  0.37126397925E+02 -0.47057966595E+02  0.61558009569E+02  0.00000000000E+00 0. -1.
</event>
<event>
 8    1  0.6689467E-009  0.7165591E+02  0.7561462E-02  0.1354551E+00
         -2   -1    0    0    0  501 -0.00000000000E+00  0.00000000000E+00  0.13183894710E+02  0.13183894710E+02  0.00000000000E+00 0.  1.
          2   -1    0    0  501    0  0.00000000000E+00 -0.00000000000E+00 -0.91680288477E+03  0.91680288477E+03  0.00000000000E+00 0. -1.
         25    2    1    2    0    0 -0.63668361823E+01  0.23731536875E+02 -0.57252412039E+03  0.58654492767E+03  0.12508941322E+03 0.  0.
         23    2    1    2    0    0  0.63668361823E+01 -0.23731536875E+02 -0.33109486966E+03  0.34344185180E+03  0.87890673043E+02 0.  0.
          5    1    3    3  502    0  0.15330291922E+02 -0.53221398910E+01 -0.53097578776E+03  0.53124015531E+03  0.41800000000E+01 0. -1.
         -5    1    3    3    0  502 -0.21697128105E+02  0.29053676766E+02 -0.41548332631E+02  0.55304772362E+02  0.41800000000E+01 0. -1.
        -11    1    4    4    0    0  0.11566182111E+02  0.32027473539E+02 -0.99231628676E+02  0.10491163787E+03  0.00000000000E+00 0. -1.
         11    1    4    4    0    0 -0.51993459290E+01 -0.55759010415E+02 -0.23186324099E+03  0.23853021394E+03  0.00000000000E+00 0.  1.
</event>
<event>
 8    1  0.6689467E-009  0.1036396E+03  0.7561462E-02  0.1272823E+00
          3   -1    0    0  501    0  0.00000000000E+00  0.00000000000E+00  0.11205869218E+03  0.11205869218E+03  0.00000000000E+00 0. -1.
         -3   -1    0    0    0  501 -0.00000000000E+00 -0.00000000000E+00 -0.21207797149E+03  0.21207797149E+03  0.00000000000E+00 0.  1.
         25    2    1    2    0    0  0.16701341791E+02  0.15847502827E+02 -0.16448194601E+03  0.20792323168E+03  0.12509069329E+03 0.  0.
         23    2    1    2    0    0 -0.16701341791E+02 -0.15847502827E+02  0.64462666692E+02  0.11621343198E+03  0.93915111740E+02 0.  0.
          5    1    3    3  502    0 -0.33456996831E+02  0.53435844503E+02 -0.68294320291E+02  0.93039489996E+02  0.41800000000E+01 0.  1.
         -5    1    3    3    0  502  0.50158338621E+02 -0.37588341676E+02 -0.96187625716E+02  0.11488374169E+03  0.41800000000E+01 0.  1.
        -11    1    4    4    0    0  0.25048466092E+02 -0.28218551381E+02 -0.82002502902E+00  0.37741021935E+02  0.00000000000E+00 0.  1.
         11    1    4    4    0    0 -0.41749807883E+02  0.12371048555E+02  0.65282691721E+02  0.78472410050E+02  0.00000000000E+00 0. -1.
</event>
<event>
 8    1  0.6689467E-009  0.1339820E+03  0.7561462E-02  0.1221664E+00
          2   -1    0    0  501    0  0.00000000000E+00  0.00000000000E+00  0.12139685869E+04  0.12139685869E+04  0.00000000000E+00 0. -1.
         -2   -1    0    0    0  501 -0.00000000000E+00 -0.00000000000E+00 -0.17229047548E+02  0.17229047548E+02  0.00000000000E+00 0.  1.
         25    2    1    2    0    0  0.15442363930E+02 -0.99149761197E+02  0.76318625278E+03  0.77985267065E+03  0.12509112575E+03 0.  0.
         23    2    1    2    0    0 -0.15442363930E+02  0.99149761197E+02  0.43355328658E+03  0.45134496381E+03  0.75330487180E+02 0.  0.
          5    1    3    3  502    0 -0.41568148737E+02 -0.89449595258E+02  0.55643822635E+03  0.56512840419E+03  0.41800000000E+01 0.  1.
         -5    1    3    3    0  502  0.57010512667E+02 -0.97001659390E+01  0.20674802643E+03  0.21472426646E+03  0.41800000000E+01 0.  1.
        -11    1    4    4    0    0  0.20405925164E+01  0.92547787449E+02  0.41429061654E+03  0.42450673957E+03  0.00000000000E+00 0. -1.
         11    1    4    4    0    0 -0.17482956446E+02  0.66019737474E+01  0.19262670038E+02  0.26838224242E+02  0.00000000000E+00 0.  1.
</event>
<event>
 8    1  0.6689467E-009  0.7823472E+02  0.7561462E-02  0.1334137E+00
          4   -1    0    0  501    0  0.00000000000E+00  0.00000000000E+00  0.29706684161E+03  0.29706684161E+03  0.00000000000E+00 0. -1.
         -4   -1    0    0    0  501 -0.00000000000E+00 -0.00000000000E+00 -0.54261224888E+02  0.54261224888E+02  0.00000000000E+00 0.  1.
         25    2    1    2    0    0 -0.57080658803E+02 -0.33925993242E+02  0.15049281120E+03  0.20664402701E+03  0.12507794789E+03 0.  0.
         23    2    1    2    0    0  0.57080658803E+02  0.33925993242E+02  0.92312805519E+02  0.14468403949E+03  0.89457490426E+02 0.  0.
          5    1    3    3  502    0 -0.39339448014E+01 -0.35986807064E+02 -0.97747575898E+01  0.37729888554E+02  0.41800000000E+01 0. -1.
         -5    1    3    3    0  502 -0.53146714002E+02  0.20608138215E+01  0.16026756879E+03  0.16891413845E+03  0.41800000000E+01 0. -1.
        -11    1    4    4    0    0  0.34873803315E+02  0.17255705836E+02  0.10658374599E+03  0.11346381119E+03  0.00000000000E+00 0. -1.
         11    1    4    4    0    0  0.22206855488E+02  0.16670287407E+02 -0.14270940471E+02  0.31220228295E+02  0.00000000000E+00 0.  1.
</event>
<event>
 8    1  0.6689467E-009  0.8001912E+02  0.7561462E-02  0.1328997E+00
         -1   -1    0    0    0  501 -0.00000000000E+00  0.00000000000E+00  0.26539408612E+02  0.26539408612E+02  0.00000000000E+00 0.  1.
          1   -1    0    0  501    0  0.00000000000E+00 -0.00000000000E+00 -0.49622526778E+03  0.49622526778E+03  0.00000000000E+00 0. -1.
         25    2    1    2    0    0 -0.14007688544E+02  0.14229394997E+02 -0.34163036435E+03  0.36435867744E+03  0.12508896416E+03 0.  0.
         23    2    1    2    0    0  0.14007688544E+02 -0.14229394997E+02 -0.12805549481E+03  0.15840599896E+03  0.91079963401E+02 0.  0.
          5    1    3    3  502    0 -0.40779349330E+02  0.37666937171E+02 -0.31457819885E+03  0.31946622525E+03  0.41800000000E+01 0. -1.
         -5    1    3    3    0  502  0.26771660786E+02 -0.23437542174E+02 -0.27052165510E+02  0.44892452185E+02  0.41800000000E+01 0. -1.
        -11    1    4    4    0    0  0.55975285211E+01  0.26432600503E+02 -0.10975085387E+03  0.11302771616E+03  0.00000000000E+00 0. -1.
         11    1    4    4    0    0  0.84101600225E+01 -0.40661995500E+02 -0.18304640944E+02  0.45378282798E+02  0.00000000000E+00 0.  1.
</event>
<event>
 8    1  0.6689467E-009  0.6663177E+02  0.7561462E-02  0.1371936E+00
         -2   -1    0    0    0  501 -0.00000000000E+00  0.00000000000E+00  0.31761791092E+02  0.31761791092E+02  0.00000000000E+00 0.  1.
          2   -1    0    0  501    0  0.00000000000E+00 -0.00000000000E+00 -0.38635271858E+03  0.38635271858E+03  0.00000000000E+00 0. -1.
         25    2    1    2    0    0  0.51971098248E+00 -0.18240969485E+02 -0.16624044288E+03  0.20884561056E+03  0.12509037187E+03 0.  0.
         23    2    1    2    0    0 -0.51971098248E+00  0.18240969485E+02 -0.18835048461E+03  0.20926889911E+03  0.89356387657E+02 0.  0.
          5    1    3    3  502    0 -0.97745875690E+01  0.11452075374E+02 -0.17520380969E+03  0.17589923230E+03  0.41800000000E+01 0. -1.
         -5    1    3    3    0  502  0.10294298551E+02 -0.29693044860E+02  0.89633668172E+01  0.32946378259E+02  0.41800000000E+01 0. -1.
        -11    1    4    4    0    0 -0.20102019824E+02  0.47013030460E+02 -0.75584545907E+02  0.91254259156E+02  0.00000000000E+00 0.  1.
         11    1    4    4    0    0  0.19582308842E+02 -0.28772060975E+02 -0.11276593870E+03  0.11801463996E+03  0.00000000000E+00 0. -1.
</event>
<event>
 8    1  0.6689467E-009  0.1481439E+03  0.7561462E-02  0.1202772E+00
          1   -1    0    0  501    0  0.00000000000E+00  0.00000000000E+00  0.25821901618E+03  0.25821901618E+03  0.00000000000E+00 0. -1.
         -1   -1    0    0    0  501 -0.00000000000E+00 -0.00000000000E+00 -0.13872681537E+03  0.13872681537E+03  0.00000000000E+00 0.  1.
         25    2    1    2    0    0 -0.11075277039E+03 -0.44096058047E+02  0.16588522448E+03  0.23953194880E+03  0.12508800226E+03 0.  0.
         23    2    1    2    0    0  0.11075277039E+03  0.44096058047E+02 -0.46393023670E+02  0.15741388275E+03  0.91739737052E+02 0.  0.
          5    1    3    3  502    0 -0.72786880168E+02 -0.70364711125E+02  0.16444300298E+03  0.19315303810E+03  0.41800000000E+01 0.  1.
         -5    1    3    3    0  502 -0.37965890220E+02  0.26268653077E+02  0.14422214956E+01  0.46378910698E+02  0.41800000000E+01 0.  1.
        -11    1    4    4    0    0  0.72079990975E+02  0.71251568300E+02 -0.42812526594E+02  0.11002374070E+03  0.00000000000E+00 0.  1.
         11    1    4    4    0    0  0.38672779413E+02 -0.27155510252E+02 -0.35804970751E+01  0.47390142054E+02  0.00000000000E+00 0. -1.
</event>
<event>
 8    1  0.6689467E-009  0.1046439E+03  0.7561462E-02  0.1270823E+00
         -2   -1    0    0    0  501 -0.00000000000E+00  0.00000000000E+00  0.77403425972E+02  0.77403425972E+02  0.00000000000E+00 0.  1.
          2   -1    0    0  501    0  0.00000000000E+00 -0.00000000000E+00 -0.26378827990E+03  0.26378827990E+03  0.00000000000E+00 0. -1.
         25    2    1    2    0    0 -0.50344703027E+02  0.35744802363E+02 -0.18527290766E+03  0.23190346536E+03  0.12506353151E+03 0.  0.
         23    2    1    2    0    0  0.50344703027E+02 -0.35744802363E+02 -0.11119462666E+01  0.10928824051E+03  0.90168747749E+02 0.  0.
          5    1    3    3  502    0  0.34241812250E+01 -0.42510105361E+02 -0.74525949913E+02  0.85967573452E+02  0.41800000000E+01 0. -1.
         -5    1    3    3    0  502 -0.53768884252E+02  0.78254907724E+02 -0.11074695775E+03  0.14593589191E+03  0.41800000000E+01 0. -1.
        -11    1    4    4    0    0  0.28973892468E+02 -0.40212926880E+02  0.39367773175E+02  0.63296030664E+02  0.00000000000E+00 0.  1.
         11    1    4    4    0    0  0.21370810559E+02  0.44681245165E+01 -0.40479719442E+02  0.45992209848E+02  0.00000000000E+00 0. -1.
</event>
<event>
 8    1  0.6689467E-009  0.1152518E+03  0.7561462E-02  0.1251142E+00
          2   -1    0    0  501    0  0.00000000000E+00  0.00000000000E+00  0.80073414013E+02  0.80073414013E+02  0.00000000000E+00 0. -1.
         -2   -1    0    0    0  501 -0.00000000000E+00 -0.00000000000E+00 -0.22104813071E+03  0.22104813071E+03  0.00000000000E+00 0.  1.
         25    2    1    2    0    0 -0.32243016294E+02 -0.43144796745E+02 -0.18772339983E+02  0.13747936350E+03  0.12508832501E+03 0.  0.
         23    2    1    2    0    0  0.32243016294E+02  0.43144796745E+02 -0.12220237671E+03  0.16364218122E+03  0.94574082157E+02 0.  0.
          5    1    3    3  502    0  0.18449340243E+02  0.29587077663E+02  0.20237548789E+02  0.40531519847E+02  0.41800000000E+01 0.  1.
         -5    1    3    3    0  502 -0.50692356537E+02 -0.72731874408E+02 -0.39009888773E+02  0.96947843650E+02  0.41800000000E+01 0.  1.
        -11    1    4    4    0    0  0.50461548479E+02 -0.91241421692E+01 -0.75230254542E+02  0.91045093463E+02  0.00000000000E+00 0.  1.
         11    1    4    4    0    0 -0.18218532185E+02  0.52268938914E+02 -0.46972122167E+02  0.72597087759E+02  0.00000000000E+00 0. -1.
</event>
<event>
 8    1  0.6689467E-009  0.1257456E+03  0.7561462E-02  0.1233909E+00
          2   -1    0    0  501    0  0.00000000000E+00  0.00000000000E+00  0.25235408709E+03  0.25235408709E+03  0.00000000000E+00 0.  1.
         -2   -1    0    0    0  501 -0.00000000000E+00 -0.00000000000E+00 -0.86463128890E+02  0.86463128890E+02  0.00000000000E+00 0. -1.
         25    2    1    2    0    0 -0.30650927291E+02 -0.79795243524E+02  0.15330631222E+03  0.21553956143E+03  0.12509083476E+03 0.  0.
         23    2    1    2    0    0  0.30650927291E+02  0.79795243524E+02  0.12584645985E+02  0.12327765456E+03  0.87933193766E+02 0.  0.
          5    1    3    3  502    0  0.39362730641E+02 -0.69961074433E+02  0.88242697906E+02  0.11936591906E+03  0.41800000000E+01 0.  1.
         -5    1    3    3    0  502 -0.70013657931E+02 -0.98341690915E+01  0.65063614314E+02  0.96173642367E+02  0.41800000000E+01 0.  1.
        -11    1    4    4    0    0  0.34205522404E+02  0.18504841017E+02  0.40223428261E+02  0.55949719258E+02  0.00000000000E+00 0.  1.
         11    1    4    4    0    0 -0.35545951139E+01  0.61290402508E+02 -0.27638782276E+02  0.67327935299E+02  0.00000000000E+00 0. -1.
</event>
<event>
 8    1  0.6689467E-009  0.1243061E+03  0.7561462E-02  0.1236158E+00
          2   -1    0    0  501    0  0.00000000000E+00  0.00000000000E+00  0.32863886168E+03  0.32863886168E+03  0.00000000000E+00 0. -1.
         -2   -1    0    0    0  501 -0.00000000000E+00 -0.00000000000E+00 -0.66287142547E+02  0.66287142547E+02  0.00000000000E+00 0.  1.
         25    2    1    2    0    0  0.26521688411E+02  0.94826063245E+02  0.12084422060E+03  0.19986506536E+03  0.12508931397E+03 0.  0.
         23    2    1    2    0    0 -0.26521688411E+02 -0.94826063245E+02  0.14150749853E+03  0.19506093887E+03  0.91263440139E+02 0.  0.
          5    1    3    3  502    0 -0.23989568715E+02  0.52330865232E+02  0.12062502560E+03  0.13372317699E+03  0.41800000000E+01 0.  1.
         -5    1    3    3    0  502  0.50511257126E+02  0.42495198013E+02  0.21919500434E+00  0.66141888369E+02  0.41800000000E+01 0.  1.
        -11    1    4    4    0    0 -0.39754853301E+02 -0.12946934221E+02  0.16302802267E+02  0.44875971616E+02  0.00000000000E+00 0.  1.
         11    1    4    4    0    0  0.13233164890E+02 -0.81879129024E+02  0.12520469627E+03  0.15018496726E+03  0.00000000000E+00 0. -1.
</event>
<event>
 8    1  0.6689467E-009  0.1304982E+03  0.7561462E-02  0.1226718E+00
         -2   -1    0    0    0  501 -0.00000000000E+00  0.00000000000E+00  0.10336314631E+03  0.10336314631E+03  0.00000000000E+00 0.  1.
          2   -1    0    0  501    0  0.00000000000E+00 -0.00000000000E+00 -0.21022506557E+03  0.21022506557E+03  0.00000000000E+00 0. -1.
         25    2    1    2    0    0 -0.49097624960E+02 -0.84498338612E+02 -0.41239797563E+02  0.16400765309E+03  0.12508894181E+03 0.  0.
         23    2    1    2    0    0  0.49097624960E+02  0.84498338612E+02 -0.65622121704E+02  0.14958055879E+03  0.92290490878E+02 0.  0.
          5    1    3    3  502    0  0.25847847009E+02 -0.69018141287E+02 -0.46404716670E+02  0.87192231024E+02  0.41800000000E+01 0. -1.
         -5    1    3    3    0  502 -0.74945471969E+02 -0.15480197325E+02  0.51649191066E+01  0.76815422067E+02  0.41800000000E+01 0. -1.
        -11    1    4    4    0    0  0.50768086902E+02  0.36542620841E+02  0.65696406133E+01  0.62896120416E+02  0.00000000000E+00 0.  1.
         11    1    4    4    0    0 -0.16704619418E+01  0.47955717771E+02 -0.72191762317E+02  0.86684438376E+02  0.00000000000E+00 0. -1.
</event>
<event>
 8    1  0.6689467E-009  0.1269731E+03  0.7561462E-02  0.1232018E+00
          2   -1    0    0  501    0  0.00000000000E+00  0.00000000000E+00  0.36232621830E+03  0.36232621830E+03  0.00000000000E+00 0. -1.
         -2   -1    0    0    0  501 -0.00000000000E+00 -0.00000000000E+00 -0.60756691710E+02  0.60756691710E+02  0.00000000000E+00 0.  1.
         25    2    1    2    0    0  0.61572572151E+02  0.30635293946E+02  0.57258266910E+02  0.15380233278E+03  0.12508775146E+03 0.  0.
         23    2    1    2    0    0 -0.61572572151E+02 -0.30635293946E+02  0.24431125968E+03  0.26928057723E+03  0.89968521095E+02 0.  0.
          5    1    3    3  502    0  0.98919649176E+02  0.28657134891E+02  0.30045190976E+02  0.10736160521E+03  0.41800000000E+01 0.  1.
         -5    1    3    3    0  502 -0.37347077025E+02  0.19781590552E+01  0.27213075934E+02  0.46440727571E+02  0.41800000000E+01 0.  1.
        -11    1    4    4    0    0 -0.81256098824E+02 -0.40980707462E+02  0.19582848625E+03  0.21594158471E+03  0.00000000000E+00 0. -1.
         11    1    4    4    0    0  0.19683526673E+02  0.10345413516E+02  0.48482773434E+02  0.53338992519E+02  0.00000000000E+00 0.  1.
</event>
<event>
 8    1  0.6689467E-009  0.2494297E+03  0.7561462E-02  0.1113666E+00
         -2   -1    0    0    0  501 -0.00000000000E+00  0.00000000000E+00  0.65177502092E+02  0.65177502092E+02  0.00000000000E+00 0.  1.
          2   -1    0    0  501    0  0.00000000000E+00 -0.00000000000E+00 -0.10472279382E+04  0.10472279382E+04  0.00000000000E+00 0. -1.
         25    2    1    2    0    0 -0.21643253802E+03 -0.80644644952E+02 -0.60465655295E+03  0.65924475328E+03  0.12508994933E+03 0.  0.
         23    2    1    2    0    0  0.21643253802E+03  0.80644644952E+02 -0.37739388312E+03  0.45316068698E+03  0.97886990624E+02 0.  0.
          5    1    3    3  502    0 -0.11407347042E+03  0.23505608895E+02 -0.27350335386E+03  0.29729922179E+03  0.41800000000E+01 0. -1.
         -5    1    3    3    0  502 -0.10235906760E+03 -0.10415025385E+03 -0.33115319909E+03  0.36194553149E+03  0.41800000000E+01 0. -1.
        -11    1    4    4    0    0  0.17930532908E+03  0.45243830597E+02 -0.21881993894E+03  0.28649532443E+03  0.00000000000E+00 0.  1.
         11    1    4    4    0    0  0.37127208941E+02  0.35400814355E+02 -0.15857394417E+03  0.16666536254E+03  0.00000000000E+00 0. -1.
</event>
<event>
 8    1  0.6689467E-009  0.1487847E+03  0.7561462E-02  0.1201974E+00
          2   -1    0    0  501    0  0.00000000000E+00  0.00000000000E+00  0.63086432719E+03  0.63086432719E+03  0.00000000000E+00 0. -1.
         -2   -1    0    0    0  501 -0.00000000000E+00 -0.00000000000E+00 -0.41260348613E+02  0.41260348613E+02  0.00000000000E+00 0.  1.
         25    2    1    2    0    0 -0.10824850807E+03 -0.46132194443E+02  0.34262455212E+03  0.38325582386E+03  0.12509006333E+03 0.  0.
         23    2    1    2    0    0  0.10824850807E+03  0.46132194443E+02  0.24697942645E+03  0.28886885194E+03  0.92738652494E+02 0.  0.
          5    1    3    3  502    0 -0.87222350823E+02 -0.74339933862E+02  0.32299965463E+03  0.34275415904E+03  0.41800000000E+01 0.  1.
         -5    1    3    3    0  502 -0.21026157247E+02  0.28207739418E+02  0.19624897495E+02  0.40501664822E+02  0.41800000000E+01 0.  1.
        -11    1    4    4    0    0  0.77078526449E+02 -0.15290335534E+02  0.15685147111E+03  0.17543453933E+03  0.00000000000E+00 0.  1.
         11    1    4    4    0    0  0.31169981621E+02  0.61422529977E+02  0.90127955339E+02  0.11343431261E+03  0.00000000000E+00 0. -1.
</event>
<event>
 8    1  0.6689467E-009  0.8596924E+02  0.7561462E-02  0.1312917E+00
          3   -1    0    0  501    0  0.00000000000E+00  0.00000000000E+00  0.60822873924E+02  0.60822873924E+02  0.00000000000E+00 0. -1.
         -3   -1    0    0    0  501 -0.00000000000E+00 -0.00000000000E+00 -0.29631169921E+03  0.29631169921E+03  0.00000000000E+00 0.  1.
         25    2    1    2    0    0 -0.26679076517E+02 -0.48384348024E+02 -0.20380836851E+03  0.24543466962E+03  0.12508999848E+03 0.  0.
         23    2    1    2    0    0  0.26679076517E+02  0.48384348024E+02 -0.31680456773E+02  0.11169990351E+03  0.91762731243E+02 0.  0.
          5    1    3    3  502    0  0.10490324190E+02 -0.31801974576E+02 -0.20165929094E+03  0.20446357747E+03  0.41800000000E+01 0.  1.
         -5    1    3    3    0  502 -0.37169400707E+02 -0.16582373448E+02 -0.21490775721E+01  0.40971092157E+02  0.41800000000E+01 0.  1.
        -11    1    4    4    0    0  0.41786489088E+02  0.63428627061E+02 -0.30685193596E+01  0.76017874294E+02  0.00000000000E+00 0. -1.
         11    1    4    4    0    0 -0.15107412570E+02 -0.15044279038E+02 -0.28611937414E+02  0.35682029215E+02  0.00000000000E+00 0.  1.
</event>
<event>
 8    1  0.6689467E-009  0.2419904E+03  0.7561462E-02  0.1118474E+00
          1   -1    0    0  501    0  0.00000000000E+00  0.00000000000E+00  0.98547386443E+03  0.98547386443E+03  0.00000000000E+00 0. -1.
         -1   -1    0    0    0  501 -0.00000000000E+00 -0.00000000000E+00 -0.60678767763E+02  0.60678767763E+02  0.00000000000E+00 0.  1.
         25    2    1    2    0    0 -0.87834339696E+02  0.20034540336E+03  0.47944701833E+03  0.54163689536E+03  0.12509169097E+03 0.  0.
         23    2    1    2    0    0  0.87834339696E+02 -0.20034540336E+03  0.44534807834E+03  0.50451573683E+03  0.91367751186E+02 0.  0.
          5    1    3    3  502    0 -0.44220976934E+02 -0.24433886068E+01  0.88435380852E+02  0.98993706544E+02  0.41800000000E+01 0.  1.
         -5    1    3    3    0  502 -0.43613362762E+02  0.20278879197E+03  0.39101163748E+03  0.44264318882E+03  0.41800000000E+01 0.  1.
        -11    1    4    4    0    0  0.27267194980E+02 -0.15229083729E+03  0.34273183246E+03  0.37603338685E+03  0.00000000000E+00 0. -1.
         11    1    4    4    0    0  0.60567144716E+02 -0.48054566074E+02  0.10261624587E+03  0.12848234998E+03  0.00000000000E+00 0.  1.
</event>
<event>
 8    1  0.6689467E-009  0.1863752E+03  0.7561462E-02  0.1161772E+00
          2   -1    0    0  501    0  0.00000000000E+00  0.00000000000E+00  0.13131234959E+04  0.13131234959E+04  0.00000000000E+00 0. -1.
         -2   -1    0    0    0  501 -0.00000000000E+00 -0.00000000000E+00 -0.36024814735E+02  0.36024814735E+02  0.00000000000E+00 0.  1.
         25    2    1    2    0    0  0.15166210687E+03  0.67936423801E+02  0.96046297840E+03  0.98272764863E+03  0.12509095160E+03 0.  0.
         23    2    1    2    0    0 -0.15166210687E+03 -0.67936423801E+02  0.31663570282E+03  0.36642066205E+03  0.79932352292E+02 0.  0.
          5    1    3    3  502    0  0.26331599281E+02  0.76286755517E+02  0.43513995640E+03  0.44258024837E+03  0.41800000000E+01 0. -1.
         -5    1    3    3    0  502  0.12533050759E+03 -0.83503317163E+01  0.52532302199E+03  0.54014740026E+03  0.41800000000E+01 0. -1.
        -11    1    4    4    0    0 -0.16350195237E+02 -0.90873941446E+01  0.18864725839E+01  0.18800755182E+02  0.00000000000E+00 0.  1.
         11    1    4    4    0    0 -0.13531191163E+03 -0.58849029656E+02  0.31474923023E+03  0.34761990687E+03  0.00000000000E+00 0. -1.
</event>
<event>
 8    1  0.6689467E-009  0.2564494E+03  0.7561462E-02  0.1109295E+00
         -1   -1    0    0    0  501 -0.00000000000E+00  0.00000000000E+00  0.31236477284E+03  0.31236477284E+03  0.00000000000E+00 0.  1.
          1   -1    0    0  501    0  0.00000000000E+00 -0.00000000000E+00 -0.28358592548E+03  0.28358592548E+03  0.00000000000E+00 0. -1.
         25    2    1    2    0    0  0.45088106122E+01  0.23602925423E+03 -0.12996601392E+03  0.29709609194E+03  0.12507911435E+03 0.  0.
         23    2    1    2    0    0 -0.45088106122E+01 -0.23602925423E+03  0.15874486128E+03  0.29885460638E+03  0.91564220863E+02 0.  0.
          5    1    3    3  502    0  0.54322385204E+02  0.77658296666E+02 -0.78789853689E+02  0.12331685213E+03  0.41800000000E+01 0. -1.
         -5    1    3    3    0  502 -0.49813574591E+02  0.15837095756E+03 -0.51176160230E+02  0.17377923981E+03  0.41800000000E+01 0. -1.
        -11    1    4    4    0    0 -0.46233702525E+02 -0.13285000832E+03  0.10323917772E+03  0.17448497865E+03  0.00000000000E+00 0.  1.
         11    1    4    4    0    0  0.41724891912E+02 -0.10317924591E+03  0.55505683569E+02  0.12436962773E+03  0.00000000000E+00 0. -1.
</event>
<event>
 8    1  0.6689467E-009  0.1424343E+03  0.7561462E-02  0.1210090E+00
          1   -1    0    0  501    0  0.00000000000E+00  0.00000000000E+00  0.57154664185E+03  0.57154664185E+03  0.00000000000E+00 0. -1.
         -1   -1    0    0    0  501 -0.00000000000E+00 -0.00000000000E+00 -0.45943328724E+02  0.45943328724E+02  0.00000000000E+00 0.  1.
         25    2    1    2    0    0  0.10937879655E+03 -0.44715589010E+01  0.18798271402E+03  0.25093475312E+03  0.12508810326E+03 0.  0.
         23    2    1    2    0    0 -0.10937879655E+03  0.44715589010E+01  0.33762059911E+03  0.36655521746E+03  0.91604271366E+02 0.  0.
          5    1    3    3  502    0  0.12156479745E+02 -0.44555991151E+02  0.11172522155E+03  0.12096699499E+03  0.41800000000E+01 0.  1.
         -5    1    3    3    0  502  0.97222316804E+02  0.40084432250E+02  0.76257492468E+02  0.12996775812E+03  0.41800000000E+01 0.  1.
        -11    1    4    4    0    0 -0.24921454333E+02  0.35413712495E+02  0.17942208902E+03  0.18457382248E+03  0.00000000000E+00 0. -1.
         11    1    4    4    0    0 -0.84457342216E+02 -0.30942153594E+02  0.15819851010E+03  0.18198139498E+03  0.00000000000E+00 0.  1.
</event>
<event>
 8    1  0.6689467E-009  0.9862966E+02  0.7561462E-02  0.1283204E+00
         -1   -1    0    0    0  501 -0.00000000000E+00  0.00000000000E+00  0.97733208587E+02  0.97733208587E+02  0.00000000000E+00 0.  1.
          1   -1    0    0  501    0  0.00000000000E+00 -0.00000000000E+00 -0.26372176567E+03  0.26372176567E+03  0.00000000000E+00 0. -1.
         25    2    1    2    0    0 -0.22832853633E+02 -0.53450932966E+02 -0.20409560821E+03  0.24633480583E+03  0.12508987902E+03 0.  0.
         23    2    1    2    0    0  0.22832853633E+02  0.53450932966E+02  0.38107051122E+02  0.11512016843E+03  0.91772350921E+02 0.  0.
          5    1    3    3  502    0 -0.69580222552E+02 -0.55374106798E+01 -0.89808501353E+02  0.11382051486E+03  0.41800000000E+01 0.  1.
         -5    1    3    3    0  502  0.46747368920E+02 -0.47913522286E+02 -0.11428710686E+03  0.13251429097E+03  0.41800000000E+01 0.  1.
        -11    1    4    4    0    0  0.78706914476E+01  0.37801224195E+02  0.68007262520E+02  0.78204015818E+02  0.00000000000E+00 0.  1.
         11    1    4    4    0    0  0.14962162185E+02  0.15649708771E+02 -0.29900211398E+02  0.36916152610E+02  0.00000000000E+00 0. -1.
</event>
<event>
 8    1  0.6689467E-009  0.1086284E+03  0.7561462E-02  0.1263131E+00
         -2   -1    0    0    0  501 -0.00000000000E+00  0.00000000000E+00  0.50845516013E+03  0.50845516013E+03  0.00000000000E+00 0.  1.
          2   -1    0    0  501    0  0.00000000000E+00 -0.00000000000E+00 -0.33964919470E+02  0.33964919470E+02  0.00000000000E+00 0. -1.
         25    2    1    2    0    0  0.23971132742E+02 -0.38363389641E+02  0.39983480914E+03  0.42138257114E+03  0.12509609024E+03 0.  0.
         23    2    1    2    0    0 -0.23971132742E+02  0.38363389641E+02  0.74655431519E+02  0.12103750845E+03  0.83846765757E+02 0.  0.
          5    1    3    3  502    0 -0.44976587994E+02 -0.54917804728E+01  0.75529035988E+02  0.88176872238E+02  0.41800000000E+01 0. -1.
         -5    1    3    3    0  502  0.68947720737E+02 -0.32871609168E+02  0.32430577315E+03  0.33320569890E+03  0.41800000000E+01 0. -1.
        -11    1    4    4    0    0 -0.49573217179E+01  0.63525457000E+02  0.48933866564E+02  0.80340413383E+02  0.00000000000E+00 0.  1.
         11    1    4    4    0    0 -0.19013811024E+02 -0.25162067359E+02  0.25721564955E+02  0.40697095071E+02  0.00000000000E+00 0. -1.
</event>
<event>
 8    1  0.6689467E-009  0.1341915E+03  0.7561462E-02  0.1221366E+00
         -1   -1    0    0    0  501 -0.00000000000E+00  0.00000000000E+00  0.49321998347E+02  0.49321998347E+02  0.00000000000E+00 0.  1.
          1   -1    0    0  501    0  0.00000000000E+00 -0.00000000000E+00 -0.67639255156E+03  0.67639255156E+03  0.00000000000E+00 0. -1.
         25    2    1    2    0    0 -0.19882423521E+02  0.83792176474E+02 -0.98745668388E+02  0.18114726197E+03  0.12508870408E+03 0.  0.
         23    2    1    2    0    0  0.19882423521E+02 -0.83792176474E+02 -0.52832488482E+03  0.54456728794E+03  0.10004952557E+03 0.  0.
          5    1    3    3  502    0  0.24342873408E+02 -0.22652175231E+02 -0.81777880183E+01  0.34497030964E+02  0.41800000000E+01 0.  1.
         -5    1    3    3    0  502 -0.44225296929E+02  0.10644435170E+03 -0.90567880370E+02  0.14665023100E+03  0.41800000000E+01 0.  1.
        -11    1    4    4    0    0  0.37984960647E+02 -0.45649381381E+01 -0.76965946891E+02  0.85950293056E+02  0.00000000000E+00 0.  1.
         11    1    4    4    0    0 -0.18102537126E+02 -0.79227238335E+02 -0.45135893793E+03  0.45861699488E+03  0.00000000000E+00 0. -1.
</event>
<event>
 8    1  0.6689467E-009  0.1064385E+03  0.7561462E-02  0.1267311E+00
          1   -1    0    0  501    0  0.00000000000E+00  0.00000000000E+00  0.11057580048E+03  0.11057580048E+03  0.00000000000E+00 0. -1.
         -1   -1    0    0    0  501 -0.00000000000E+00 -0.00000000000E+00 -0.11382091985E+03  0.11382091985E+03  0.00000000000E+00 0.  1.
         25    2    1    2    0    0  0.78376807104E+01  0.28340293988E+02  0.45395275530E+01  0.12857558162E+03  0.12508585602E+03 0.  0.
         23    2    1    2    0    0 -0.78376807104E+01 -0.28340293988E+02 -0.77846469238E+01  0.95821138709E+02  0.90865221033E+02 0.  0.
          5    1    3    3  502    0 -0.89873199364E+01 -0.44580084589E+02 -0.19791002833E+02  0.49772603455E+02  0.41800000000E+01 0.  1.
         -5    1    3    3    0  502  0.16825000647E+02  0.72920378577E+02  0.24330530386E+02  0.78802978163E+02  0.41800000000E+01 0.  1.
        -11    1    4    4    0    0 -0.40611543472E+02 -0.40446787664E+02  0.72719970165E+01  0.57776483418E+02  0.00000000000E+00 0.  1.
         11    1    4    4    0    0  0.32773862762E+02  0.12106493676E+02 -0.15056643940E+02  0.38044655291E+02  0.00000000000E+00 0. -1.
</event>
<event>
 8    1  0.6689467E-009  0.1066475E+03  0.7561462E-02  0.1266907E+00
         -1   -1    0    0    0  501 -0.00000000000E+00  0.00000000000E+00  0.99119968066E+02  0.99119968066E+02  0.00000000000E+00 0.  1.
          1   -1    0    0  501    0  0.00000000000E+00 -0.00000000000E+00 -0.15996502709E+03  0.15996502709E+03  0.00000000000E+00 0. -1.
         25    2    1    2    0    0 -0.37789748261E+02 -0.17972723352E+02 -0.84838716172E+02  0.15683117081E+03  0.12508926620E+03 0.  0.
         23    2    1    2    0    0  0.37789748261E+02  0.17972723352E+02  0.23993657149E+02  0.10225382434E+03  0.90161328467E+02 0.  0.
          5    1    3    3  502    0  0.37295898177E+02 -0.41958914811E+01 -0.69142800134E+02  0.78783175466E+02  0.41800000000E+01 0.  1.
         -5    1    3    3    0  502 -0.75085646438E+02 -0.13776831870E+02 -0.15695916038E+02  0.78047995347E+02  0.41800000000E+01 0.  1.
        -11    1    4    4    0    0  0.28764832850E+02  0.54406994984E+02  0.18866516900E+02  0.64369885599E+02  0.00000000000E+00 0.  1.
         11    1    4    4    0    0  0.90249154105E+01 -0.36434271633E+02  0.51271402485E+01  0.37883938743E+02  0.00000000000E+00 0. -1.
</event>
<event>
 8    1  0.6689467E-009  0.1009383E+03  0.7561462E-02  0.1278335E+00
         -1   -1    0    0    0  501 -0.00000000000E+00  0.00000000000E+00  0.56762074748E+02  0.56762074748E+02  0.00000000000E+00 0.  1.
          1   -1    0    0  501    0  0.00000000000E+00 -0.00000000000E+00 -0.25944763573E+03  0.25944763573E+03  0.00000000000E+00 0. -1.
         25    2    1    2    0    0 -0.41526168280E+02 -0.23204472731E+02 -0.14750840316E+03  0.19917142178E+03  0.12509059135E+03 0.  0.
         23    2    1    2    0    0  0.41526168280E+02  0.23204472731E+02 -0.55177157821E+02  0.11703828870E+03  0.91600065881E+02 0.  0.
          5    1    3    3  502    0  0.34566257743E+02  0.24954842084E+02 -0.58289159627E+02  0.72337188553E+02  0.41800000000E+01 0.  1.
         -5    1    3    3    0  502 -0.76092426023E+02 -0.48159314815E+02 -0.89219243536E+02  0.12683423323E+03  0.41800000000E+01 0.  1.
        -11    1    4    4    0    0  0.23527868077E+02 -0.14129240151E+02  0.18083565171E+02  0.32866568619E+02  0.00000000000E+00 0.  1.
         11    1    4    4    0    0  0.17998300203E+02  0.37333712882E+02 -0.73260722993E+02  0.84171720080E+02  0.00000000000E+00 0. -1.
</event>
<event>
 8    1  0.6689467E-009  0.8246747E+02  0.7561462E-02  0.1322191E+00
         -1   -1    0    0    0  501 -0.00000000000E+00  0.00000000000E+00  0.19330654797E+02  0.19330654797E+02  0.00000000000E+00 0.  1.
          1   -1    0    0  501    0  0.00000000000E+00 -0.00000000000E+00 -0.65706069109E+03  0.65706069109E+03  0.00000000000E+00 0. -1.
         25    2    1    2    0    0  0.37532856606E+01 -0.14194171187E+02 -0.45205725693E+03  0.46927425786E+03  0.12508798461E+03 0.  0.
         23    2    1    2    0    0 -0.37532856606E+01  0.14194171187E+02 -0.18567277936E+03  0.20711708803E+03  0.90595504910E+02 0.  0.
          5    1    3    3  502    0  0.28985958326E+02 -0.32285782276E+02 -0.51401025476E+02  0.67395069087E+02  0.41800000000E+01 0.  1.
         -5    1    3    3    0  502 -0.25232672665E+02  0.18091611090E+02 -0.40065623146E+03  0.40187918877E+03  0.41800000000E+01 0.  1.
        -11    1    4    4    0    0  0.24026195809E+02  0.43464549384E+02 -0.81991317100E+02  0.95859278205E+02  0.00000000000E+00 0.  1.
         11    1    4    4    0    0 -0.27779481470E+02 -0.29270378198E+02 -0.10368146226E+03  0.11125780983E+03  0.00000000000E+00 0. -1.
</event>
<event>
 8    1  0.6689467E-009  0.4414854E+02  0.7561462E-02  0.1479728E+00
          3   -1    0    0  501    0  0.00000000000E+00  0.00000000000E+00  0.10811586357E+03  0.10811586357E+03  0.00000000000E+00 0. -1.
         -3   -1    0    0    0  501 -0.00000000000E+00 -0.00000000000E+00 -0.11260345821E+03  0.11260345821E+03  0.00000000000E+00 0.  1.
         25    2    1    2    0    0  0.39447043186E+01  0.28951338074E+02  0.33049584750E+01  0.12850007484E+03  0.12509039058E+03 0.  0.
         23    2    1    2    0    0 -0.39447043186E+01 -0.28951338074E+02 -0.77925531150E+01  0.92219246934E+02  0.87120175347E+02 0.  0.
          5    1    3    3  502    0  0.66738324928E+01 -0.12617690422E+02  0.57854388729E+02  0.59735658085E+02  0.41800000000E+01 0. -1.
         -5    1    3    3    0  502 -0.27291281742E+01  0.41569028497E+02 -0.54549430254E+02  0.68764416756E+02  0.41800000000E+01 0. -1.
        -11    1    4    4    0    0 -0.75857367857E+01 -0.11840682442E+02  0.39428940307E+02  0.41861515704E+02  0.00000000000E+00 0. -1.
         11    1    4    4    0    0  0.36410324670E+01 -0.17110655633E+02 -0.47221493422E+02  0.50357731230E+02  0.00000000000E+00 0.  1.
</event>
<event>
 8    1  0.6689467E-009  0.1169252E+03  0.7561462E-02  0.1248257E+00
          2   -1    0    0  501    0  0.00000000000E+00  0.00000000000E+00  0.28274691095E+03  0.28274691095E+03  0.00000000000E+00 0.  1.
         -2   -1    0    0    0  501 -0.00000000000E+00 -0.00000000000E+00 -0.60045774143E+02  0.60045774143E+02  0.00000000000E+00 0. -1.
         25    2    1    2    0    0  0.44182354384E+02 -0.37597123577E+02  0.18401931788E+03  0.22994762737E+03  0.12508867990E+03 0.  0.
         23    2    1    2    0    0 -0.44182354384E+02  0.37597123577E+02  0.38681818935E+02  0.11284505773E+03  0.88724854454E+02 0.  0.
          5    1    3    3  502    0  0.23963073714E+01 -0.72890343481E+02  0.14584426626E+03  0.16311580813E+03  0.41800000000E+01 0.  1.
         -5    1    3    3    0  502  0.41786047012E+02  0.35293219904E+02  0.38175051614E+02  0.66831819232E+02  0.41800000000E+01 0.  1.
        -11    1    4    4    0    0 -0.63697556915E+02  0.12706829964E+00  0.21347662031E+02  0.67179740827E+02  0.00000000000E+00 0. -1.
         11    1    4    4    0    0  0.19515202532E+02  0.37470055277E+02  0.17334156904E+02  0.45665316904E+02  0.00000000000E+00 0.  1.
</event>
<event>
 8    1  0.6689467E-009  0.8620390E+02  0.7561462E-02  0.1312314E+00
          1   -1    0    0  501    0  0.00000000000E+00  0.00000000000E+00  0.10646589261E+03  0.10646589261E+03  0.00000000000E+00 0. -1.
         -1   -1    0    0    0  501 -0.00000000000E+00 -0.00000000000E+00 -0.23370582325E+03  0.23370582325E+03  0.00000000000E+00 0.  1.
         25    2    1    2    0    0  0.30316853447E+02  0.37279217154E+02  0.41510716931E+02  0.14028344114E+03  0.12508977817E+03 0.  0.
         23    2    1    2    0    0 -0.30316853447E+02 -0.37279217154E+02 -0.16875064756E+03  0.19988827472E+03  0.95758496669E+02 0.  0.
          5    1    3    3  502    0  0.62604946229E+02 -0.13275777511E+02  0.47566432952E+02  0.79847752033E+02  0.41800000000E+01 0. -1.
         -5    1    3    3    0  502 -0.32288092782E+02  0.50554994665E+02 -0.60557160210E+01  0.60435689105E+02  0.41800000000E+01 0. -1.
        -11    1    4    4    0    0 -0.18833373680E+02 -0.25400504083E+02 -0.17811298194E+03  0.18089808155E+03  0.00000000000E+00 0.  1.
         11    1    4    4    0    0 -0.11483479767E+02 -0.11878713070E+02  0.93623343784E+01  0.18990193174E+02  0.00000000000E+00 0. -1.
</event>
<event>
 8    1  0.6689467E-009  0.1514586E+03  0.7561462E-02  0.1198692E+00
          1   -1    0    0  501    0  0.00000000000E+00  0.00000000000E+00  0.34920655024E+03  0.34920655024E+03  0.00000000000E+00 0. -1.
         -1   -1    0    0    0  501 -0.00000000000E+00 -0.00000000000E+00 -0.87373654284E+02  0.87373654284E+02  0.00000000000E+00 0.  1.
         25    2    1    2    0    0  0.36331636945E+02 -0.12418925034E+03  0.73779171766E+02  0.19450848864E+03  0.12508888129E+03 0.  0.
         23    2    1    2    0    0 -0.36331636945E+02  0.12418925034E+03  0.18805372419E+03  0.24207171589E+03  0.80570184989E+02 0.  0.
          5    1    3    3  502    0  0.77828786860E+02 -0.74846679882E+02  0.72051047304E+02  0.12987752450E+03  0.41800000000E+01 0. -1.
         -5    1    3    3    0  502 -0.41497149915E+02 -0.49342570458E+02  0.17281244620E+01  0.64630964132E+02  0.41800000000E+01 0. -1.
        -11    1    4    4    0    0 -0.27652772369E+02  0.68213249937E+02  0.16544900685E+03  0.18108312223E+03  0.00000000000E+00 0. -1.
         11    1    4    4    0    0 -0.86788645763E+01  0.55976000403E+02  0.22604717343E+02  0.60988593668E+02  0.00000000000E+00 0.  1.
</event>
<event>
 8    1  0.6689467E-009  0.8838158E+02  0.7561462E-02  0.1306819E+00
          2   -1    0    0  501    0  0.00000000000E+00  0.00000000000E+00  0.19083350080E+03  0.19083350080E+03  0.00000000000E+00 0.  1.
         -2   -1    0    0    0  501 -0.00000000000E+00 -0.00000000000E+00 -0.69541977231E+02  0.69541977231E+02  0.00000000000E+00 0. -1.
         25    2    1    2    0    0  0.12491370499E+02  0.31656147364E+02  0.87016403852E+02  0.15613296304E+03  0.12508997405E+03 0.  0.
         23    2    1    2    0    0 -0.12491370499E+02 -0.31656147364E+02  0.34275119722E+02  0.10424251499E+03  0.92377335408E+02 0.  0.
          5    1    3    3  502    0  0.27247337810E+02  0.49271513434E+02  0.10982498085E+03  0.12348723931E+03  0.41800000000E+01 0. -1.
         -5    1    3    3    0  502 -0.14755967312E+02 -0.17615366070E+02 -0.22808577001E+02  0.32645723731E+02  0.41800000000E+01 0. -1.
        -11    1    4    4    0    0  0.26413665091E+02  0.19389899239E+02  0.31672813072E+01  0.32919319053E+02  0.00000000000E+00 0.  1.
         11    1    4    4    0    0 -0.38905035590E+02 -0.51046046603E+02  0.31107838415E+02  0.71323195939E+02  0.00000000000E+00 0. -1.
</event>
<event>
 8    1  0.6689467E-009  0.1712843E+03  0.7561462E-02  0.1176515E+00
         -4   -1    0    0    0  501 -0.00000000000E+00  0.00000000000E+00  0.15365181837E+03  0.15365181837E+03  0.00000000000E+00 0.  1.
          4   -1    0    0  501    0  0.00000000000E+00 -0.00000000000E+00 -0.22111352515E+03  0.22111352515E+03  0.00000000000E+00 0. -1.
         25    2    1    2    0    0  0.21424956467E+02  0.14674684575E+03 -0.37608388607E+02  0.19762927831E+03  0.12509706333E+03 0.  0.
         23    2    1    2    0    0 -0.21424956467E+02 -0.14674684575E+03 -0.29853318178E+02  0.17713606520E+03  0.92153673236E+02 0.  0.
          5    1    3    3  502    0  0.68428504880E+02  0.50419999943E+02 -0.38879067122E+01  0.85189347298E+02  0.41800000000E+01 0. -1.
         -5    1    3    3    0  502 -0.47003548413E+02  0.96326845811E+02 -0.33720481895E+02  0.11243993101E+03  0.41800000000E+01 0. -1.
        -11    1    4    4    0    0 -0.25402551948E+02 -0.96095677173E+02 -0.61873006284E+02  0.11708090247E+03  0.00000000000E+00 0. -1.
         11    1    4    4    0    0  0.39775954807E+01 -0.50651168581E+02  0.32019688105E+02  0.60055162732E+02  0.00000000000E+00 0.  1.
</event>
<event>
 8    1  0.6689467E-009  0.1958491E+03  0.7561462E-02  0.1153289E+00
          2   -1    0    0  501    0  0.00000000000E+00  0.00000000000E+00  0.11482357545E+04  0.11482357545E+04  0.00000000000E+00 0. -1.
         -2   -1    0    0    0  501 -0.00000000000E+00 -0.00000000000E+00 -0.39182514030E+02  0.39182514030E+02  0.00000000000E+00 0.  1.
         25    2    1    2    0    0 -0.13975676102E+03  0.11574538867E+03  0.60325798906E+03  0.64226095449E+03  0.12509990028E+03 0.  0.
         23    2    1    2    0    0  0.13975676102E+03 -0.11574538867E+03  0.50579525142E+03  0.54515731405E+03  0.91862470311E+02 0.  0.
          5    1    3    3  502    0 -0.16567234913E+02 -0.38267482882E+01  0.28042005353E+01  0.17732828758E+02  0.41800000000E+01 0. -1.
         -5    1    3    3    0  502 -0.12318952611E+03  0.11957213695E+03  0.60045378852E+03  0.62452812573E+03  0.41800000000E+01 0. -1.
        -11    1    4    4    0    0  0.10091661121E+03 -0.25317449178E+02  0.23383357627E+03  0.25593607999E+03  0.00000000000E+00 0. -1.
         11    1    4    4    0    0  0.38840149813E+02 -0.90427939488E+02  0.27196167515E+03  0.28922123406E+03  0.00000000000E+00 0.  1.
</event>
<event>
 8    1  0.6689467E-009  0.9298595E+02  0.7561462E-02  0.1295778E+00
         -1   -1    0    0    0  501 -0.00000000000E+00  0.00000000000E+00  0.17807499437E+03  0.17807499437E+03  0.00000000000E+00 0.  1.
          1   -1    0    0  501    0  0.00000000000E+00 -0.00000000000E+00 -0.18386568210E+03  0.18386568210E+03  0.00000000000E+00 0. -1.
         25    2    1    2    0    0 -0.45734319848E+02  0.52070214213E+02  0.12562757613E+03  0.19034784891E+03  0.12508829074E+03 0.  0.
         23    2    1    2    0    0  0.45734319848E+02 -0.52070214213E+02 -0.13141826386E+03  0.17159282756E+03  0.85851052253E+02 0.  0.
          5    1    3    3  502    0 -0.70920043095E+02  0.28312734310E+02  0.13417644942E+03  0.15444110663E+03  0.41800000000E+01 0. -1.
         -5    1    3    3    0  502  0.25185723247E+02  0.23757479902E+02 -0.85488732939E+01  0.35906742283E+02  0.41800000000E+01 0. -1.
        -11    1    4    4    0    0  0.40485598883E+01 -0.24060385309E+02 -0.11675051957E+03  0.11927269930E+03  0.00000000000E+00 0. -1.
         11    1    4    4    0    0  0.41685759959E+02 -0.28009828904E+02 -0.14667744295E+02  0.52320128262E+02  0.00000000000E+00 0.  1.
</event>
<event>
 8    1  0.6689467E-009  0.1343487E+03  0.7561462E-02  0.1221142E+00
         -1   -1    0    0    0  501 -0.00000000000E+00  0.00000000000E+00  0.23993584163E+02  0.23993584163E+02  0.00000000000E+00 0.  1.
          1   -1    0    0  501    0  0.00000000000E+00 -0.00000000000E+00 -0.91397309057E+03  0.91397309057E+03  0.00000000000E+00 0. -1.
         25    2    1    2    0    0  0.45788482616E+02 -0.21169222382E+02 -0.25619845147E+03  0.28953306261E+03  0.12508807576E+03 0.  0.
         23    2    1    2    0    0 -0.45788482616E+02  0.21169222382E+02 -0.63378105494E+03  0.64843361212E+03  0.12744803885E+03 0.  0.
          5    1    3    3  502    0 -0.36643801142E+02 -0.32482851279E+02 -0.12264640211E+03  0.13212689408E+03  0.41800000000E+01 0.  1.
         -5    1    3    3    0  502  0.82432283759E+02  0.11313628897E+02 -0.13355204936E+03  0.15740616853E+03  0.41800000000E+01 0.  1.
        -11    1    4    4    0    0  0.43800146271E+02 -0.15103416158E+01 -0.23849589193E+03  0.24248922535E+03  0.00000000000E+00 0. -1.
         11    1    4    4    0    0 -0.89588628888E+02  0.22679563998E+02 -0.39528516301E+03  0.40594438677E+03  0.00000000000E+00 0.  1.
</event>
<event>
 8    1  0.6689467E-009  0.1001271E+03  0.7561462E-02  0.1280029E+00
         -2   -1    0    0    0  501 -0.00000000000E+00  0.00000000000E+00  0.13049334717E+03  0.13049334717E+03  0.00000000000E+00 0.  1.
          2   -1    0    0  501    0  0.00000000000E+00 -0.00000000000E+00 -0.91001311003E+02  0.91001311003E+02  0.00000000000E+00 0. -1.
         25    2    1    2    0    0 -0.19180556513E+01  0.52476322370E+01  0.29539011076E+02  0.12865961046E+03  0.12509806396E+03 0.  0.
         23    2    1    2    0    0  0.19180556513E+01 -0.52476322370E+01  0.99530250865E+01  0.92835047705E+02  0.92130704939E+02 0.  0.
          5    1    3    3  502    0  0.17016941790E+02  0.62333824451E+02  0.11818540388E+02  0.65819695194E+02  0.41800000000E+01 0.  1.
         -5    1    3    3    0  502 -0.18934997441E+02 -0.57086192214E+02  0.17720470688E+02  0.62839915269E+02  0.41800000000E+01 0.  1.
        -11    1    4    4    0    0 -0.24852893863E+02  0.24704347748E+02 -0.22111404677E+02  0.41435315225E+02  0.00000000000E+00 0.  1.
         11    1    4    4    0    0  0.26770949515E+02 -0.29951979985E+02  0.32064429763E+02  0.51399732480E+02  0.00000000000E+00 0. -1.
</event>
<event>
 8    1  0.6689467E-009  0.6903590E+02  0.7561462E-02  0.1363403E+00
         -1   -1    0    0    0  501 -0.00000000000E+00  0.00000000000E+00  0.27797587297E+02  0.27797587297E+02  0.00000000000E+00 0.  1.
          1   -1    0    0  501    0  0.00000000000E+00 -0.00000000000E+00 -0.49323464473E+03  0.49323464473E+03  0.00000000000E+00 0. -1.
         25    2    1    2    0    0  0.22811412110E+02 -0.11427837272E+02 -0.34851413526E+03  0.37115954112E+03  0.12508535686E+03 0.  0.
         23    2    1    2    0    0 -0.22811412110E+02  0.11427837272E+02 -0.11692292217E+03  0.14987269091E+03  0.90221381964E+02 0.  0.
          5    1    3    3  502    0 -0.29300648483E+01 -0.18939355234E+02 -0.34288174306E+03  0.34344234826E+03  0.41800000000E+01 0. -1.
         -5    1    3    3    0  502  0.25741476959E+02  0.75115179625E+01 -0.56323922052E+01  0.27717192861E+02  0.41800000000E+01 0. -1.
        -11    1    4    4    0    0  0.33752328966E+02  0.78528740070E+00 -0.27576713592E+02  0.43592562662E+02  0.00000000000E+00 0. -1.
         11    1    4    4    0    0 -0.56563741076E+02  0.10642549871E+02 -0.89346208581E+02  0.10628012825E+03  0.00000000000E+00 0.  1.
</event>
<event>
 8    1  0.6689467E-009  0.1127908E+03  0.7561462E-02  0.1255487E+00
          1   -1    0    0  501    0  0.00000000000E+00  0.00000000000E+00  0.11354334107E+03  0.11354334107E+03  0.00000000000E+00 0. -1.
         -1   -1    0    0    0  501 -0.00000000000E+00 -0.00000000000E+00 -0.15217850234E+03  0.15217850234E+03  0.00000000000E+00 0.  1.
         25    2    1    2    0    0 -0.62067703476E+02 -0.31645350430E+02  0.87669986016E+01  0.14344554918E+03  0.12508372115E+03 0.  0.
         23    2    1    2    0    0  0.62067703476E+02  0.31645350430E+02 -0.47402159870E+02  0.12227629422E+03  0.88604172308E+02 0.  0.
          5    1    3    3  502    0  0.37702481879E+02 -0.19034253145E+02  0.34035988118E+00  0.42442527934E+02  0.41800000000E+01 0.  1.
         -5    1    3    3    0  502 -0.99770185355E+02 -0.12611097285E+02  0.84266387204E+01  0.10100302125E+03  0.41800000000E+01 0.  1.
        -11    1    4    4    0    0  0.22509298626E+02  0.36243716925E+02 -0.65788758347E+02  0.78411965069E+02  0.00000000000E+00 0.  1.
         11    1    4    4    0    0  0.39558404851E+02 -0.45983664943E+01  0.18386598477E+02  0.43864329156E+02  0.00000000000E+00 0. -1.
</event>
<event>
 8    1  0.6689467E-009  0.7659224E+02  0.7561462E-02  0.1339010E+00
          2   -1    0    0  501    0  0.00000000000E+00  0.00000000000E+00  0.37334588446E+03  0.37334588446E+03  0.00000000000E+00 0. -1.
         -2   -1    0    0    0  501 -0.00000000000E+00 -0.00000000000E+00 -0.45680132630E+02  0.45680132630E+02  0.00000000000E+00 0.  1.
         25    2    1    2    0    0  0.54649756221E+02  0.47420863477E+02  0.15340119689E+03  0.21074727234E+03  0.12508857439E+03 0.  0.
         23    2    1    2    0    0 -0.54649756221E+02 -0.47420863477E+02  0.17426455494E+03  0.20827874476E+03  0.88184841437E+02 0.  0.
          5    1    3    3  502    0  0.37413831534E+02  0.45843612455E+02  0.17381526334E+03  0.18365905848E+03  0.41800000000E+01 0. -1.
         -5    1    3    3    0  502  0.17235924687E+02  0.15772510215E+01 -0.20414066453E+02  0.27088213853E+02  0.41800000000E+01 0. -1.
        -11    1    4    4    0    0 -0.19893109292E+02 -0.32780276210E+02  0.98432830392E+01  0.39587529940E+02  0.00000000000E+00 0.  1.
         11    1    4    4    0    0 -0.34756646929E+02 -0.14640587266E+02  0.16442127191E+03  0.16869121482E+03  0.00000000000E+00 0. -1.
</event>
<event>
 8    1  0.6689467E-009  0.7033395E+02  0.7561462E-02  0.1358961E+00
         -2   -1    0    0    0  501 -0.00000000000E+00  0.00000000000E+00  0.25543804079E+03  0.25543804079E+03  0.00000000000E+00 0.  1.
          2   -1    0    0  501    0  0.00000000000E+00 -0.00000000000E+00 -0.49268869294E+02  0.49268869294E+02  0.00000000000E+00 0. -1.
         25    2    1    2    0    0 -0.15325944693E+02 -0.35822167793E+01  0.15104022193E+03  0.19674466403E+03  0.12509035664E+03 0.  0.
         23    2    1    2    0    0  0.15325944693E+02  0.35822167793E+01  0.55128949562E+02  0.10796224605E+03  0.91481848665E+02 0.  0.
          5    1    3    3  502    0  0.31816625555E+02 -0.46776228065E-01  0.14546079601E+03  0.14895843523E+03  0.41800000000E+01 0. -1.
         -5    1    3    3    0  502 -0.47142570247E+02 -0.35354405513E+01  0.55794259225E+01  0.47786228801E+02  0.41800000000E+01 0. -1.
        -11    1    4    4    0    0  0.32121754821E+02 -0.15526551841E+02  0.69946993336E+02  0.78520461165E+02  0.00000000000E+00 0.  1.
         11    1    4    4    0    0 -0.16795810128E+02  0.19108768620E+02 -0.14818043774E+02  0.29441784887E+02  0.00000000000E+00 0. -1.
</event>
<event>
 8    1  0.6689467E-009  0.1282897E+03  0.7561462E-02  0.1230016E+00
          1   -1    0    0  501    0  0.00000000000E+00  0.00000000000E+00  0.30891744067E+02  0.30891744067E+02  0.00000000000E+00 0. -1.
         -1   -1    0    0    0  501 -0.00000000000E+00 -0.00000000000E+00 -0.72760725515E+03  0.72760725515E+03  0.00000000000E+00 0.  1.
         25    2    1    2    0    0  0.52770268832E+02 -0.89350447447E+02 -0.35734525139E+03  0.39257294914E+03  0.12509871292E+03 0.  0.
         23    2    1    2    0    0 -0.52770268832E+02  0.89350447447E+02 -0.33937025970E+03  0.36592605008E+03  0.89227222461E+02 0.  0.
          5    1    3    3  502    0  0.14325607678E+02  0.26541220797E+02 -0.13971799712E+03  0.14299737954E+03  0.41800000000E+01 0. -1.
         -5    1    3    3    0  502  0.38444661154E+02 -0.11589166824E+03 -0.21762725427E+03  0.24957556960E+03  0.41800000000E+01 0. -1.
        -11    1    4    4    0    0 -0.35027771831E+02  0.64875491108E+02 -0.32347797531E+03  0.33177367987E+03  0.00000000000E+00 0.  1.
         11    1    4    4    0    0 -0.17742497001E+02  0.24474956339E+02 -0.15892284387E+02  0.34152370206E+02  0.00000000000E+00 0. -1.
</event>
<event>
 8    1  0.6689467E-009  0.1126196E+03  0.7561462E-02  0.1255794E+00
          3   -1    0    0  501    0  0.00000000000E+00  0.00000000000E+00  0.28176359784E+02  0.28176359784E+02  0.00000000000E+00 0. -1.
         -3   -1    0    0    0  501 -0.00000000000E+00 -0.00000000000E+00 -0.66217375591E+03  0.66217375591E+03  0.00000000000E+00 0.  1.
         25    2    1    2    0    0  0.44861428339E+02 -0.50496142233E+02 -0.23762478769E+03  0.27690211294E+03  0.12508729870E+03 0.  0.
         23    2    1    2    0    0 -0.44861428339E+02  0.50496142233E+02 -0.39637260843E+03  0.41344800275E+03  0.96257976950E+02 0.  0.
          5    1    3    3  502    0  0.66390239036E+02 -0.17944888274E+02 -0.22554716483E+03  0.23583612704E+03  0.41800000000E+01 0.  1.
         -5    1    3    3    0  502 -0.21528810697E+02 -0.32551253958E+02 -0.12077622861E+02  0.41065985904E+02  0.41800000000E+01 0.  1.
        -11    1    4    4    0    0 -0.42305392292E+02 -0.19826402614E+02 -0.13979531614E+03  0.14739593913E+03  0.00000000000E+00 0. -1.
         11    1    4    4    0    0 -0.25560360470E+01  0.70322544847E+02 -0.25657729229E+03  0.26605206362E+03  0.00000000000E+00 0.  1.
</event>
<event>
 8    1  0.6689467E-009  0.1239164E+03  0.7561462E-02  0.1236773E+00
          1   -1    0    0  501    0  0.00000000000E+00  0.00000000000E+00  0.38408813863E+02  0.38408813863E+02  0.00000000000E+00 0. -1.
         -1   -1    0    0    0  501 -0.00000000000E+00 -0.00000000000E+00 -0.58530041181E+03  0.58530041181E+03  0.00000000000E+00 0.  1.
         25    2    1    2    0    0 -0.14432641704E+02 -0.99876119111E+02 -0.24773011707E+03  0.29529708610E+03  0.12508644148E+03 0.  0.
         23    2    1    2    0    0  0.14432641704E+02  0.99876119111E+02 -0.29916148088E+03  0.32841213957E+03  0.90406866222E+02 0.  0.
          5    1    3    3  502    0  0.20392724553E+02  0.12546302638E+02 -0.40349981608E+01  0.24637908490E+02  0.41800000000E+01 0. -1.
         -5    1    3    3    0  502 -0.34825366258E+02 -0.11242242175E+03 -0.24369511891E+03  0.27065917761E+03  0.41800000000E+01 0. -1.
        -11    1    4    4    0    0 -0.52235420913E+01  0.68744881927E+02 -0.77557156850E+02  0.10377021134E+03  0.00000000000E+00 0. -1.
         11    1    4    4    0    0  0.19656183796E+02  0.31131237183E+02 -0.22160432403E+03  0.22464192823E+03  0.00000000000E+00 0.  1.
</event>
<event>
 8    1  0.6689467E-009  0.8214922E+02  0.7561462E-02  0.1323061E+00
          2   -1    0    0  501    0  0.00000000000E+00  0.00000000000E+00  0.62546374638E+02  0.62546374638E+02  0.00000000000E+00 0. -1.
         -2   -1    0    0    0  501 -0.00000000000E+00 -0.00000000000E+00 -0.27471612808E+03  0.27471612808E+03  0.00000000000E+00 0.  1.
         25    2    1    2    0    0 -0.46226647993E+02 -0.33497299758E+02 -0.58116791412E+02  0.14928054307E+03  0.12509255381E+03 0.  0.
         23    2    1    2    0    0  0.46226647993E+02  0.33497299758E+02 -0.15405296203E+03  0.18798195965E+03  0.91356061468E+02 0.  0.
          5    1    3    3  502    0 -0.25320102320E+02  0.23431666780E+02  0.27473261332E+02  0.44299018926E+02  0.41800000000E+01 0. -1.
         -5    1    3    3    0  502 -0.20906545673E+02 -0.56928966538E+02 -0.85590052744E+02  0.10498152414E+03  0.41800000000E+01 0. -1.
        -11    1    4    4    0    0  0.24168179469E+02 -0.47257524574E+01 -0.13928499126E+03  0.14144519230E+03  0.00000000000E+00 0.  1.
         11    1    4    4    0    0  0.22058468524E+02  0.38223052216E+02 -0.14767970771E+02  0.46536767346E+02  0.00000000000E+00 0. -1.
</event>
<event>
 8    1  0.6689467E-009  0.1989447E+03  0.7561462E-02  0.1150632E+00
          1   -1    0    0  501    0  0.00000000000E+00  0.00000000000E+00  0.40178954238E+03  0.40178954238E+03  0.00000000000E+00 0. -1.
         -1   -1    0    0    0  501 -0.00000000000E+00 -0.00000000000E+00 -0.18094503447E+03  0.18094503447E+03  0.00000000000E+00 0.  1.
         25    2    1    2    0    0  0.72658735010E+02 -0.16963043566E+03 -0.63395979087E+02  0.23177629431E+03  0.12508966369E+03 0.  0.
         23    2    1    2    0    0 -0.72658735010E+02  0.16963043566E+03  0.28424048699E+03  0.35095828254E+03  0.91243000627E+02 0.  0.
          5    1    3    3  502    0  0.17079441523E+02 -0.34559213306E+01 -0.53279039605E+02  0.56211913117E+02  0.41800000000E+01 0. -1.
         -5    1    3    3    0  502  0.55579293487E+02 -0.16617451433E+03 -0.10116939482E+02  0.17556438119E+03  0.41800000000E+01 0. -1.
        -11    1    4    4    0    0 -0.82877298124E+02  0.82397423418E+02  0.14359842095E+03  0.18514450688E+03  0.00000000000E+00 0.  1.
         11    1    4    4    0    0  0.10218563114E+02  0.87233012246E+02  0.14064206604E+03  0.16581377566E+03  0.00000000000E+00 0. -1.
</event>
<event>
 8    1  0.6689467E-009  0.2608751E+03  0.7561462E-02  0.1106619E+00
         -1   -1    0    0    0  501 -0.00000000000E+00  0.00000000000E+00  0.71314361381E+02  0.71314361381E+02  0.00000000000E+00 0. -1.
          1   -1    0    0  501    0  0.00000000000E+00 -0.00000000000E+00 -0.13122606338E+04  0.13122606338E+04  0.00000000000E+00 0.  1.
         25    2    1    2    0    0  0.25276910367E+03 -0.63032016616E+02 -0.87387788663E+03  0.92042167903E+03  0.12509297177E+03 0.  0.
         23    2    1    2    0    0 -0.25276910367E+03  0.63032016616E+02 -0.36706838581E+03  0.46315331618E+03  0.10911709095E+03 0.  0.
          5    1    3    3  502    0  0.38840320156E+02 -0.15445756192E+02 -0.35032593266E+03  0.35283547631E+03  0.41800000000E+01 0.  1.
         -5    1    3    3    0  502  0.21392878351E+03 -0.47586260424E+02 -0.52355195398E+03  0.56758620271E+03  0.41800000000E+01 0.  1.
        -11    1    4    4    0    0 -0.13825187220E+03  0.32250524544E+02 -0.28663977503E+03  0.31986878111E+03  0.00000000000E+00 0. -1.
         11    1    4    4    0    0 -0.11451723147E+03  0.30781492072E+02 -0.80428610785E+02  0.14328453507E+03  0.00000000000E+00 0.  1.
</event>
<event>
 8    1  0.6689467E-009  0.1174610E+03  0.7561462E-02  0.1247345E+00
          2   -1    0    0  501    0  0.00000000000E+00  0.00000000000E+00  0.26109479624E+02  0.26109479624E+02  0.00000000000E+00 0. -1.
         -2   -1    0    0    0  501 -0.00000000000E+00 -0.00000000000E+00 -0.57919093032E+03  0.57919093032E+03  0.00000000000E+00 0.  1.
         25    2    1    2    0    0  0.56733241940E+02 -0.21613758914E+02 -0.33441654558E+03  0.36217170932E+03  0.12509238890E+03 0.  0.
         23    2    1    2    0    0 -0.56733241940E+02  0.21613758914E+02 -0.21866490512E+03  0.24312870062E+03  0.87243389560E+02 0.  0.
          5    1    3    3  502    0  0.80719496686E+02  0.17605533884E+02 -0.14239834367E+03  0.16468258150E+03  0.41800000000E+01 0. -1.
         -5    1    3    3    0  502 -0.23986254746E+02 -0.39219292798E+02 -0.19201820190E+03  0.19748912782E+03  0.41800000000E+01 0. -1.
        -11    1    4    4    0    0 -0.30542948382E+02  0.55415981610E+02 -0.12218258229E+03  0.13759500764E+03  0.00000000000E+00 0. -1.
         11    1    4    4    0    0 -0.26190293558E+02 -0.33802222696E+02 -0.96482322831E+02  0.10553369298E+03  0.00000000000E+00 0.  1.
</event>
<event>
 8    1  0.6689467E-009  0.1228648E+03  0.7561462E-02  0.1238444E+00
         -1   -1    0    0    0  501 -0.00000000000E+00  0.00000000000E+00  0.13712445116E+04  0.13712445116E+04  0.00000000000E+00 0. -1.
          1   -1    0    0  501    0  0.00000000000E+00 -0.00000000000E+00 -0.14409231569E+02  0.14409231569E+02  0.00000000000E+00 0.  1.
         25    2    1    2    0    0  0.40168475934E+02 -0.75204185031E+02  0.88477100528E+03  0.89762874697E+03  0.12509380364E+03 0.  0.
         23    2    1    2    0    0 -0.40168475934E+02  0.75204185031E+02  0.47206427474E+03  0.48802499618E+03  0.89747097489E+02 0.  0.
          5    1    3    3  502    0 -0.11998814886E+02  0.18749207796E+02  0.41863333640E+03  0.41924556896E+03  0.41800000000E+01 0. -1.
         -5    1    3    3    0  502  0.52167290820E+02 -0.93953392827E+02  0.46613766888E+03  0.47838317801E+03  0.41800000000E+01 0. -1.
        -11    1    4    4    0    0  0.71147078884E+01  0.67203945407E+02  0.18445144140E+03  0.19644165440E+03  0.00000000000E+00 0.  1.
         11    1    4    4    0    0 -0.47283183823E+02  0.80002396242E+01  0.28761283333E+03  0.29158334178E+03  0.00000000000E+00 0. -1.
</event>
<event>
 8    1  0.6689467E-009  0.1343521E+03  0.7561462E-02  0.1221137E+00
          1   -1    0    0  501    0  0.00000000000E+00  0.00000000000E+00  0.83315119060E+02  0.83315119060E+02  0.00000000000E+00 0. -1.
         -1   -1    0    0    0  501 -0.00000000000E+00 -0.00000000000E+00 -0.29535569177E+03  0.29535569177E+03  0.00000000000E+00 0.  1.
         25    2    1    2    0    0 -0.10298943688E+03  0.13793425003E+02 -0.59699799949E+02  0.17323371584E+03  0.12509504989E+03 0.  0.
         23    2    1    2    0    0  0.10298943688E+03 -0.13793425003E+02 -0.15234077276E+03  0.20543709499E+03  0.90551677339E+02 0.  0.
          5    1    3    3  502    0 -0.65992149757E+02  0.69280017217E+02 -0.36787079693E+02  0.10259359750E+03  0.41800000000E+01 0.  1.
         -5    1    3    3    0  502 -0.36997287125E+02 -0.55486592215E+02 -0.22912720256E+02  0.70640118345E+02  0.41800000000E+01 0.  1.
        -11    1    4    4    0    0  0.87605191054E+02 -0.36432852091E+01 -0.16231278838E+03  0.18448139283E+03  0.00000000000E+00 0.  1.
         11    1    4    4    0    0  0.15384245829E+02 -0.10150139793E+02  0.99720156210E+01  0.20955702162E+02  0.00000000000E+00 0. -1.
</event>
<event>
 7    1  0.6689467E-009  0.1396378E+03  0.7561462E-02  0.1213817E+00
         -3   -1    0    0    0  501 -0.00000000000E+00  0.00000000000E+00  0.33776153507E+03  0.33776153507E+03  0.00000000000E+00 0.  1.
          3   -1    0    0  501    0  0.00000000000E+00 -0.00000000000E+00 -0.64916577026E+02  0.64916577026E+02  0.00000000000E+00 0. -1.
         23    2    1    2    0    0  0.83682182154E+02  0.51312936762E+02  0.15709301421E+03  0.20608653155E+03  0.90320087920E+02 0.  0.
          5    1    1    2  502    0 -0.30719104736E+02  0.38793772505E+02  0.60571932711E+02  0.78326570290E+02  0.41800000000E+01 0. -1.
         -5    1    1    2    0  502 -0.52963077418E+02 -0.90106709267E+02  0.55180011122E+02  0.11826501026E+03  0.41800000000E+01 0. -1.
        -11    1    3    3    0    0 -0.33196645066E+01  0.36630625083E+02  0.83316996327E+02  0.91074391260E+02  0.00000000000E+00 0. -1.
         11    1    3    3    0    0  0.87001846661E+02  0.14682311678E+02  0.73776017887E+02  0.11501214029E+03  0.00000000000E+00 0.  1.
</event>
<event>
 8    1  0.6689467E-009  0.1329264E+03  0.7561462E-02  0.1223177E+00
         -1   -1    0    0    0  501 -0.00000000000E+00  0.00000000000E+00  0.36475821441E+03  0.36475821441E+03  0.00000000000E+00 0.  1.
          1   -1    0    0  501    0  0.00000000000E+00 -0.00000000000E+00 -0.80869997532E+02  0.80869997532E+02  0.00000000000E+00 0. -1.
         25    2    1    2    0    0  0.76175029613E+02 -0.10853425072E+03  0.13860475037E+03  0.22899987535E+03  0.12508935754E+03 0.  0.
         23    2    1    2    0    0 -0.76175029613E+02  0.10853425072E+03  0.14528346651E+03  0.21662833659E+03  0.90764706016E+02 0.  0.
          5    1    3    3  502    0  0.10680762452E+02 -0.19896030355E+02 -0.23549509385E+02  0.32893502439E+02  0.41800000000E+01 0.  1.
         -5    1    3    3    0  502  0.65494267161E+02 -0.88638220363E+02  0.16215425976E+03  0.19610637291E+03  0.41800000000E+01 0.  1.
        -11    1    4    4    0    0 -0.52705146534E+02  0.75199315162E+02  0.14970017312E+03  0.17562150012E+03  0.00000000000E+00 0.  1.
         11    1    4    4    0    0 -0.23469883079E+02  0.33334935556E+02 -0.44167066106E+01  0.41006836473E+02  0.00000000000E+00 0. -1.
</event>
<event>
 8    1  0.6689467E-009  0.1123910E+03  0.7561462E-02  0.1256205E+00
          1   -1    0    0  501    0  0.00000000000E+00  0.00000000000E+00  0.38540473228E+03  0.38540473228E+03  0.00000000000E+00 0. -1.
         -1   -1    0    0    0  501 -0.00000000000E+00 -0.00000000000E+00 -0.39270377939E+02  0.39270377939E+02  0.00000000000E+00 0.  1.
         25    2    1    2    0    0  0.56698133736E+02  0.85648243291E+01  0.20106300614E+03  0.24364315171E+03  0.12509044070E+03 0.  0.
         23    2    1    2    0    0 -0.56698133736E+02 -0.85648243291E+01  0.14507134820E+03  0.18103195850E+03  0.91863155536E+02 0.  0.
          5    1    3    3  502    0  0.70441028658E+02  0.49914953006E+02  0.16748729291E+03  0.18847521518E+03  0.41800000000E+01 0.  1.
         -5    1    3    3    0  502 -0.13742894922E+02 -0.41350128676E+02  0.33575713224E+02  0.55167936529E+02  0.41800000000E+01 0.  1.
        -11    1    4    4    0    0 -0.19966960151E+01 -0.34133050110E+02  0.14430648113E+02  0.37111932175E+02  0.00000000000E+00 0.  1.
         11    1    4    4    0    0 -0.54701437721E+02  0.25568225781E+02  0.13064070009E+03  0.14392002633E+03  0.00000000000E+00 0. -1.
</event>
<event>
 8    1  0.6689467E-009  0.1295297E+03  0.7561462E-02  0.1228155E+00
         -4   -1    0    0    0  501 -0.00000000000E+00  0.00000000000E+00  0.25021205186E+03  0.25021205186E+03  0.00000000000E+00 0.  1.
          4   -1    0    0  501    0  0.00000000000E+00 -0.00000000000E+00 -0.98514639077E+02  0.98514639077E+02  0.00000000000E+00 0. -1.
         25    2    1    2    0    0 -0.35184687407E+02 -0.82231424387E+02  0.44999834077E+01  0.15384077405E+03  0.12508702780E+03 0.  0.
         23    2    1    2    0    0  0.35184687407E+02  0.82231424387E+02  0.14719742938E+03  0.19488591689E+03  0.91178221100E+02 0.  0.
          5    1    3    3  502    0 -0.58894640631E+02 -0.15666219848E+02 -0.37359599873E+02  0.71604617463E+02  0.41800000000E+01 0. -1.
         -5    1    3    3    0  502  0.23709953224E+02 -0.66565204539E+02  0.41859583281E+02  0.82236156584E+02  0.41800000000E+01 0. -1.
        -11    1    4    4    0    0  0.45671505902E+02  0.98075376438E+02  0.13115870840E+03  0.17002138896E+03  0.00000000000E+00 0.  1.
         11    1    4    4    0    0 -0.10486818495E+02 -0.15843952051E+02  0.16038720982E+02  0.24864527936E+02  0.00000000000E+00 0. -1.
</event>
<event>
 8    1  0.6689467E-009  0.1656663E+03  0.7561462E-02  0.1182444E+00
          1   -1    0    0  501    0  0.00000000000E+00  0.00000000000E+00  0.13467988197E+03  0.13467988197E+03  0.00000000000E+00 0. -1.
         -1   -1    0    0    0  501 -0.00000000000E+00 -0.00000000000E+00 -0.21889762935E+03  0.21889762935E+03  0.00000000000E+00 0.  1.
         25    2    1    2    0    0  0.13048627593E+03  0.55970420419E+02 -0.30221282947E+02  0.19162541395E+03  0.12509043592E+03 0.  0.
         23    2    1    2    0    0 -0.13048627593E+03 -0.55970420419E+02 -0.53996464427E+02  0.16195209738E+03  0.56156099448E+02 0.  0.
          5    1    3    3  502    0  0.11832334048E+03 -0.77642302324E+01 -0.41370633535E+02  0.12565706463E+03  0.41800000000E+01 0. -1.
         -5    1    3    3    0  502  0.12162935454E+02  0.63734650651E+02  0.11149350588E+02  0.65968349313E+02  0.41800000000E+01 0. -1.
        -11    1    4    4    0    0 -0.11840868761E+03 -0.35019080793E+02 -0.59627731376E+02  0.13712191535E+03  0.00000000000E+00 0.  1.
         11    1    4    4    0    0 -0.12077588322E+02 -0.20951339626E+02  0.56312669488E+01  0.24830182022E+02  0.00000000000E+00 0. -1.
</event>
<event>
 8    1  0.6689467E-009  0.8802628E+02  0.7561462E-02  0.1307703E+00
         -2   -1    0    0    0  501 -0.00000000000E+00  0.00000000000E+00  0.19868104513E+02  0.19868104513E+02  0.00000000000E+00 0.  1.
          2   -1    0    0  501    0  0.00000000000E+00 -0.00000000000E+00 -0.79207368892E+03  0.79207368892E+03  0.00000000000E+00 0. -1.
         25    2    1    2    0    0 -0.49253484940E+02 -0.36699465778E+02 -0.50726861351E+03  0.52606155374E+03  0.12508619229E+03 0.  0.
         23    2    1    2    0    0  0.49253484940E+02  0.36699465778E+02 -0.26493697090E+03  0.28588023970E+03  0.88108775575E+02 0.  0.
          5    1    3    3  502    0 -0.35234793676E+02 -0.77838319077E+01 -0.28431523549E+02  0.46129195266E+02  0.41800000000E+01 0.  1.
         -5    1    3    3    0  502 -0.14018691264E+02 -0.28915633870E+02 -0.47883708996E+03  0.47993235847E+03  0.41800000000E+01 0.  1.
        -11    1    4    4    0    0  0.67172141647E+02  0.77543129850E+00 -0.16031735389E+03  0.17382275992E+03  0.00000000000E+00 0.  1.
         11    1    4    4    0    0 -0.17918656708E+02  0.35924034480E+02 -0.10461961701E+03  0.11205747978E+03  0.00000000000E+00 0. -1.
</event>
<event>
 8    1  0.6689467E-009  0.8218954E+02  0.7561462E-02  0.1322950E+00
          1   -1    0    0  501    0  0.00000000000E+00  0.00000000000E+00  0.54172408170E+02  0.54172408170E+02  0.00000000000E+00 0. -1.
         -1   -1    0    0    0  501 -0.00000000000E+00 -0.00000000000E+00 -0.25806563725E+03  0.25806563725E+03  0.00000000000E+00 0.  1.
         25    2    1    2    0    0  0.23529715058E+02 -0.21797158965E+01 -0.63002385225E+02  0.14203848245E+03  0.12508889359E+03 0.  0.
         23    2    1    2    0    0 -0.23529715058E+02  0.21797158965E+01 -0.14089084386E+03  0.17019956297E+03  0.92516283437E+02 0.  0.
          5    1    3    3  502    0  0.30226307507E+02  0.43861899674E+02  0.10974392496E+02  0.54547278568E+02  0.41800000000E+01 0.  1.
         -5    1    3    3    0  502 -0.66965924489E+01 -0.46041615571E+02 -0.73976777721E+02  0.87491203882E+02  0.41800000000E+01 0.  1.
        -11    1    4    4    0    0  0.19893842954E+02 -0.42330143357E+01  0.22654202642E+01  0.20464982942E+02  0.00000000000E+00 0. -1.
         11    1    4    4    0    0 -0.43423558012E+02  0.64127302323E+01 -0.14315626412E+03  0.14973458003E+03  0.00000000000E+00 0.  1.
</event>
<event>
 8    1  0.6689467E-009  0.1192916E+03  0.7561462E-02  0.1244270E+00
         -2   -1    0    0    0  501 -0.00000000000E+00  0.00000000000E+00  0.20763681905E+03  0.20763681905E+03  0.00000000000E+00 0. -1.
          2   -1    0    0  501    0  0.00000000000E+00 -0.00000000000E+00 -0.10776411193E+03  0.10776411193E+03  0.00000000000E+00 0.  1.
         25    2    1    2    0    0 -0.91950608899E+02  0.15269992948E+02  0.51400622921E+02  0.16425314039E+03  0.12509589493E+03 0.  0.
         23    2    1    2    0    0  0.91950608899E+02 -0.15269992948E+02  0.48472084196E+02  0.15114779059E+03  0.10866473436E+03 0.  0.
          5    1    3    3  502    0 -0.52322396692E+02  0.30295878895E+02 -0.33516576821E+02  0.69255373766E+02  0.41800000000E+01 0. -1.
         -5    1    3    3    0  502 -0.39628212207E+02 -0.15025885947E+02  0.84917199741E+02  0.94997766622E+02  0.41800000000E+01 0. -1.
        -11    1    4    4    0    0  0.11212186717E+03 -0.21735613424E+02  0.57800495427E+02  0.12800252834E+03  0.00000000000E+00 0. -1.
         11    1    4    4    0    0 -0.20171258276E+02  0.64656204763E+01 -0.93284112311E+01  0.23145262251E+02  0.00000000000E+00 0.  1.
</event>
<event>
 8    1  0.6689467E-009  0.7859751E+02  0.7561462E-02  0.1333079E+00
         -1   -1    0    0    0  501 -0.00000000000E+00  0.00000000000E+00  0.58314799378E+02  0.58314799378E+02  0.00000000000E+00 0.  1.
          1   -1    0    0  501    0  0.00000000000E+00 -0.00000000000E+00 -0.23490592875E+03  0.23490592875E+03  0.00000000000E+00 0. -1.
         25    2    1    2    0    0  0.15312352525E+02  0.40793547051E+02 -0.87377588455E+02  0.15868983441E+03  0.12509611889E+03 0.  0.
         23    2    1    2    0    0 -0.15312352525E+02 -0.40793547051E+02 -0.89213540916E+02  0.13453089371E+03  0.90779534365E+02 0.  0.
          5    1    3    3  502    0  0.11194738881E+02  0.63525626565E+02  0.35921329954E+01  0.64739502844E+02  0.41800000000E+01 0. -1.
         -5    1    3    3    0  502  0.41176136444E+01 -0.22732079514E+02 -0.90969721451E+02  0.93950331569E+02  0.41800000000E+01 0. -1.
        -11    1    4    4    0    0 -0.34667899504E+02 -0.34019346227E+02 -0.61331434006E+01  0.48957069170E+02  0.00000000000E+00 0. -1.
         11    1    4    4    0    0  0.19355546979E+02 -0.67742008239E+01 -0.83080397515E+02  0.85573824543E+02  0.00000000000E+00 0.  1.
</event>
<event>
 8    1  0.6689467E-009  0.2559457E+03  0.7561462E-02  0.1109604E+00
         -1   -1    0    0    0  501 -0.00000000000E+00  0.00000000000E+00  0.20776873151E+03  0.20776873151E+03  0.00000000000E+00 0.  1.
          1   -1    0    0  501    0  0.00000000000E+00 -0.00000000000E+00 -0.48376597278E+03  0.48376597278E+03  0.00000000000E+00 0. -1.
         25    2    1    2    0    0 -0.24041444492E+03 -0.14914712783E+02  0.48916243204E+02  0.27579384953E+03  0.12509154492E+03 0.  0.
         23    2    1    2    0    0  0.24041444492E+03  0.14914712783E+02 -0.32491348447E+03  0.41574085476E+03  0.96177606252E+02 0.  0.
          5    1    3    3  502    0  0.17762470881E-01 -0.29318268505E+02 -0.15875463987E+01  0.29657273766E+02  0.41800000000E+01 0.  1.
         -5    1    3    3    0  502 -0.24043220739E+03  0.14403555722E+02  0.50503789602E+02  0.24613657577E+03  0.41800000000E+01 0.  1.
        -11    1    4    4    0    0  0.86754813625E+02  0.12867776574E+02 -0.19757001960E+03  0.21616172188E+03  0.00000000000E+00 0. -1.
         11    1    4    4    0    0  0.15365963129E+03  0.20469362088E+01 -0.12734346487E+03  0.19957913288E+03  0.00000000000E+00 0.  1.
</event>
<event>
 8    1  0.6689467E-009  0.1114379E+03  0.7561462E-02  0.1257930E+00
         -2   -1    0    0    0  501 -0.00000000000E+00  0.00000000000E+00  0.49058116341E+02  0.49058116341E+02  0.00000000000E+00 0.  1.
          2   -1    0    0  501    0  0.00000000000E+00 -0.00000000000E+00 -0.41811978408E+03  0.41811978408E+03  0.00000000000E+00 0. -1.
         25    2    1    2    0    0  0.73625714585E+02 -0.45911251117E+02 -0.14030790440E+03  0.20703358122E+03  0.12509199370E+03 0.  0.
         23    2    1    2    0    0 -0.73625714585E+02  0.45911251117E+02 -0.22875376334E+03  0.26014431920E+03  0.88420550463E+02 0.  0.
          5    1    3    3  502    0  0.94561272773E+02 -0.27134042408E+02 -0.46277406500E+02  0.10879871929E+03  0.41800000000E+01 0. -1.
         -5    1    3    3    0  502 -0.20935558188E+02 -0.18777208710E+02 -0.94030497897E+02  0.98234861929E+02  0.41800000000E+01 0. -1.
        -11    1    4    4    0    0 -0.80986644120E+01  0.26390509233E+02 -0.16287457580E+03  0.16519738129E+03  0.00000000000E+00 0. -1.
         11    1    4    4    0    0 -0.65527050173E+02  0.19520741885E+02 -0.65879187536E+02  0.94946937911E+02  0.00000000000E+00 0.  1.
</event>
<event>
 8    1  0.6689467E-009  0.1102618E+03  0.7561462E-02  0.1260086E+00
         -1   -1    0    0    0  501 -0.00000000000E+00  0.00000000000E+00  0.28852722861E+03  0.28852722861E+03  0.00000000000E+00 0.  1.
          1   -1    0    0  501    0  0.00000000000E+00 -0.00000000000E+00 -0.62301665281E+02  0.62301665281E+02  0.00000000000E+00 0. -1.
         25    2    1    2    0    0  0.74137344346E+02 -0.23255891337E+02  0.10452353092E+03  0.18058209052E+03  0.12509012988E+03 0.  0.
         23    2    1    2    0    0 -0.74137344346E+02  0.23255891337E+02  0.12170203241E+03  0.17024680337E+03  0.90196491372E+02 0.  0.
          5    1    3    3  502    0  0.89510924462E+02  0.11482708313E+02  0.10959405519E+03  0.14202953046E+03  0.41800000000E+01 0.  1.
         -5    1    3    3    0  502 -0.15373580116E+02 -0.34738599650E+02 -0.50705242752E+01  0.38552560066E+02  0.41800000000E+01 0.  1.
        -11    1    4    4    0    0 -0.66838053117E+02  0.37005003769E+02  0.13133597451E+03  0.15194023117E+03  0.00000000000E+00 0.  1.
         11    1    4    4    0    0 -0.72992912292E+01 -0.13749112432E+02 -0.96339421003E+01  0.18306572195E+02  0.00000000000E+00 0. -1.
</event>
<event>
 8    1  0.6689467E-009  0.8607639E+02  0.7561462E-02  0.1312641E+00
          1   -1    0    0  501    0  0.00000000000E+00  0.00000000000E+00  0.82643409798E+03  0.82643409798E+03  0.00000000000E+00 0. -1.
         -1   -1    0    0    0  501 -0.00000000000E+00 -0.00000000000E+00 -0.20112938608E+02  0.20112938608E+02  0.00000000000E+00 0.  1.
         25    2    1    2    0    0 -0.67360027914E+02  0.35220136415E+01  0.37625583764E+03  0.40220174535E+03  0.12509200879E+03 0.  0.
         23    2    1    2    0    0  0.67360027914E+02 -0.35220136415E+01  0.43006532173E+03  0.44434529124E+03  0.89088601679E+02 0.  0.
          5    1    3    3  502    0 -0.19907903203E+02 -0.11369799129E+02  0.66910159673E+00  0.23313451892E+02  0.41800000000E+01 0.  1.
         -5    1    3    3    0  502 -0.47452124711E+02  0.14891812771E+02  0.37558673604E+03  0.37888829346E+03  0.41800000000E+01 0.  1.
        -11    1    4    4    0    0  0.43392473691E+01 -0.30196051927E+02  0.53276000597E+02  0.61391879425E+02  0.00000000000E+00 0.  1.
         11    1    4    4    0    0  0.63020780545E+02  0.26674038285E+02  0.37678932114E+03  0.38295341182E+03  0.00000000000E+00 0. -1.
</event>
<event>
 8    1  0.6689467E-009  0.1313331E+03  0.7561462E-02  0.1225491E+00
         -1   -1    0    0    0  501 -0.00000000000E+00  0.00000000000E+00  0.58070593149E+02  0.58070593149E+02  0.00000000000E+00 0.  1.
          1   -1    0    0  501    0  0.00000000000E+00 -0.00000000000E+00 -0.40017023191E+03  0.40017023191E+03  0.00000000000E+00 0. -1.
         25    2    1    2    0    0 -0.80889724307E+01  0.10344201880E+03 -0.22558754960E+03  0.27803445622E+03  0.12509090126E+03 0.  0.
         23    2    1    2    0    0  0.80889724307E+01 -0.10344201880E+03 -0.11651208916E+03  0.18020636884E+03  0.90186394333E+02 0.  0.
          5    1    3    3  502    0  0.25232054369E+02  0.11912126779E+03 -0.19522389291E+03  0.23012251904E+03  0.41800000000E+01 0. -1.
         -5    1    3    3    0  502 -0.33321026800E+02 -0.15679248987E+02 -0.30363656692E+02  0.47911937171E+02  0.41800000000E+01 0. -1.
        -11    1    4    4    0    0  0.64537300372E+01 -0.74107268866E+02 -0.16807252926E+02  0.76262846007E+02  0.00000000000E+00 0.  1.
         11    1    4    4    0    0  0.16352423935E+01 -0.29334749938E+02 -0.99704836232E+02  0.10394352284E+03  0.00000000000E+00 0. -1.
</event>
<event>
 8    1  0.6689467E-009  0.1285259E+03  0.7561462E-02  0.1229660E+00
         -1   -1    0    0    0  501 -0.00000000000E+00  0.00000000000E+00  0.12205216849E+03  0.12205216849E+03  0.00000000000E+00 0.  1.
          1   -1    0    0  501    0  0.00000000000E+00 -0.00000000000E+00 -0.25157320814E+03  0.25157320814E+03  0.00000000000E+00 0. -1.
         25    2    1    2    0    0  0.94107327020E+02 -0.13160380481E+02  0.36969913328E+02  0.16137876032E+03  0.12508774991E+03 0.  0.
         23    2    1    2    0    0 -0.94107327020E+02  0.13160380481E+02 -0.16649095298E+03  0.21224661632E+03  0.91104358300E+02 0.  0.
          5    1    3    3  502    0 -0.22137584054E+02 -0.20256575224E+02  0.32966852514E+02  0.44773733732E+02  0.41800000000E+01 0. -1.
         -5    1    3    3    0  502  0.11624491107E+03  0.70961947431E+01  0.40030608133E+01  0.11660502659E+03  0.41800000000E+01 0. -1.
        -11    1    4    4    0    0 -0.35775556438E+02  0.32934377652E+02 -0.13412592304E+03  0.14266859115E+03  0.00000000000E+00 0. -1.
         11    1    4    4    0    0 -0.58331770581E+02 -0.19773997172E+02 -0.32365029942E+02  0.69578025169E+02  0.00000000000E+00 0.  1.
</event>
<event>
 8    1  0.6689467E-009  0.9497241E+02  0.7561462E-02  0.1291238E+00
         -2   -1    0    0    0  501 -0.00000000000E+00  0.00000000000E+00  0.93680856527E+02  0.93680856527E+02  0.00000000000E+00 0.  1.
          2   -1    0    0  501    0  0.00000000000E+00 -0.00000000000E+00 -0.17118456999E+03  0.17118456999E+03  0.00000000000E+00 0. -1.
         25    2    1    2    0    0 -0.24503938079E+01 -0.13006432800E+02 -0.43145489992E+02  0.13298404557E+03  0.12509217140E+03 0.  0.
         23    2    1    2    0    0  0.24503938079E+01  0.13006432800E+02 -0.34358223467E+02  0.13188138094E+03  0.12663743283E+03 0.  0.
          5    1    3    3  502    0  0.15123758694E+02 -0.44528292000E+02 -0.72335420796E+02  0.86379293626E+02  0.41800000000E+01 0.  1.
         -5    1    3    3    0  502 -0.17574152502E+02  0.31521859201E+02  0.29189930805E+02  0.46604751947E+02  0.41800000000E+01 0.  1.
        -11    1    4    4    0    0 -0.38043747188E+02  0.41946725671E+02  0.18213411542E+02  0.59485988725E+02  0.00000000000E+00 0.  1.
         11    1    4    4    0    0  0.40494140996E+02 -0.28940292871E+02 -0.52571635009E+02  0.72395392215E+02  0.00000000000E+00 0. -1.
</event>
<event>
 8    1  0.6689467E-009  0.9875886E+02  0.7561462E-02  0.1282928E+00
          2   -1    0    0  501    0  0.00000000000E+00  0.00000000000E+00  0.26081380787E+03  0.26081380787E+03  0.00000000000E+00 0.  1.
         -2   -1    0    0    0  501 -0.00000000000E+00 -0.00000000000E+00 -0.87447853496E+02  0.87447853496E+02  0.00000000000E+00 0. -1.
         25    2    1    2    0    0 -0.72188833036E+02 -0.19553699722E+02  0.10227988700E+02  0.14610279702E+03  0.12509132966E+03 0.  0.
         23    2    1    2    0    0  0.72188833036E+02  0.19553699722E+02  0.16313796567E+03  0.20215886435E+03  0.93062537053E+02 0.  0.
          5    1    3    3  502    0 -0.10734591357E+02  0.55071550691E+01  0.61072605183E+02  0.62393074234E+02  0.41800000000E+01 0.  1.
         -5    1    3    3    0  502 -0.61454241679E+02 -0.25060854791E+02 -0.50844616483E+02  0.83709722783E+02  0.41800000000E+01 0.  1.
        -11    1    4    4    0    0  0.22059327589E+02 -0.36751020654E+02  0.46147612260E+02  0.62982962539E+02  0.00000000000E+00 0.  1.
         11    1    4    4    0    0  0.50129505447E+02  0.56304720376E+02  0.11699035341E+03  0.13917590181E+03  0.00000000000E+00 0. -1.
</event>
<event>
 8    1  0.6689467E-009  0.1084347E+03  0.7561462E-02  0.1263496E+00
         -2   -1    0    0    0  501 -0.00000000000E+00  0.00000000000E+00  0.22653253559E+03  0.22653253559E+03  0.00000000000E+00 0.  1.
          2   -1    0    0  501    0  0.00000000000E+00 -0.00000000000E+00 -0.71514002532E+02  0.71514002532E+02  0.00000000000E+00 0. -1.
         25    2    1    2    0    0 -0.30392361074E+02  0.38954505046E+02  0.13770376734E+03  0.19248493381E+03  0.12508786164E+03 0.  0.
         23    2    1    2    0    0  0.30392361074E+02 -0.38954505046E+02  0.17314765720E+02  0.10556160431E+03  0.91664072122E+02 0.  0.
          5    1    3    3  502    0 -0.67717379270E+02 -0.71489181720E+01  0.10326905449E+03  0.12376881878E+03  0.41800000000E+01 0. -1.
         -5    1    3    3    0  502  0.37325018197E+02  0.46103423218E+02  0.34434712841E+02  0.68716115026E+02  0.41800000000E+01 0. -1.
        -11    1    4    4    0    0  0.12393037739E+02 -0.60127949151E+02  0.36840852702E+02  0.71597528458E+02  0.00000000000E+00 0.  1.
         11    1    4    4    0    0  0.17999323335E+02  0.21173444105E+02 -0.19526086982E+02  0.33964075854E+02  0.00000000000E+00 0. -1.
</event>
<event>
 8    1  0.6689467E-009  0.1135736E+03  0.7561462E-02  0.1254092E+00
          2   -1    0    0  501    0  0.00000000000E+00  0.00000000000E+00  0.27367410537E+03  0.27367410537E+03  0.00000000000E+00 0. -1.
         -2   -1    0    0    0  501 -0.00000000000E+00 -0.00000000000E+00 -0.69140423234E+02  0.69140423234E+02  0.00000000000E+00 0.  1.
         25    2    1    2    0    0  0.30069193031E+02  0.39314337948E+02  0.19641538420E+03  0.23806322570E+03  0.12508126456E+03 0.  0.
         23    2    1    2    0    0 -0.30069193031E+02 -0.39314337948E+02  0.81182979368E+01  0.10475130290E+03  0.91962792259E+02 0.  0.
          5    1    3    3  502    0 -0.53401458112E+01  0.79917913068E+02  0.10979270596E+03  0.13596801340E+03  0.41800000000E+01 0.  1.
         -5    1    3    3    0  502  0.35409338842E+02 -0.40603575120E+02  0.86622678241E+02  0.10209521230E+03  0.41800000000E+01 0.  1.
        -11    1    4    4    0    0  0.25940196223E+02 -0.22736884302E+02  0.26519466424E+02  0.43510249221E+02  0.00000000000E+00 0.  1.
         11    1    4    4    0    0 -0.56009389254E+02 -0.16577453646E+02 -0.18401168487E+02  0.61241053679E+02  0.00000000000E+00 0. -1.
</event>
<event>
 8    1  0.6689467E-009  0.1148123E+03  0.7561462E-02  0.1251909E+00
         -1   -1    0    0    0  501 -0.00000000000E+00  0.00000000000E+00  0.52421115911E+03  0.52421115911E+03  0.00000000000E+00 0.  1.
          1   -1    0    0  501    0  0.00000000000E+00 -0.00000000000E+00 -0.34277935289E+02  0.34277935289E+02  0.00000000000E+00 0. -1.
         25    2    1    2    0    0  0.47931156059E+02 -0.41693814186E+02  0.29538913403E+03  0.32701186241E+03  0.12508496229E+03 0.  0.
         23    2    1    2    0    0 -0.47931156059E+02  0.41693814186E+02  0.19454408980E+03  0.23147723199E+03  0.10815977161E+03 0.  0.
          5    1    3    3  502    0  0.73733756345E+02 -0.25828346898E+02  0.28367703837E+03  0.29426842309E+03  0.41800000000E+01 0.  1.
         -5    1    3    3    0  502 -0.25802600286E+02 -0.15865467288E+02  0.11712095659E+02  0.32743439320E+02  0.41800000000E+01 0.  1.
        -11    1    4    4    0    0 -0.80655812726E+02  0.30218393295E+02  0.10729460620E+03  0.13758867664E+03  0.00000000000E+00 0.  1.
         11    1    4    4    0    0  0.32724656667E+02  0.11475420891E+02  0.87249483599E+02  0.93888555356E+02  0.00000000000E+00 0. -1.
</event>
<event>
 8    1  0.6689467E-009  0.6380876E+02  0.7561462E-02  0.1382509E+00
          2   -1    0    0  501    0  0.00000000000E+00  0.00000000000E+00  0.22079681945E+02  0.22079681945E+02  0.00000000000E+00 0. -1.
         -2   -1    0    0    0  501 -0.00000000000E+00 -0.00000000000E+00 -0.68300706947E+03  0.68300706947E+03  0.00000000000E+00 0.  1.
         25    2    1    2    0    0  0.25702369568E+02 -0.42839777946E+02 -0.47846159319E+03  0.49706000175E+03  0.12508913142E+03 0.  0.
         23    2    1    2    0    0 -0.25702369568E+02  0.42839777946E+02 -0.18246579433E+03  0.20802674966E+03  0.86518807782E+02 0.  0.
          5    1    3    3  502    0  0.59497350860E+01 -0.12858629463E+01  0.65394530464E+01  0.98635509456E+01  0.41800000000E+01 0. -1.
         -5    1    3    3    0  502  0.19752634482E+02 -0.41553915000E+02 -0.48500104624E+03  0.48719645080E+03  0.41800000000E+01 0. -1.
        -11    1    4    4    0    0 -0.39395158326E+02  0.13478639386E+02 -0.27943261430E+02  0.50144571776E+02  0.00000000000E+00 0. -1.
         11    1    4    4    0    0  0.13692788758E+02  0.29361138560E+02 -0.15452253290E+03  0.15788217789E+03  0.00000000000E+00 0.  1.
</event>
<event>
 8    1  0.6689467E-009  0.8676045E+02  0.7561462E-02  0.1310892E+00
          2   -1    0    0  501    0  0.00000000000E+00  0.00000000000E+00  0.39738589137E+03  0.39738589137E+03  0.00000000000E+00 0. -1.
         -2   -1    0    0    0  501 -0.00000000000E+00 -0.00000000000E+00 -0.34870853281E+02  0.34870853281E+02  0.00000000000E+00 0.  1.
         25    2    1    2    0    0  0.40108052619E+01  0.36456038749E+02  0.13903239902E+03  0.19058333350E+03  0.12508744826E+03 0.  0.
         23    2    1    2    0    0 -0.40108052619E+01 -0.36456038749E+02  0.22348263907E+03  0.24167341115E+03  0.84358866579E+02 0.  0.
          5    1    3    3  502    0 -0.21537424028E+01 -0.30595315479E+02  0.11479915900E+03  0.11889924828E+03  0.41800000000E+01 0.  1.
         -5    1    3    3    0  502  0.61645476647E+01  0.67051354228E+02  0.24233240022E+02  0.71684085219E+02  0.41800000000E+01 0.  1.
        -11    1    4    4    0    0  0.98172767187E+01 -0.52793568453E+02  0.20910231876E+03  0.21588728425E+03  0.00000000000E+00 0. -1.
         11    1    4    4    0    0 -0.13828081981E+02  0.16337529704E+02  0.14380320316E+02  0.25786126900E+02  0.00000000000E+00 0.  1.
</event>
<event>
 8    1  0.6689467E-009  0.1230495E+03  0.7561462E-02  0.1238149E+00
          2   -1    0    0  501    0  0.00000000000E+00  0.00000000000E+00  0.48457456313E+03  0.48457456313E+03  0.00000000000E+00 0. -1.
         -2   -1    0    0    0  501 -0.00000000000E+00 -0.00000000000E+00 -0.72149525096E+02  0.72149525096E+02  0.00000000000E+00 0.  1.
         25    2    1    2    0    0 -0.11621874666E+03 -0.23647468829E+02  0.75651991814E+02  0.18825453702E+03  0.12510214621E+03 0.  0.
         23    2    1    2    0    0  0.11621874666E+03  0.23647468829E+02  0.33677304622E+03  0.36846955120E+03  0.91036946602E+02 0.  0.
          5    1    3    3  502    0 -0.10195054455E+03 -0.48090026875E+01  0.10755507549E+03  0.14833275668E+03  0.41800000000E+01 0. -1.
         -5    1    3    3    0  502 -0.14268202113E+02 -0.18838466142E+02 -0.31903083673E+02  0.39921780346E+02  0.41800000000E+01 0. -1.
        -11    1    4    4    0    0  0.24868826813E+02 -0.23332384122E+01  0.79603149527E+01  0.26215818940E+02  0.00000000000E+00 0.  1.
         11    1    4    4    0    0  0.91349919846E+02  0.25980707242E+02  0.32881273127E+03  0.34225373226E+03  0.00000000000E+00 0. -1.
</event>
<event>
 8    1  0.6689467E-009  0.3006674E+03  0.7561462E-02  0.1084907E+00
         -2   -1    0    0    0  501 -0.00000000000E+00  0.00000000000E+00  0.16630857922E+03  0.16630857922E+03  0.00000000000E+00 0. -1.
          2   -1    0    0  501    0  0.00000000000E+00 -0.00000000000E+00 -0.64288840655E+03  0.64288840655E+03  0.00000000000E+00 0.  1.
         25    2    1    2    0    0 -0.28643233710E+03  0.44438290075E+02 -0.11301312039E+03  0.33531938219E+03  0.12509547286E+03 0.  0.
         23    2    1    2    0    0  0.28643233710E+03 -0.44438290075E+02 -0.36356670694E+03  0.47387760358E+03  0.91438435087E+02 0.  0.
          5    1    3    3  502    0 -0.27642986160E+03  0.64274098929E+02 -0.12452812920E+03  0.30995056951E+03  0.41800000000E+01 0. -1.
         -5    1    3    3    0  502 -0.10002475500E+02 -0.19835808853E+02  0.11515008810E+02  0.25368812682E+02  0.41800000000E+01 0. -1.
        -11    1    4    4    0    0  0.98116398831E+02  0.10635622547E+02 -0.17953522222E+03  0.20487274149E+03  0.00000000000E+00 0.  1.
         11    1    4    4    0    0  0.18831593827E+03 -0.55073912622E+02 -0.18403148472E+03  0.26900486209E+03  0.00000000000E+00 0. -1.
</event>
<event>
 8    1  0.6689467E-009  0.1420276E+03  0.7561462E-02  0.1210626E+00
         -1   -1    0    0    0  501 -0.00000000000E+00  0.00000000000E+00  0.41090997422E+02  0.41090997422E+02  0.00000000000E+00 0.  1.
          1   -1    0    0  501    0  0.00000000000E+00 -0.00000000000E+00 -0.66498869013E+03  0.66498869013E+03  0.00000000000E+00 0. -1.
         25    2    1    2    0    0  0.89177652307E+02 -0.25028030800E+02 -0.50953936110E+03  0.53278733157E+03  0.12511164683E+03 0.  0.
         23    2    1    2    0    0 -0.89177652307E+02  0.25028030800E+02 -0.11435833161E+03  0.17329235599E+03  0.91506047003E+02 0.  0.
          5    1    3    3  502    0  0.21737967466E+02 -0.69947444507E+02 -0.20969931975E+03  0.22216314124E+03  0.41800000000E+01 0.  1.
         -5    1    3    3    0  502  0.67439684841E+02  0.44919413708E+02 -0.29984004135E+03  0.31062419033E+03  0.41800000000E+01 0.  1.
        -11    1    4    4    0    0 -0.61561844369E+01  0.43967633522E+02 -0.31153727472E+02  0.54236575663E+02  0.00000000000E+00 0.  1.
         11    1    4    4    0    0 -0.83021467870E+02 -0.18939602722E+02 -0.83204604138E+02  0.11905578032E+03  0.00000000000E+00 0. -1.
</event>
<event>
 8    1  0.6689467E-009  0.9658645E+02  0.7561462E-02  0.1287642E+00
         -2   -1    0    0    0  501 -0.00000000000E+00  0.00000000000E+00  0.45811918937E+02  0.45811918937E+02  0.00000000000E+00 0. -1.
          2   -1    0    0  501    0  0.00000000000E+00 -0.00000000000E+00 -0.42824662750E+03  0.42824662750E+03  0.00000000000E+00 0.  1.
         25    2    1    2    0    0  0.37992429062E+02 -0.29587184761E+02 -0.83236763676E+02  0.15778198482E+03  0.12509184521E+03 0.  0.
         23    2    1    2    0    0 -0.37992429062E+02  0.29587184761E+02 -0.29919794489E+03  0.31627656162E+03  0.90513131847E+02 0.  0.
          5    1    3    3  502    0 -0.15995911242E+02 -0.49447711514E+02 -0.85407191898E+02  0.10006401041E+03  0.41800000000E+01 0. -1.
         -5    1    3    3    0  502  0.53988340303E+02  0.19860526753E+02  0.21704282222E+01  0.57717974413E+02  0.41800000000E+01 0. -1.
        -11    1    4    4    0    0  0.21428171720E+01  0.41450191904E+02 -0.24125694785E+03  0.24480119477E+03  0.00000000000E+00 0.  1.
         11    1    4    4    0    0 -0.40135246234E+02 -0.11863007143E+02 -0.57940997037E+02  0.71475366850E+02  0.00000000000E+00 0. -1.
</event>
<event>
 8    1  0.6689467E-009  0.1227486E+03  0.7561462E-02  0.1238630E+00
         -1   -1    0    0    0  501 -0.00000000000E+00  0.00000000000E+00  0.10657937996E+03  0.10657937996E+03  0.00000000000E+00 0.  1.
          1   -1    0    0  501    0  0.00000000000E+00 -0.00000000000E+00 -0.19666665587E+03  0.19666665587E+03  0.00000000000E+00 0. -1.
         25    2    1    2    0    0 -0.26449087203E+02 -0.86379454145E+02 -0.16365991074E+02  0.15516549456E+03  0.12509005046E+03 0.  0.
         23    2    1    2    0    0  0.26449087203E+02  0.86379454145E+02 -0.73721284827E+02  0.14808054128E+03  0.91280088495E+02 0.  0.
          5    1    3    3  502    0 -0.41931953450E+02 -0.11394054880E+03 -0.59843582600E+01  0.12163068003E+03  0.41800000000E+01 0. -1.
         -5    1    3    3    0  502  0.15482866247E+02  0.27561094651E+02 -0.10381632814E+02  0.33534814529E+02  0.41800000000E+01 0. -1.
        -11    1    4    4    0    0  0.29024941129E+01  0.40065091310E+02  0.16932824232E+02  0.43593079155E+02  0.00000000000E+00 0.  1.
         11    1    4    4    0    0  0.23546593090E+02  0.46314362835E+02 -0.90654109059E+02  0.10448746212E+03  0.00000000000E+00 0. -1.
</event>
<event>
 8    1  0.6689467E-009  0.1114509E+03  0.7561462E-02  0.1257906E+00
         -2   -1    0    0    0  501 -0.00000000000E+00  0.00000000000E+00  0.14189014824E+02  0.14189014824E+02  0.00000000000E+00 0. -1.
          2   -1    0    0  501    0  0.00000000000E+00 -0.00000000000E+00 -0.10682448523E+04  0.10682448523E+04  0.00000000000E+00 0.  1.
         25    2    1    2    0    0 -0.33359542353E+02 -0.38132500294E+02 -0.71563919407E+03  0.72825387742E+03  0.12508919712E+03 0.  0.
         23    2    1    2    0    0  0.33359542353E+02  0.38132500294E+02 -0.33841664342E+03  0.35417998972E+03  0.91382131361E+02 0.  0.
          5    1    3    3  502    0  0.47711326389E+02 -0.17433022695E+02 -0.25100088816E+03  0.25612340620E+03  0.41800000000E+01 0. -1.
         -5    1    3    3    0  502 -0.81070868742E+02 -0.20699477599E+02 -0.46463830591E+03  0.47213047122E+03  0.41800000000E+01 0. -1.
        -11    1    4    4    0    0 -0.14713965110E+02 -0.11787533996E+02 -0.17030724291E+02  0.25406540434E+02  0.00000000000E+00 0. -1.
         11    1    4    4    0    0  0.48073507463E+02  0.49920034289E+02 -0.32138591913E+03  0.32877344929E+03  0.00000000000E+00 0.  1.
</event>
<event>
 8    1  0.6689467E-009  0.1098834E+03  0.7561462E-02  0.1260786E+00
          1   -1    0    0  501    0  0.00000000000E+00  0.00000000000E+00  0.24357604847E+02  0.24357604847E+02  0.00000000000E+00 0. -1.
         -1   -1    0    0    0  501 -0.00000000000E+00 -0.00000000000E+00 -0.75595800376E+03  0.75595800376E+03  0.00000000000E+00 0.  1.
         25    2    1    2    0    0  0.31785776552E+02  0.74372262727E+02 -0.38104976458E+03  0.40913144015E+03  0.12509213874E+03 0.  0.
         23    2    1    2    0    0 -0.31785776552E+02 -0.74372262727E+02 -0.35055063433E+03  0.37118416847E+03  0.91380362400E+02 0.  0.
          5    1    3    3  502    0  0.31558972763E+01 -0.29245278661E+02 -0.16639261561E+03  0.16902432056E+03  0.41800000000E+01 0. -1.
         -5    1    3    3    0  502  0.28629879275E+02  0.10361754139E+03 -0.21465714897E+03  0.24010711958E+03  0.41800000000E+01 0. -1.
        -11    1    4    4    0    0 -0.16799609657E+02 -0.57520404841E+02 -0.34177006576E+03  0.34698357556E+03  0.00000000000E+00 0.  1.
         11    1    4    4    0    0 -0.14986166895E+02 -0.16851857886E+02 -0.87805685710E+01  0.24200592903E+02  0.00000000000E+00 0. -1.
</event>
<event>
 8    1  0.6689467E-009  0.1436126E+03  0.7561462E-02  0.1208549E+00
         -2   -1    0    0    0  501 -0.00000000000E+00  0.00000000000E+00  0.11556422138E+04  0.11556422138E+04  0.00000000000E+00 0.  1.
          2   -1    0    0  501    0  0.00000000000E+00 -0.00000000000E+00 -0.28653025443E+02  0.28653025443E+02  0.00000000000E+00 0. -1.
         25    2    1    2    0    0  0.16598293190E+02  0.13529706648E+03  0.75984379642E+03  0.78204273888E+03  0.12508977150E+03 0.  0.
         23    2    1    2    0    0 -0.16598293190E+02 -0.13529706648E+03  0.36714539196E+03  0.40225250039E+03  0.91817948675E+02 0.  0.
          5    1    3    3  502    0  0.12856303918E+02  0.43687627038E+02  0.56298927998E+03  0.56484360232E+03  0.41800000000E+01 0. -1.
         -5    1    3    3    0  502  0.37419892723E+01  0.91609439442E+02  0.19685451644E+03  0.21719913656E+03  0.41800000000E+01 0. -1.
        -11    1    4    4    0    0 -0.40112976319E+02 -0.76291115234E+02  0.12446112282E+03  0.15139338238E+03  0.00000000000E+00 0. -1.
         11    1    4    4    0    0  0.23514683129E+02 -0.59005951246E+02  0.24268426914E+03  0.25085911801E+03  0.00000000000E+00 0.  1.
</event>
<event>
 8    1  0.6689467E-009  0.1126105E+03  0.7561462E-02  0.1255811E+00
          2   -1    0    0  501    0  0.00000000000E+00  0.00000000000E+00  0.11516713851E+04  0.11516713851E+04  0.00000000000E+00 0.  1.
         -2   -1    0    0    0  501 -0.00000000000E+00 -0.00000000000E+00 -0.11761093979E+02  0.11761093979E+02  0.00000000000E+00 0. -1.
         25    2    1    2    0    0  0.36171038286E+02 -0.64116029827E+01  0.75651379655E+03  0.76766528672E+03  0.12508962947E+03 0.  0.
         23    2    1    2    0    0 -0.36171038286E+02  0.64116029827E+01  0.38339649461E+03  0.39576719240E+03  0.91045844692E+02 0.  0.
          5    1    3    3  502    0  0.29976773901E+02  0.58056365421E+02  0.38045825429E+03  0.38605064978E+03  0.41800000000E+01 0.  1.
         -5    1    3    3    0  502  0.61942643846E+01 -0.64467968404E+02  0.37605554226E+03  0.38161463694E+03  0.41800000000E+01 0.  1.
        -11    1    4    4    0    0 -0.29945687857E+02  0.45937378441E+02  0.27016265124E+03  0.27567162546E+03  0.00000000000E+00 0.  1.
         11    1    4    4    0    0 -0.62253504290E+01 -0.39525775458E+02  0.11323384337E+03  0.12009556694E+03  0.00000000000E+00 0. -1.
</event>
<event>
 8    1  0.6689467E-009  0.1416264E+03  0.7561462E-02  0.1211157E+00
          1   -1    0    0  501    0  0.00000000000E+00  0.00000000000E+00  0.24612930027E+03  0.24612930027E+03  0.00000000000E+00 0. -1.
         -1   -1    0    0    0  501 -0.00000000000E+00 -0.00000000000E+00 -0.12384364475E+03  0.12384364475E+03  0.00000000000E+00 0.  1.
         25    2    1    2    0    0 -0.35464117351E+02 -0.76519861246E+02 -0.34743345888E+02  0.15481283828E+03  0.12508765738E+03 0.  0.
         23    2    1    2    0    0  0.35464117351E+02  0.76519861246E+02  0.15702900141E+03  0.21516010674E+03  0.12051046206E+03 0.  0.
          5    1    3    3  502    0 -0.52019914566E+02  0.10956842848E+02 -0.38235657390E+02  0.65616779962E+02  0.41800000000E+01 0. -1.
         -5    1    3    3    0  502  0.16555797214E+02 -0.87476704094E+02  0.34923115021E+01  0.89196058322E+02  0.41800000000E+01 0. -1.
        -11    1    4    4    0    0  0.70017544937E+02  0.79715188585E+02  0.87781800914E+02  0.13770480188E+03  0.00000000000E+00 0.  1.
         11    1    4    4    0    0 -0.34553427586E+02 -0.31953273395E+01  0.69247200493E+02  0.77455304860E+02  0.00000000000E+00 0. -1.
</event>
<event>
 8    1  0.6689467E-009  0.6678977E+02  0.7561462E-02  0.1371363E+00
         -1   -1    0    0    0  501 -0.00000000000E+00  0.00000000000E+00  0.41586068419E+03  0.41586068419E+03  0.00000000000E+00 0.  1.
          1   -1    0    0  501    0  0.00000000000E+00 -0.00000000000E+00 -0.32171812974E+02  0.32171812974E+02  0.00000000000E+00 0. -1.
         25    2    1    2    0    0  0.58296600867E+01 -0.34209830284E+02  0.17562105196E+03  0.21838903138E+03  0.12508684068E+03 0.  0.
         23    2    1    2    0    0 -0.58296600867E+01  0.34209830284E+02  0.20806781926E+03  0.22964346579E+03  0.90772278488E+02 0.  0.
          5    1    3    3  502    0 -0.25112992947E+02 -0.11974293835E+02  0.17778380006E+03  0.17999610576E+03  0.41800000000E+01 0.  1.
         -5    1    3    3    0  502  0.30942653034E+02 -0.22235536448E+02 -0.21627481008E+01  0.38392925615E+02  0.41800000000E+01 0.  1.
        -11    1    4    4    0    0  0.11470364624E+01  0.49915200630E+02  0.20642791239E+03  0.21238014493E+03  0.00000000000E+00 0.  1.
         11    1    4    4    0    0 -0.69766965491E+01 -0.15705370346E+02  0.16399068690E+01  0.17263320856E+02  0.00000000000E+00 0. -1.
</event>
<event>
 8    1  0.6689467E-009  0.9845873E+02  0.7561462E-02  0.1283571E+00
         -2   -1    0    0    0  501 -0.00000000000E+00  0.00000000000E+00  0.33548839094E+03  0.33548839094E+03  0.00000000000E+00 0.  1.
          2   -1    0    0  501    0  0.00000000000E+00 -0.00000000000E+00 -0.45510358070E+02  0.45510358070E+02  0.00000000000E+00 0. -1.
         25    2    1    2    0    0 -0.18780022205E+02  0.33790045370E+02  0.92743319713E+02  0.16044628740E+03  0.12508889395E+03 0.  0.
         23    2    1    2    0    0  0.18780022205E+02 -0.33790045370E+02  0.19723471315E+03  0.22055246160E+03  0.90815196115E+02 0.  0.
          5    1    3    3  502    0 -0.44566601175E+02 -0.34516164890E+02  0.29487451808E+02  0.63753664939E+02  0.41800000000E+01 0. -1.
         -5    1    3    3    0  502  0.25786578969E+02  0.68306210260E+02  0.63255867904E+02  0.96692622466E+02  0.41800000000E+01 0. -1.
        -11    1    4    4    0    0 -0.18925251300E+02 -0.43350876810E+01  0.19744829234E+01  0.19515550333E+02  0.00000000000E+00 0. -1.
         11    1    4    4    0    0  0.37705273506E+02 -0.29454957689E+02  0.19526023023E+03  0.20103691127E+03  0.00000000000E+00 0.  1.
</event>
<event>
 8    1  0.6689467E-009  0.1404291E+03  0.7561462E-02  0.1212753E+00
          1   -1    0    0  501    0  0.00000000000E+00  0.00000000000E+00  0.55625528414E+03  0.55625528414E+03  0.00000000000E+00 0. -1.
         -1   -1    0    0    0  501 -0.00000000000E+00 -0.00000000000E+00 -0.71706183204E+02  0.71706183204E+02  0.00000000000E+00 0.  1.
         25    2    1    2    0    0  0.11281327218E+03 -0.71253289195E+02  0.94737946005E+02  0.20596594673E+03  0.12507128846E+03 0.  0.
         23    2    1    2    0    0 -0.11281327218E+03  0.71253289195E+02  0.38981115493E+03  0.42199552061E+03  0.91233860536E+02 0.  0.
          5    1    3    3  502    0  0.96018518733E+01 -0.57633872890E+01 -0.29376286813E+02  0.31715151259E+02  0.41800000000E+01 0. -1.
         -5    1    3    3    0  502  0.10321142031E+03 -0.65489901906E+02  0.12411423282E+03  0.17425079547E+03  0.41800000000E+01 0. -1.
        -11    1    4    4    0    0 -0.57415180545E+02  0.13846909758E+01  0.24735636137E+03  0.25393619245E+03  0.00000000000E+00 0.  1.
         11    1    4    4    0    0 -0.55398091638E+02  0.69868598219E+02  0.14245479356E+03  0.16805932816E+03  0.00000000000E+00 0. -1.
</event>
<event>
 8    1  0.6689467E-009  0.9384695E+02  0.7561462E-02  0.1293794E+00
          1   -1    0    0  501    0  0.00000000000E+00  0.00000000000E+00  0.14863957960E+03  0.14863957960E+03  0.00000000000E+00 0. -1.
         -1   -1    0    0    0  501 -0.00000000000E+00 -0.00000000000E+00 -0.82192745605E+02  0.82192745605E+02  0.00000000000E+00 0.  1.
         25    2    1    2    0    0 -0.73745559397E+01 -0.45274162557E+01  0.74353295098E+01  0.12561355543E+03  0.12509436282E+03 0.  0.
         23    2    1    2    0    0  0.73745559397E+01  0.45274162557E+01  0.59011504482E+02  0.10521876977E+03  0.86681891290E+02 0.  0.
          5    1    3    3  502    0 -0.30205099809E+02  0.49465006564E+02 -0.19049913774E+02  0.61151504835E+02  0.41800000000E+01 0.  1.
         -5    1    3    3    0  502  0.22830543870E+02 -0.53992422819E+02  0.26485243284E+02  0.64462050596E+02  0.41800000000E+01 0.  1.
        -11    1    4    4    0    0 -0.82442191018E+01  0.35330134470E+02 -0.64673968325E+00  0.36285035793E+02  0.00000000000E+00 0.  1.
         11    1    4    4    0    0  0.15618775041E+02 -0.30802718215E+02  0.59658244166E+02  0.68933733978E+02  0.00000000000E+00 0. -1.
</event>
<event>
 8    1  0.6689467E-009  0.8770989E+02  0.7561462E-02  0.1308494E+00
          2   -1    0    0  501    0  0.00000000000E+00  0.00000000000E+00  0.66079163356E+02  0.66079163356E+02  0.00000000000E+00 0. -1.
         -2   -1    0    0    0  501 -0.00000000000E+00 -0.00000000000E+00 -0.21713018801E+03  0.21713018801E+03  0.00000000000E+00 0.  1.
         25    2    1    2    0    0  0.49370441663E+02 -0.15091216629E+02 -0.97036206022E+02  0.16651821189E+03  0.12508838588E+03 0.  0.
         23    2    1    2    0    0 -0.49370441663E+02  0.15091216629E+02 -0.54014818630E+02  0.11669113947E+03  0.89632784575E+02 0.  0.
          5    1    3    3  502    0  0.60497685984E+02 -0.49262979564E+01 -0.12241858909E+03  0.13670413957E+03  0.41800000000E+01 0.  1.
         -5    1    3    3    0  502 -0.11127244321E+02 -0.10164918673E+02  0.25382383070E+02  0.29814072317E+02  0.41800000000E+01 0.  1.
        -11    1    4    4    0    0 -0.66292962191E+02 -0.11633501265E+02 -0.51892935956E+02  0.84988069691E+02  0.00000000000E+00 0.  1.
         11    1    4    4    0    0  0.16922520528E+02  0.26724717894E+02 -0.21218826738E+01  0.31703069782E+02  0.00000000000E+00 0. -1.
</event>
<event>
 8    1  0.6689467E-009  0.1027484E+03  0.7561462E-02  0.1274620E+00
         -1   -1    0    0    0  501 -0.00000000000E+00  0.00000000000E+00  0.36685980374E+02  0.36685980374E+02  0.00000000000E+00 0.  1.
          1   -1    0    0  501    0  0.00000000000E+00 -0.00000000000E+00 -0.37382352683E+03  0.37382352683E+03  0.00000000000E+00 0. -1.
         25    2    1    2    0    0  0.46796264807E+01  0.11935569702E+02 -0.27236076430E+03  0.29998682757E+03  0.12508938427E+03 0.  0.
         23    2    1    2    0    0 -0.46796264807E+01 -0.11935569702E+02 -0.64776782157E+02  0.11052267964E+03  0.88627729741E+02 0.  0.
          5    1    3    3  502    0  0.58684698207E+02  0.18823672990E+02 -0.86640711713E+02  0.10640634283E+03  0.41800000000E+01 0. -1.
         -5    1    3    3    0  502 -0.54005071726E+02 -0.68881032877E+01 -0.18572005259E+03  0.19358048474E+03  0.41800000000E+01 0. -1.
        -11    1    4    4    0    0 -0.19338949045E+02  0.34980193322E+02 -0.34447286639E+02  0.52765750557E+02  0.00000000000E+00 0.  1.
         11    1    4    4    0    0  0.14659322565E+02 -0.46915763024E+02 -0.30329495519E+02  0.57756929079E+02  0.00000000000E+00 0. -1.
</event>
<event>
 8    1  0.6689467E-009  0.2669394E+03  0.7561462E-02  0.1103044E+00
          2   -1    0    0  501    0  0.00000000000E+00  0.00000000000E+00  0.14557715281E+04  0.14557715281E+04  0.00000000000E+00 0. -1.
         -2   -1    0    0    0  501 -0.00000000000E+00 -0.00000000000E+00 -0.74663079016E+02  0.74663079016E+02  0.00000000000E+00 0.  1.
         25    2    1    2    0    0  0.23556914785E+03 -0.91408271335E+02  0.11212065820E+04  0.11561157034E+04  0.12510405558E+03 0.  0.
         23    2    1    2    0    0 -0.23556914785E+03  0.91408271335E+02  0.25990186712E+03  0.37431890372E+03  0.93366833821E+02 0.  0.
          5    1    3    3  502    0  0.22525779971E+03 -0.61673144680E+02  0.80170948757E+03  0.83504504547E+03  0.41800000000E+01 0. -1.
         -5    1    3    3    0  502  0.10311348143E+02 -0.29735126654E+02  0.31949709439E+03  0.32107065793E+03  0.41800000000E+01 0. -1.
        -11    1    4    4    0    0 -0.15685215852E+03  0.12919335409E+02  0.13767020656E+03  0.20909948501E+03  0.00000000000E+00 0. -1.
         11    1    4    4    0    0 -0.78716989336E+02  0.78488935925E+02  0.12223166056E+03  0.16521941870E+03  0.00000000000E+00 0.  1.
</event>
<event>
 8    1  0.6689467E-009  0.1372224E+03  0.7561462E-02  0.1217116E+00
          2   -1    0    0  501    0  0.00000000000E+00  0.00000000000E+00  0.97169536407E+02  0.97169536407E+02  0.00000000000E+00 0. -1.
         -2   -1    0    0    0  501 -0.00000000000E+00 -0.00000000000E+00 -0.23133311914E+03  0.23133311914E+03  0.00000000000E+00 0.  1.
         25    2    1    2    0    0 -0.93872157196E+02 -0.16428760950E+02 -0.28717910481E+02  0.15985805872E+03  0.12509194407E+03 0.  0.
         23    2    1    2    0    0  0.93872157196E+02  0.16428760950E+02 -0.10544567225E+03  0.16864459683E+03  0.90776231251E+02 0.  0.
          5    1    3    3  502    0 -0.26369673959E+02  0.53049392540E+02 -0.19277044905E+02  0.62439367501E+02  0.41800000000E+01 0. -1.
         -5    1    3    3    0  502 -0.67502483237E+02 -0.69478153490E+02 -0.94408655764E+01  0.97418691217E+02  0.41800000000E+01 0. -1.
        -11    1    4    4    0    0  0.70683136381E+02  0.43073233708E+02 -0.10449913066E+03  0.13330970535E+03  0.00000000000E+00 0.  1.
         11    1    4    4    0    0  0.23189020815E+02 -0.26644472758E+02 -0.94654158656E+00  0.35334891480E+02  0.00000000000E+00 0. -1.
</event>
<event>
 8    1  0.6689467E-009  0.8859977E+02  0.7561462E-02  0.1306278E+00
          3   -1    0    0  501    0  0.00000000000E+00  0.00000000000E+00  0.70227026907E+03  0.70227026907E+03  0.00000000000E+00 0. -1.
         -3   -1    0    0    0  501 -0.00000000000E+00 -0.00000000000E+00 -0.26209165299E+02  0.26209165299E+02  0.00000000000E+00 0.  1.
         25    2    1    2    0    0  0.61801306344E+02  0.22856317806E+02  0.49002887530E+03  0.51001756794E+03  0.12509119973E+03 0.  0.
         23    2    1    2    0    0 -0.61801306344E+02 -0.22856317806E+02  0.18603222847E+03  0.21846186643E+03  0.93679156293E+02 0.  0.
          5    1    3    3  502    0  0.20517196641E+01 -0.13243661583E+02  0.37593071192E+03  0.37619273876E+03  0.41800000000E+01 0.  1.
         -5    1    3    3    0  502  0.59749586680E+02  0.36099979389E+02  0.11409816338E+03  0.13382482918E+03  0.41800000000E+01 0.  1.
        -11    1    4    4    0    0 -0.18669401652E+02  0.23431046381E+02  0.10288688375E+02  0.31676767528E+02  0.00000000000E+00 0.  1.
         11    1    4    4    0    0 -0.43131904692E+02 -0.46287364187E+02  0.17574354010E+03  0.18678509890E+03  0.00000000000E+00 0. -1.
</event>
<event>
 8    1  0.6689467E-009  0.1052920E+03  0.7561462E-02  0.1269545E+00
          2   -1    0    0  501    0  0.00000000000E+00  0.00000000000E+00  0.16066992760E+03  0.16066992760E+03  0.00000000000E+00 0.  1.
         -2   -1    0    0    0  501 -0.00000000000E+00 -0.00000000000E+00 -0.10345970717E+03  0.10345970717E+03  0.00000000000E+00 0. -1.
         25    2    1    2    0    0 -0.10968818408E+02 -0.39429842076E+02 -0.23887549496E+02  0.13376257533E+03  0.12508710610E+03 0.  0.
         23    2    1    2    0    0  0.10968818408E+02  0.39429842076E+02  0.81097769923E+02  0.13036705945E+03  0.93507724168E+02 0.  0.
          5    1    3    3  502    0  0.70467122184E+01 -0.80590335988E+02 -0.33442635927E+02  0.87637553055E+02  0.41800000000E+01 0.  1.
         -5    1    3    3    0  502 -0.18015530626E+02  0.41160493912E+02  0.95550864309E+01  0.46125022271E+02  0.41800000000E+01 0.  1.
        -11    1    4    4    0    0  0.39655065545E+02  0.55192678384E+01  0.75684314916E+02  0.85621855067E+02  0.00000000000E+00 0.  1.
         11    1    4    4    0    0 -0.28686247137E+02  0.33910574238E+02  0.54134550067E+01  0.44745204381E+02  0.00000000000E+00 0. -1.
</event>
<event>
 8    1  0.6689467E-009  0.2266363E+03  0.7561462E-02  0.1129030E+00
         -1   -1    0    0    0  501 -0.00000000000E+00  0.00000000000E+00  0.84180825855E+02  0.84180825855E+02  0.00000000000E+00 0.  1.
          1   -1    0    0  501    0  0.00000000000E+00 -0.00000000000E+00 -0.77577145831E+03  0.77577145831E+03  0.00000000000E+00 0. -1.
         25    2    1    2    0    0 -0.16286033401E+03  0.13399328795E+03 -0.51349888165E+03  0.56903966251E+03  0.12508935380E+03 0.  0.
         23    2    1    2    0    0  0.16286033401E+03 -0.13399328795E+03 -0.17809175080E+03  0.29091262165E+03  0.91846568382E+02 0.  0.
          5    1    3    3  502    0 -0.17844788371E+03  0.13706947117E+03 -0.44593369759E+03  0.49950577792E+03  0.41800000000E+01 0.  1.
         -5    1    3    3    0  502  0.15587549692E+02 -0.30761832179E+01 -0.67565184061E+02  0.69533884587E+02  0.41800000000E+01 0.  1.
        -11    1    4    4    0    0  0.11487347315E+03 -0.82675135599E+02 -0.60477354610E+02  0.15391102397E+03  0.00000000000E+00 0.  1.
         11    1    4    4    0    0  0.47986860867E+02 -0.51318152354E+02 -0.11761439619E+03  0.13700159768E+03  0.00000000000E+00 0. -1.
</event>
<event>
 8    1  0.6689467E-009  0.2117678E+03  0.7561462E-02  0.1140174E+00
         -2   -1    0    0    0  501 -0.00000000000E+00  0.00000000000E+00  0.52532623697E+02  0.52532623697E+02  0.00000000000E+00 0.  1.
          2   -1    0    0  501    0  0.00000000000E+00 -0.00000000000E+00 -0.13590193811E+04  0.13590193811E+04  0.00000000000E+00 0. -1.
         25    2    1    2    0    0 -0.18170291196E+03 -0.23100010762E+02 -0.24535888790E+03  0.33075565093E+03  0.12509499606E+03 0.  0.
         23    2    1    2    0    0  0.18170291196E+03  0.23100010762E+02 -0.10611278695E+04  0.10807963539E+04  0.92622051268E+02 0.  0.
          5    1    3    3  502    0 -0.18896090236E+03 -0.45544683604E+02 -0.19695454569E+03  0.27674736908E+03  0.41800000000E+01 0.  1.
         -5    1    3    3    0  502  0.72579903989E+01  0.22444672842E+02 -0.48404342212E+02  0.54008281851E+02  0.41800000000E+01 0.  1.
        -11    1    4    4    0    0  0.93484809329E+01  0.31246721077E+02 -0.18071293336E+03  0.18363255691E+03  0.00000000000E+00 0. -1.
         11    1    4    4    0    0  0.17235443103E+03 -0.81467103145E+01 -0.88041493618E+03  0.89716379700E+03  0.00000000000E+00 0.  1.
</event>
<event>
 8    1  0.6689467E-009  0.1047659E+03  0.7561462E-02  0.1270582E+00
          2   -1    0    0  501    0  0.00000000000E+00  0.00000000000E+00  0.11899259542E+03  0.11899259542E+03  0.00000000000E+00 0.  1.
         -2   -1    0    0    0  501 -0.00000000000E+00 -0.00000000000E+00 -0.10580443260E+03  0.10580443260E+03  0.00000000000E+00 0. -1.
         25    2    1    2    0    0  0.85511407689E+01  0.22483682153E+02 -0.13199869370E+02  0.12806181357E+03  0.12508778346E+03 0.  0.
         23    2    1    2    0    0 -0.85511407689E+01 -0.22483682153E+02  0.26388032190E+02  0.96735214455E+02  0.89904034955E+02 0.  0.
          5    1    3    3  502    0 -0.51710516433E+01  0.73778800498E+02 -0.92365531846E+01  0.74651439991E+02  0.41800000000E+01 0. -1.
         -5    1    3    3    0  502  0.13722192412E+02 -0.51295118345E+02 -0.39633161856E+01  0.53410373579E+02  0.41800000000E+01 0. -1.
        -11    1    4    4    0    0  0.26347731640E+02  0.15532220008E+02 -0.11541128519E+02  0.32690219767E+02  0.00000000000E+00 0. -1.
         11    1    4    4    0    0 -0.34898872409E+02 -0.38015902161E+02  0.37929160709E+02  0.64044994688E+02  0.00000000000E+00 0.  1.
</event>
<event>
 8    1  0.6689467E-009  0.8024417E+02  0.7561462E-02  0.1328360E+00
         -1   -1    0    0    0  501 -0.00000000000E+00  0.00000000000E+00  0.47762631095E+02  0.47762631095E+02  0.00000000000E+00 0.  1.
          1   -1    0    0  501    0  0.00000000000E+00 -0.00000000000E+00 -0.26433264557E+03  0.26433264557E+03  0.00000000000E+00 0. -1.
         25    2    1    2    0    0 -0.86888144445E+01 -0.95001139091E+01 -0.15733680211E+03  0.20141571278E+03  0.12509065672E+03 0.  0.
         23    2    1    2    0    0  0.86888144445E+01  0.95001139091E+01 -0.59233212372E+02  0.11067956388E+03  0.92604777160E+02 0.  0.
          5    1    3    3  502    0  0.27298919337E+02 -0.42227083446E+02 -0.14128154137E+03  0.15002101155E+03  0.41800000000E+01 0.  1.
         -5    1    3    3    0  502 -0.35987733782E+02  0.32726969537E+02 -0.16055260732E+02  0.51394701234E+02  0.41800000000E+01 0.  1.
        -11    1    4    4    0    0  0.15324015309E+02  0.33217345319E+02 -0.73584002767E+02  0.82175561687E+02  0.00000000000E+00 0. -1.
         11    1    4    4    0    0 -0.66352008644E+01 -0.23717231410E+02  0.14350790395E+02  0.28504002197E+02  0.00000000000E+00 0.  1.
</event>
<event>
 8    1  0.6689467E-009  0.1307384E+03  0.7561462E-02  0.1226364E+00
          2   -1    0    0  501    0  0.00000000000E+00  0.00000000000E+00  0.16853640708E+03  0.16853640708E+03  0.00000000000E+00 0.  1.
         -2   -1    0    0    0  501 -0.00000000000E+00 -0.00000000000E+00 -0.17263122742E+03  0.17263122742E+03  0.00000000000E+00 0. -1.
         25    2    1    2    0    0  0.11200428723E+03  0.97668363676E+01  0.66331004828E+02  0.18079098444E+03  0.12508087944E+03 0.  0.
         23    2    1    2    0    0 -0.11200428723E+03 -0.97668363676E+01 -0.70425825162E+02  0.16037665006E+03  0.90113936686E+02 0.  0.
          5    1    3    3  502    0  0.52566640014E+02 -0.12907641209E+02 -0.32431715330E+02  0.63238812475E+02  0.41800000000E+01 0.  1.
         -5    1    3    3    0  502  0.59437647217E+02  0.22674477576E+02  0.98762720158E+02  0.11755217196E+03  0.41800000000E+01 0.  1.
        -11    1    4    4    0    0 -0.85455868808E+02  0.34223281231E+02 -0.37798614137E+02  0.99512178765E+02  0.00000000000E+00 0.  1.
         11    1    4    4    0    0 -0.26548418424E+02 -0.43990117599E+02 -0.32627211025E+02  0.60864471299E+02  0.00000000000E+00 0. -1.
</event>
<event>
 8    1  0.6689467E-009  0.1528132E+03  0.7561462E-02  0.1197058E+00
         -1   -1    0    0    0  501 -0.00000000000E+00  0.00000000000E+00  0.20788818673E+03  0.20788818673E+03  0.00000000000E+00 0.  1.
          1   -1    0    0  501    0  0.00000000000E+00 -0.00000000000E+00 -0.14504384027E+03  0.14504384027E+03  0.00000000000E+00 0. -1.
         25    2    1    2    0    0  0.10580683442E+03 -0.72133429668E+02 -0.11084089170E+02  0.17936340550E+03  0.12510018511E+03 0.  0.
         23    2    1    2    0    0 -0.10580683442E+03  0.72133429668E+02  0.73928435630E+02  0.17356862150E+03  0.90897386599E+02 0.  0.
          5    1    3    3  502    0  0.11784793602E+03 -0.55233829565E+02  0.29567191003E+02  0.13353128149E+03  0.41800000000E+01 0. -1.
         -5    1    3    3    0  502 -0.12041101600E+02 -0.16899600104E+02 -0.40651280173E+02  0.45832124008E+02  0.41800000000E+01 0. -1.
        -11    1    4    4    0    0 -0.12107117911E+03  0.64156651488E+02  0.75199852497E+02  0.15629882967E+03  0.00000000000E+00 0.  1.
         11    1    4    4    0    0  0.15264344693E+02  0.79767781804E+01 -0.12714168666E+01  0.17269791831E+02  0.00000000000E+00 0. -1.
</event>
<event>
 8    1  0.6689467E-009  0.1188584E+03  0.7561462E-02  0.1244992E+00
          2   -1    0    0  501    0  0.00000000000E+00  0.00000000000E+00  0.10830010623E+04  0.10830010623E+04  0.00000000000E+00 0. -1.
         -2   -1    0    0    0  501 -0.00000000000E+00 -0.00000000000E+00 -0.13868660288E+02  0.13868660288E+02  0.00000000000E+00 0.  1.
         25    2    1    2    0    0 -0.45990134975E+02  0.22425805634E+02  0.49810627610E+03  0.51611537739E+03  0.12508881330E+03 0.  0.
         23    2    1    2    0    0  0.45990134975E+02 -0.22425805634E+02  0.57102612596E+03  0.58075434525E+03  0.92664792252E+02 0.  0.
          5    1    3    3  502    0 -0.59725298749E+02  0.64149283817E+02  0.27404003275E+03  0.28774581470E+03  0.41800000000E+01 0.  1.
         -5    1    3    3    0  502  0.13735163774E+02 -0.41723478183E+02  0.22406624335E+03  0.22836956270E+03  0.41800000000E+01 0.  1.
        -11    1    4    4    0    0  0.67981337757E+02  0.78406202806E+01  0.36566732136E+03  0.37201549366E+03  0.00000000000E+00 0.  1.
         11    1    4    4    0    0 -0.21991202782E+02 -0.30266425915E+02  0.20535880460E+03  0.20873885159E+03  0.00000000000E+00 0. -1.
</event>
<event>
 7    1  0.6689467E-009  0.2020377E+03  0.7561462E-02  0.1148031E+00
          2   -1    0    0  501    0  0.00000000000E+00  0.00000000000E+00  0.73343093188E+02  0.73343093188E+02  0.00000000000E+00 0.  1.
         -2   -1    0    0    0  501 -0.00000000000E+00 -0.00000000000E+00 -0.65744995672E+03  0.65744995672E+03  0.00000000000E+00 0. -1.
         23    2    1    2    0    0 -0.14800131797E+03 -0.10021323249E+03 -0.17085041141E+03  0.26351018548E+03  0.91108027551E+02 0.  0.
          5    1    1    2  502    0  0.27927735658E+02  0.90307131273E+02 -0.22033582562E+03  0.23979300413E+03  0.41800000000E+01 0. -1.
         -5    1    1    2    0  502  0.12007358231E+03  0.99061012217E+01 -0.19292062649E+03  0.22748986029E+03  0.41800000000E+01 0. -1.
        -11    1    3    3    0    0 -0.31236394619E+02 -0.55853474560E+02 -0.18730401075E+02  0.66679463808E+02  0.00000000000E+00 0. -1.
         11    1    3    3    0    0 -0.11676492335E+03 -0.44359757934E+02 -0.15212001034E+03  0.19683072167E+03  0.00000000000E+00 0.  1.
</event>
<event>
 8    1  0.6689467E-009  0.1061578E+03  0.7561462E-02  0.1267855E+00
         -2   -1    0    0    0  501 -0.00000000000E+00  0.00000000000E+00  0.44295384758E+03  0.44295384758E+03  0.00000000000E+00 0.  1.
          2   -1    0    0  501    0  0.00000000000E+00 -0.00000000000E+00 -0.40684897827E+02  0.40684897827E+02  0.00000000000E+00 0. -1.
         25    2    1    2    0    0  0.47020697849E+02  0.25361398108E+02  0.11773946405E+03  0.17990021167E+03  0.12508940092E+03 0.  0.
         23    2    1    2    0    0 -0.47020697849E+02 -0.25361398108E+02  0.28452948570E+03  0.30373853374E+03  0.91901698054E+02 0.  0.
          5    1    3    3  502    0  0.17685806246E+02  0.63803118576E+02  0.17627194161E+02  0.68642669358E+02  0.41800000000E+01 0.  1.
         -5    1    3    3    0  502  0.29334891603E+02 -0.38441720467E+02  0.10011226989E+03  0.11125754231E+03  0.41800000000E+01 0.  1.
        -11    1    4    4    0    0 -0.68709751167E+02 -0.70816481544E+01  0.13612104397E+03  0.15264376259E+03  0.00000000000E+00 0. -1.
         11    1    4    4    0    0  0.21689053318E+02 -0.18279749954E+02  0.14840844173E+03  0.15109477115E+03  0.00000000000E+00 0.  1.
</event>
<event>
 8    1  0.6689467E-009  0.1033430E+03  0.7561462E-02  0.1273419E+00
         -2   -1    0    0    0  501 -0.00000000000E+00  0.00000000000E+00  0.24493837093E+02  0.24493837093E+02  0.00000000000E+00 0.  1.
          2   -1    0    0  501    0  0.00000000000E+00 -0.00000000000E+00 -0.59724757660E+03  0.59724757660E+03  0.00000000000E+00 0. -1.
         25    2    1    2    0    0  0.49572213824E+02 -0.97245366827E+01 -0.36628253414E+03  0.39033650044E+03  0.12509083805E+03 0.  0.
         23    2    1    2    0    0 -0.49572213824E+02  0.97245366827E+01 -0.20647120537E+03  0.23140491326E+03  0.91465317115E+02 0.  0.
          5    1    3    3  502    0  0.46994173708E+02 -0.50556037321E+02 -0.10427128598E+03  0.12511729997E+03  0.41800000000E+01 0.  1.
         -5    1    3    3    0  502  0.25780401154E+01  0.40831500638E+02 -0.26201124816E+03  0.26521920047E+03  0.41800000000E+01 0.  1.
        -11    1    4    4    0    0 -0.33599970025E+02 -0.35240809178E+02 -0.59513943433E+02  0.76894616717E+02  0.00000000000E+00 0.  1.
         11    1    4    4    0    0 -0.15972243798E+02  0.44965345860E+02 -0.14695726194E+03  0.15451029654E+03  0.00000000000E+00 0. -1.
</event>
<event>
 8    1  0.6689467E-009  0.1020823E+03  0.7561462E-02  0.1275977E+00
         -1   -1    0    0    0  501 -0.00000000000E+00  0.00000000000E+00  0.13170518266E+03  0.13170518266E+03  0.00000000000E+00 0.  1.
          1   -1    0    0  501    0  0.00000000000E+00 -0.00000000000E+00 -0.16008793909E+03  0.16008793909E+03  0.00000000000E+00 0. -1.
         25    2    1    2    0    0 -0.43363188250E+02  0.27489341439E+02  0.67370605041E+02  0.15107054791E+03  0.12508989582E+03 0.  0.
         23    2    1    2    0    0  0.43363188250E+02 -0.27489341439E+02 -0.95753361464E+02  0.14072257384E+03  0.89432133864E+02 0.  0.
          5    1    3    3  502    0  0.26771877245E+02 -0.14616667383E+02 -0.15570514096E+02  0.34500633122E+02  0.41800000000E+01 0.  1.
         -5    1    3    3    0  502 -0.70135065495E+02  0.42106008822E+02  0.82941119137E+02  0.11656991479E+03  0.41800000000E+01 0.  1.
        -11    1    4    4    0    0  0.65974668833E+01 -0.48617222251E+02 -0.18192898546E+02  0.52327262743E+02  0.00000000000E+00 0. -1.
         11    1    4    4    0    0  0.36765721367E+02  0.21127880812E+02 -0.77560462918E+02  0.88395311093E+02  0.00000000000E+00 0.  1.
</event>
<event>
 8    1  0.6689467E-009  0.9377228E+02  0.7561462E-02  0.1293965E+00
          2   -1    0    0  501    0  0.00000000000E+00  0.00000000000E+00  0.32547101551E+03  0.32547101551E+03  0.00000000000E+00 0. -1.
         -2   -1    0    0    0  501 -0.00000000000E+00 -0.00000000000E+00 -0.42556852585E+02  0.42556852585E+02  0.00000000000E+00 0.  1.
         25    2    1    2    0    0 -0.20032119147E+02 -0.25674281925E+01  0.21957997959E+03  0.25351633748E+03  0.12508912202E+03 0.  0.
         23    2    1    2    0    0  0.20032119147E+02  0.25674281925E+01  0.63334183336E+02  0.11451153062E+03  0.93240518981E+02 0.  0.
          5    1    3    3  502    0  0.41798797339E+02 -0.36169626857E+01  0.24361505433E+02  0.48694735085E+02  0.41800000000E+01 0.  1.
         -5    1    3    3    0  502 -0.61830916486E+02  0.10495344932E+01  0.19521847416E+03  0.20482160240E+03  0.41800000000E+01 0.  1.
        -11    1    4    4    0    0  0.43641640557E+02 -0.22386322815E+02  0.84616665500E+01  0.49772884591E+02  0.00000000000E+00 0.  1.
         11    1    4    4    0    0 -0.23609521410E+02  0.24953751008E+02  0.54872516786E+02  0.64738646024E+02  0.00000000000E+00 0. -1.
</event>
<event>
 8    1  0.6689467E-009  0.1071509E+03  0.7561462E-02  0.1265939E+00
          2   -1    0    0  501    0  0.00000000000E+00  0.00000000000E+00  0.68519649930E+02  0.68519649930E+02  0.00000000000E+00 0. -1.
         -2   -1    0    0    0  501 -0.00000000000E+00 -0.00000000000E+00 -0.29968285839E+03  0.29968285839E+03  0.00000000000E+00 0.  1.
         25    2    1    2    0    0  0.45647738881E+02  0.39707108436E+02 -0.35414428918E+02  0.14339161668E+03  0.12508638388E+03 0.  0.
         23    2    1    2    0    0 -0.45647738881E+02 -0.39707108436E+02 -0.19574877954E+03  0.22481089164E+03  0.92530977423E+02 0.  0.
          5    1    3    3  502    0 -0.31661139314E+02  0.18199938565E+01  0.22885834586E+02  0.39331589658E+02  0.41800000000E+01 0. -1.
         -5    1    3    3    0  502  0.77308878195E+02  0.37887114580E+02 -0.58300263505E+02  0.10406002702E+03  0.41800000000E+01 0. -1.
        -11    1    4    4    0    0 -0.39781252555E+02 -0.61669289982E+02 -0.18622655692E+03  0.20016488175E+03  0.00000000000E+00 0.  1.
         11    1    4    4    0    0 -0.58664863260E+01  0.21962181545E+02 -0.95222226184E+01  0.24646009893E+02  0.00000000000E+00 0. -1.
</event>
<event>
 8    1  0.6689467E-009  0.1337204E+03  0.7561462E-02  0.1222037E+00
         -1   -1    0    0    0  501 -0.00000000000E+00  0.00000000000E+00  0.13461065429E+03  0.13461065429E+03  0.00000000000E+00 0.  1.
          1   -1    0    0  501    0  0.00000000000E+00 -0.00000000000E+00 -0.13898970639E+03  0.13898970639E+03  0.00000000000E+00 0. -1.
         25    2    1    2    0    0 -0.50599339500E+02  0.66207038956E+02  0.12191036959E+02  0.15079692716E+03  0.12508967461E+03 0.  0.
         23    2    1    2    0    0  0.50599339500E+02 -0.66207038956E+02 -0.16570089067E+02  0.12280343352E+03  0.88670458815E+02 0.  0.
          5    1    3    3  502    0  0.55446715568E+01 -0.33285415334E+02  0.13203231282E+02  0.36475470839E+02  0.41800000000E+01 0.  1.
         -5    1    3    3    0  502 -0.56144011057E+02  0.99492454291E+02 -0.10121943230E+01  0.11432145632E+03  0.41800000000E+01 0.  1.
        -11    1    4    4    0    0  0.51340986616E+02  0.15464857235E+01 -0.19603338749E+02  0.54977990277E+02  0.00000000000E+00 0. -1.
         11    1    4    4    0    0 -0.74164711570E+00 -0.67753524680E+02  0.30332496822E+01  0.67825443239E+02  0.00000000000E+00 0.  1.
</event>
<event>
 8    1  0.6689467E-009  0.1145192E+03  0.7561462E-02  0.1252423E+00
         -2   -1    0    0    0  501 -0.00000000000E+00  0.00000000000E+00  0.34369845585E+02  0.34369845585E+02  0.00000000000E+00 0.  1.
          2   -1    0    0  501    0  0.00000000000E+00 -0.00000000000E+00 -0.65208779080E+03  0.65208779080E+03  0.00000000000E+00 0. -1.
         25    2    1    2    0    0  0.48152331511E+02  0.86715774899E+02 -0.35160116593E+03  0.38614678585E+03  0.12509071786E+03 0.  0.
         23    2    1    2    0    0 -0.48152331511E+02 -0.86715774899E+02 -0.26611677929E+03  0.30031085054E+03  0.97622712951E+02 0.  0.
          5    1    3    3  502    0  0.50418213835E+02  0.97348927235E+02 -0.15890341686E+03  0.19309732833E+03  0.41800000000E+01 0.  1.
         -5    1    3    3    0  502 -0.22658823238E+01 -0.10633152337E+02 -0.19269774907E+03  0.19304945752E+03  0.41800000000E+01 0.  1.
        -11    1    4    4    0    0 -0.38466376534E+02 -0.26547736685E+02 -0.27921796813E+02  0.54443284104E+02  0.00000000000E+00 0.  1.
         11    1    4    4    0    0 -0.96859549772E+01 -0.60168038213E+02 -0.23819498248E+03  0.24586756643E+03  0.00000000000E+00 0. -1.
</event>
<event>
 8    1  0.6689467E-009  0.1828634E+03  0.7561462E-02  0.1165060E+00
         -2   -1    0    0    0  501 -0.00000000000E+00  0.00000000000E+00  0.50182059173E+02  0.50182059173E+02  0.00000000000E+00 0.  1.
          2   -1    0    0  501    0  0.00000000000E+00 -0.00000000000E+00 -0.81518427553E+03  0.81518427553E+03  0.00000000000E+00 0. -1.
         25    2    1    2    0    0 -0.14623702941E+03 -0.82311669352E+02 -0.33658998751E+03  0.39635959760E+03  0.12509049217E+03 0.  0.
         23    2    1    2    0    0  0.14623702941E+03  0.82311669352E+02 -0.42841222884E+03  0.46900673710E+03  0.90938451399E+02 0.  0.
          5    1    3    3  502    0 -0.57455005988E+02 -0.66244577072E+02 -0.62481010875E+02  0.10775328684E+03  0.41800000000E+01 0.  1.
         -5    1    3    3    0  502 -0.88782023422E+02 -0.16067092280E+02 -0.27410897664E+03  0.28860631076E+03  0.41800000000E+01 0.  1.
        -11    1    4    4    0    0  0.58116335709E+02  0.80741609724E+02 -0.18370816834E+03  0.20891483224E+03  0.00000000000E+00 0.  1.
         11    1    4    4    0    0  0.88120693702E+02  0.15700596286E+01 -0.24470406051E+03  0.26009190486E+03  0.00000000000E+00 0. -1.
</event>
<event>
 8    1  0.6689467E-009  0.1589956E+03  0.7561462E-02  0.1189835E+00
          2   -1    0    0  501    0  0.00000000000E+00  0.00000000000E+00  0.87427910773E+03  0.87427910773E+03  0.00000000000E+00 0. -1.
         -2   -1    0    0    0  501 -0.00000000000E+00 -0.00000000000E+00 -0.38649478277E+02  0.38649478277E+02  0.00000000000E+00 0.  1.
         25    2    1    2    0    0 -0.78257442828E+02 -0.12240892952E+03  0.37628413151E+03  0.42231030194E+03  0.12509224643E+03 0.  0.
         23    2    1    2    0    0  0.78257442828E+02  0.12240892952E+03  0.45934549794E+03  0.49061828406E+03  0.92735326551E+02 0.  0.
          5    1    3    3  502    0 -0.89527357384E+02 -0.79793813398E+02  0.35182398153E+03  0.37172541850E+03  0.41800000000E+01 0. -1.
         -5    1    3    3    0  502  0.11269914556E+02 -0.42615116122E+02  0.24460149975E+02  0.50584883443E+02  0.41800000000E+01 0. -1.
        -11    1    4    4    0    0  0.19711799730E+02  0.77391232641E+02  0.34772144328E+03  0.35677466286E+03  0.00000000000E+00 0.  1.
         11    1    4    4    0    0  0.58545643098E+02  0.45017696878E+02  0.11162405465E+03  0.13384362120E+03  0.00000000000E+00 0. -1.
</event>
<event>
 8    1  0.6689467E-009  0.1027420E+03  0.7561462E-02  0.1274633E+00
          1   -1    0    0  501    0  0.00000000000E+00  0.00000000000E+00  0.48029728515E+03  0.48029728515E+03  0.00000000000E+00 0. -1.
         -1   -1    0    0    0  501 -0.00000000000E+00 -0.00000000000E+00 -0.31500036021E+02  0.31500036021E+02  0.00000000000E+00 0.  1.
         25    2    1    2    0    0  0.57822568088E+02 -0.10563874667E+01  0.26097850076E+03  0.29513037113E+03  0.12509033844E+03 0.  0.
         23    2    1    2    0    0 -0.57822568088E+02  0.10563874667E+01  0.18781874837E+03  0.21666695004E+03  0.91236613622E+02 0.  0.
          5    1    3    3  502    0  0.16841161355E+01  0.48543796985E+02  0.44460253887E+02  0.65981232548E+02  0.41800000000E+01 0. -1.
         -5    1    3    3    0  502  0.56138451953E+02 -0.49600184452E+02  0.21651824687E+03  0.22914913858E+03  0.41800000000E+01 0. -1.
        -11    1    4    4    0    0 -0.26733818214E+02  0.29326753690E+02  0.16322232967E+03  0.16797703539E+03  0.00000000000E+00 0. -1.
         11    1    4    4    0    0 -0.31088749875E+02 -0.28270366223E+02  0.24596418708E+02  0.48689914648E+02  0.00000000000E+00 0.  1.
</event>
<event>
 8    1  0.6689467E-009  0.1094992E+03  0.7561462E-02  0.1261500E+00
          2   -1    0    0  501    0  0.00000000000E+00  0.00000000000E+00  0.12230467633E+03  0.12230467633E+03  0.00000000000E+00 0. -1.
         -2   -1    0    0    0  501 -0.00000000000E+00 -0.00000000000E+00 -0.15134794878E+03  0.15134794878E+03  0.00000000000E+00 0.  1.
         25    2    1    2    0    0  0.47664028810E+02  0.25603837609E+02  0.43976391363E+02  0.14320994663E+03  0.12509096559E+03 0.  0.
         23    2    1    2    0    0 -0.47664028810E+02 -0.25603837609E+02 -0.73019663812E+02  0.13044267848E+03  0.93573526825E+02 0.  0.
          5    1    3    3  502    0 -0.24161650636E+02 -0.27678690401E+02 -0.10461938182E+02  0.38429413401E+02  0.41800000000E+01 0. -1.
         -5    1    3    3    0  502  0.71825679447E+02  0.53282528010E+02  0.54438329545E+02  0.10478053322E+03  0.41800000000E+01 0. -1.
        -11    1    4    4    0    0 -0.49330302868E+02  0.15226815380E+02 -0.60369324372E+01  0.51978642161E+02  0.00000000000E+00 0. -1.
         11    1    4    4    0    0  0.16662740571E+01 -0.40830652989E+02 -0.66982731375E+02  0.78464036317E+02  0.00000000000E+00 0.  1.
</event>
<event>
 8    1  0.6689467E-009  0.1252293E+03  0.7561462E-02  0.1234711E+00
         -2   -1    0    0    0  501 -0.00000000000E+00  0.00000000000E+00  0.11489765152E+03  0.11489765152E+03  0.00000000000E+00 0.  1.
          2   -1    0    0  501    0  0.00000000000E+00 -0.00000000000E+00 -0.25721976602E+03  0.25721976602E+03  0.00000000000E+00 0. -1.
         25    2    1    2    0    0 -0.66712276679E+02 -0.66590817236E+02 -0.17708210693E+03  0.23641097465E+03  0.12508881461E+03 0.  0.
         23    2    1    2    0    0  0.66712276679E+02  0.66590817236E+02  0.34759992439E+02  0.13570644289E+03  0.91231117316E+02 0.  0.
          5    1    3    3  502    0 -0.91409354077E+02 -0.15008851778E+02 -0.14067682028E+03  0.16848850349E+03  0.41800000000E+01 0.  1.
         -5    1    3    3    0  502  0.24697077398E+02 -0.51581965457E+02 -0.36405286647E+02  0.67922471159E+02  0.41800000000E+01 0.  1.
        -11    1    4    4    0    0  0.15504970972E+01  0.20536547227E+02  0.50354188936E+02  0.54403107969E+02  0.00000000000E+00 0.  1.
         11    1    4    4    0    0  0.65161779581E+02  0.46054270009E+02 -0.15594196498E+02  0.81303334917E+02  0.00000000000E+00 0. -1.
</event>
<event>
 8    1  0.6689467E-009  0.2142207E+03  0.7561462E-02  0.1138267E+00
         -1   -1    0    0    0  501 -0.00000000000E+00  0.00000000000E+00  0.25110866964E+02  0.25110866964E+02  0.00000000000E+00 0.  1.
          1   -1    0    0  501    0  0.00000000000E+00 -0.00000000000E+00 -0.19564243982E+04  0.19564243982E+04  0.00000000000E+00 0. -1.
         25    2    1    2    0    0 -0.18183853330E+03 -0.52059144949E+02 -0.11446876312E+04  0.11669330401E+04  0.12509012892E+03 0.  0.
         23    2    1    2    0    0  0.18183853330E+03  0.52059144949E+02 -0.78662590005E+03  0.81460222505E+03  0.94979322265E+02 0.  0.
          5    1    3    3  502    0 -0.30860099337E+02 -0.57855739259E+02 -0.52417940862E+03  0.52828132384E+03  0.41800000000E+01 0. -1.
         -5    1    3    3    0  502 -0.15097843397E+03  0.57965943102E+01 -0.62050822254E+03  0.63865171625E+03  0.41800000000E+01 0. -1.
        -11    1    4    4    0    0  0.89758797793E+02  0.74689164997E+02 -0.44393368336E+03  0.45903401657E+03  0.00000000000E+00 0. -1.
         11    1    4    4    0    0  0.92079735510E+02 -0.22630020047E+02 -0.34269221670E+03  0.35556820848E+03  0.00000000000E+00 0.  1.
</event>
<event>
 8    1  0.6689467E-009  0.6755823E+02  0.7561462E-02  0.1368599E+00
         -2   -1    0    0    0  501 -0.00000000000E+00  0.00000000000E+00  0.62766365975E+02  0.62766365975E+02  0.00000000000E+00 0.  1.
          2   -1    0    0  501    0  0.00000000000E+00 -0.00000000000E+00 -0.19588614075E+03  0.19588614075E+03  0.00000000000E+00 0. -1.
         25    2    1    2    0    0 -0.29993803985E+02  0.60173214928E+01 -0.92178822948E+02  0.15836728704E+03  0.12508967091E+03 0.  0.
         23    2    1    2    0    0  0.29993803985E+02 -0.60173214928E+01 -0.40940951827E+02  0.10028521968E+03  0.86285151184E+02 0.  0.
          5    1    3    3  502    0 -0.39802445776E+02  0.17292908615E+02 -0.11935727654E+03  0.12707049713E+03  0.41800000000E+01 0. -1.
         -5    1    3    3    0  502  0.98086417915E+01 -0.11275587122E+02  0.27178453595E+02  0.31296789908E+02  0.41800000000E+01 0. -1.
        -11    1    4    4    0    0  0.43083374972E+02  0.19523665088E+02 -0.51294974711E+02  0.69774817291E+02  0.00000000000E+00 0. -1.
         11    1    4    4    0    0 -0.13089570988E+02 -0.25540986581E+02  0.10354022884E+02  0.30510402391E+02  0.00000000000E+00 0.  1.
</event>
<event>
 8    1  0.6689467E-009  0.1161537E+03  0.7561462E-02  0.1249581E+00
         -1   -1    0    0    0  501 -0.00000000000E+00  0.00000000000E+00  0.26785537484E+02  0.26785537484E+02  0.00000000000E+00 0.  1.
          1   -1    0    0  501    0  0.00000000000E+00 -0.00000000000E+00 -0.69399894137E+03  0.69399894137E+03  0.00000000000E+00 0. -1.
         25    2    1    2    0    0 -0.56723424246E+02  0.57353784660E+02 -0.32555084666E+03  0.35796427082E+03  0.12509221377E+03 0.  0.
         23    2    1    2    0    0  0.56723424246E+02 -0.57353784660E+02 -0.34166255722E+03  0.36282020804E+03  0.91641676536E+02 0.  0.
          5    1    3    3  502    0 -0.51258871406E+02 -0.53504196209E+01 -0.39573564907E+02  0.65112505153E+02  0.41800000000E+01 0.  1.
         -5    1    3    3    0  502 -0.54645528405E+01  0.62704204281E+02 -0.28597728175E+03  0.29285176566E+03  0.41800000000E+01 0.  1.
        -11    1    4    4    0    0  0.79649069270E+02 -0.44522540031E+02 -0.21673688433E+03  0.23516187581E+03  0.00000000000E+00 0.  1.
         11    1    4    4    0    0 -0.22925645024E+02 -0.12831244629E+02 -0.12492567289E+03  0.12765833222E+03  0.00000000000E+00 0. -1.
</event>
<event>
 8    1  0.6689467E-009  0.1298954E+03  0.7561462E-02  0.1227611E+00
          1   -1    0    0  501    0  0.00000000000E+00  0.00000000000E+00  0.18800001382E+03  0.18800001382E+03  0.00000000000E+00 0. -1.
         -1   -1    0    0    0  501 -0.00000000000E+00 -0.00000000000E+00 -0.14020334358E+03  0.14020334358E+03  0.00000000000E+00 0.  1.
         25    2    1    2    0    0 -0.10888789546E+03 -0.26060935003E+02 -0.20344186792E+02  0.16912363639E+03  0.12511263861E+03 0.  0.
         23    2    1    2    0    0  0.10888789546E+03  0.26060935003E+02  0.68140857029E+02  0.15907972101E+03  0.90152288546E+02 0.  0.
          5    1    3    3  502    0 -0.46667467926E+02 -0.34119699185E+02 -0.68639421328E+02  0.89837904001E+02  0.41800000000E+01 0. -1.
         -5    1    3    3    0  502 -0.62220427530E+02  0.80587641825E+01  0.48295234535E+02  0.79285732392E+02  0.41800000000E+01 0. -1.
        -11    1    4    4    0    0  0.10023945255E+03 -0.11048707767E+02  0.66777098683E+02  0.12095124100E+03  0.00000000000E+00 0. -1.
         11    1    4    4    0    0  0.86484429075E+01  0.37109642770E+02  0.13637583464E+01  0.38128480012E+02  0.00000000000E+00 0.  1.
</event>
<event>
 8    1  0.6689467E-009  0.1531894E+03  0.7561462E-02  0.1196608E+00
         -1   -1    0    0    0  501 -0.00000000000E+00  0.00000000000E+00  0.40984084083E+02  0.40984084083E+02  0.00000000000E+00 0.  1.
          1   -1    0    0  501    0  0.00000000000E+00 -0.00000000000E+00 -0.84647424005E+03  0.84647424005E+03  0.00000000000E+00 0. -1.
         25    2    1    2    0    0 -0.22364506731E+02 -0.10964875197E+03 -0.18262781061E+03  0.24803982553E+03  0.12509123819E+03 0.  0.
         23    2    1    2    0    0  0.22364506731E+02  0.10964875197E+03 -0.62286234536E+03  0.63941849860E+03  0.91517731173E+02 0.  0.
          5    1    3    3  502    0  0.41002596617E+02 -0.87293072556E+02 -0.80379637956E+02  0.12561708500E+03  0.41800000000E+01 0. -1.
         -5    1    3    3    0  502 -0.63367103348E+02 -0.22355679416E+02 -0.10224817265E+03  0.12242274053E+03  0.41800000000E+01 0. -1.
        -11    1    4    4    0    0 -0.20897083853E+02  0.94344732339E+02 -0.46935315031E+03  0.47919724158E+03  0.00000000000E+00 0. -1.
         11    1    4    4    0    0  0.43261590584E+02  0.15304019633E+02 -0.15350919505E+03  0.16022125702E+03  0.00000000000E+00 0.  1.
</event>
<event>
 8    1  0.6689467E-009  0.1473099E+03  0.7561462E-02  0.1203818E+00
          2   -1    0    0  501    0  0.00000000000E+00  0.00000000000E+00  0.10225846968E+04  0.10225846968E+04  0.00000000000E+00 0. -1.
         -2   -1    0    0    0  501 -0.00000000000E+00 -0.00000000000E+00 -0.31925691805E+02  0.31925691805E+02  0.00000000000E+00 0.  1.
         25    2    1    2    0    0 -0.11074888927E+03  0.68500777856E+02  0.69664975199E+03  0.71967094457E+03  0.12509084083E+03 0.  0.
         23    2    1    2    0    0  0.11074888927E+03 -0.68500777856E+02  0.29400925300E+03  0.33483944404E+03  0.93372048228E+02 0.  0.
          5    1    3    3  502    0 -0.83092667306E+02 -0.19394777545E+01  0.53131001532E+03  0.53778802303E+03  0.41800000000E+01 0.  1.
         -5    1    3    3    0  502 -0.27656221968E+02  0.70440255611E+02  0.16533973667E+03  0.18188292153E+03  0.41800000000E+01 0.  1.
        -11    1    4    4    0    0  0.66277539299E+02 -0.61830102135E+02  0.26795021654E+03  0.28286567888E+03  0.00000000000E+00 0. -1.
         11    1    4    4    0    0  0.44471349974E+02 -0.66706757212E+01  0.26059036462E+02  0.51973765155E+02  0.00000000000E+00 0.  1.
</event>
<event>
 8    1  0.6689467E-009  0.9622933E+02  0.7561462E-02  0.1288431E+00
         -1   -1    0    0    0  501 -0.00000000000E+00  0.00000000000E+00  0.22687748528E+02  0.22687748528E+02  0.00000000000E+00 0.  1.
          1   -1    0    0  501    0  0.00000000000E+00 -0.00000000000E+00 -0.75168846121E+03  0.75168846121E+03  0.00000000000E+00 0. -1.
         25    2    1    2    0    0 -0.59382309516E+01 -0.40391662517E+02 -0.57549837450E+03  0.59034953226E+03  0.12508973663E+03 0.  0.
         23    2    1    2    0    0  0.59382309516E+01  0.40391662517E+02 -0.15350233819E+03  0.18402667748E+03  0.92930625769E+02 0.  0.
          5    1    3    3  502    0  0.34702826226E+02 -0.38855312348E+02 -0.51306933684E+03  0.51572438206E+03  0.41800000000E+01 0.  1.
         -5    1    3    3    0  502 -0.40641057178E+02 -0.15363501683E+01 -0.62429037658E+02  0.74625150206E+02  0.41800000000E+01 0.  1.
        -11    1    4    4    0    0  0.22938510100E+02  0.65267250726E+02 -0.12319817624E+03  0.14129324079E+03  0.00000000000E+00 0. -1.
         11    1    4    4    0    0 -0.17000279149E+02 -0.24875588209E+02 -0.30304161947E+02  0.42733436688E+02  0.00000000000E+00 0.  1.
</event>
<event>
 8    1  0.6689467E-009  0.8907227E+02  0.7561462E-02  0.1305114E+00
         -1   -1    0    0    0  501 -0.00000000000E+00  0.00000000000E+00  0.31454189953E+02  0.31454189953E+02  0.00000000000E+00 0.  1.
          1   -1    0    0  501    0  0.00000000000E+00 -0.00000000000E+00 -0.38240480648E+03  0.38240480648E+03  0.00000000000E+00 0. -1.
         25    2    1    2    0    0 -0.24710657904E+02  0.10074127824E+01 -0.19992930255E+03  0.23712952263E+03  0.12508818086E+03 0.  0.
         23    2    1    2    0    0  0.24710657904E+02 -0.10074127824E+01 -0.15102131398E+03  0.17672947380E+03  0.88398179504E+02 0.  0.
          5    1    3    3  502    0 -0.31312281590E+02  0.42835897727E+02 -0.18424544434E+03  0.19177911584E+03  0.41800000000E+01 0. -1.
         -5    1    3    3    0  502  0.66016236852E+01 -0.41828484944E+02 -0.15683858212E+02  0.45350406795E+02  0.41800000000E+01 0. -1.
        -11    1    4    4    0    0  0.51498547758E+02 -0.12852537056E+02 -0.55401649418E+02  0.76724382619E+02  0.00000000000E+00 0.  1.
         11    1    4    4    0    0 -0.26787889853E+02  0.11845124274E+02 -0.95619664559E+02  0.10000509118E+03  0.00000000000E+00 0. -1.
</event>
<event>
 8    1  0.6689467E-009  0.1848028E+03  0.7561462E-02  0.1163234E+00
         -2   -1    0    0    0  501 -0.00000000000E+00  0.00000000000E+00  0.22054593630E+03  0.22054593630E+03  0.00000000000E+00 0.  1.
          2   -1    0    0  501    0  0.00000000000E+00 -0.00000000000E+00 -0.18876726306E+03  0.18876726306E+03  0.00000000000E+00 0. -1.
         25    2    1    2    0    0 -0.16795512463E+03 -0.24937925581E+02  0.32505415667E+02  0.21338970789E+03  0.12509093238E+03 0.  0.
         23    2    1    2    0    0  0.16795512463E+03  0.24937925581E+02 -0.72674242429E+00  0.19592349147E+03  0.97747953090E+02 0.  0.
          5    1    3    3  502    0 -0.40980176826E+02 -0.22104850120E+02 -0.44715635855E+02  0.64691265109E+02  0.41800000000E+01 0.  1.
         -5    1    3    3    0  502 -0.12697494781E+03 -0.28330754609E+01  0.77221051522E+02  0.14869844278E+03  0.41800000000E+01 0.  1.
        -11    1    4    4    0    0  0.17052882708E+03 -0.18287349406E+00 -0.31250958149E+01  0.17055755783E+03  0.00000000000E+00 0.  1.
         11    1    4    4    0    0 -0.25737024515E+01  0.25120799075E+02  0.23983533906E+01  0.25365933641E+02  0.00000000000E+00 0. -1.
</event>
<event>
 8    1  0.6689467E-009  0.1645742E+03  0.7561462E-02  0.1183627E+00
          2   -1    0    0  501    0  0.00000000000E+00  0.00000000000E+00  0.75580685708E+02  0.75580685708E+02  0.00000000000E+00 0. -1.
         -2   -1    0    0    0  501 -0.00000000000E+00 -0.00000000000E+00 -0.38948636077E+03  0.38948636077E+03  0.00000000000E+00 0.  1.
         25    2    1    2    0    0  0.86917915110E+02 -0.97150816732E+02 -0.20656910058E+03  0.27442993901E+03  0.12509193800E+03 0.  0.
         23    2    1    2    0    0 -0.86917915110E+02  0.97150816732E+02 -0.10733657447E+03  0.19063710746E+03  0.88478027568E+02 0.  0.
          5    1    3    3  502    0  0.22354600753E+02 -0.11144817413E+03 -0.11899189172E+03  0.16461156213E+03  0.41800000000E+01 0. -1.
         -5    1    3    3    0  502  0.64563314357E+02  0.14297357397E+02 -0.87577208858E+02  0.10981837688E+03  0.41800000000E+01 0. -1.
        -11    1    4    4    0    0 -0.27004135658E+02  0.83413448615E+02 -0.92406783842E+02  0.12738147610E+03  0.00000000000E+00 0.  1.
         11    1    4    4    0    0 -0.59913779452E+02  0.13737368118E+02 -0.14929790633E+02  0.63255631365E+02  0.00000000000E+00 0. -1.
</event>
<event>
 8    1  0.6689467E-009  0.8099621E+02  0.7561462E-02  0.1326248E+00
          2   -1    0    0  501    0  0.00000000000E+00  0.00000000000E+00  0.21047873883E+03  0.21047873883E+03  0.00000000000E+00 0.  1.
         -2   -1    0    0    0  501 -0.00000000000E+00 -0.00000000000E+00 -0.66522323668E+02  0.66522323668E+02  0.00000000000E+00 0. -1.
         25    2    1    2    0    0  0.14493998377E+02 -0.32407357677E+02  0.12384244537E+03  0.17956738600E+03  0.12508869660E+03 0.  0.
         23    2    1    2    0    0 -0.14493998377E+02  0.32407357677E+02  0.20113969789E+02  0.97433676504E+02  0.88478453399E+02 0.  0.
          5    1    3    3  502    0 -0.18325201725E+02  0.24904480448E+02 -0.78583687151E+01  0.32175651097E+02  0.41800000000E+01 0.  1.
         -5    1    3    3    0  502  0.32819200102E+02 -0.57311838125E+02  0.13170081409E+03  0.14739173490E+03  0.41800000000E+01 0.  1.
        -11    1    4    4    0    0 -0.32986186871E+02  0.79085395359E+01  0.46087216457E+02  0.57224689101E+02  0.00000000000E+00 0.  1.
         11    1    4    4    0    0  0.18492188494E+02  0.24498818141E+02 -0.25973246668E+02  0.40208987404E+02  0.00000000000E+00 0. -1.
</event>
<event>
 8    1  0.6689467E-009  0.8710584E+02  0.7561462E-02  0.1310016E+00
         -2   -1    0    0    0  501 -0.00000000000E+00  0.00000000000E+00  0.13383359974E+04  0.13383359974E+04  0.00000000000E+00 0.  1.
          2   -1    0    0  501    0  0.00000000000E+00 -0.00000000000E+00 -0.13360773292E+02  0.13360773292E+02  0.00000000000E+00 0. -1.
         25    2    1    2    0    0 -0.14249258515E+02 -0.27426228984E+02  0.11231113730E+04  0.11304784101E+04  0.12508812986E+03 0.  0.
         23    2    1    2    0    0  0.14249258515E+02  0.27426228984E+02  0.20186385113E+03  0.22121836057E+03  0.85048863935E+02 0.  0.
          5    1    3    3  502    0 -0.59427829433E+02  0.22917158731E+01  0.31787935156E+03  0.32342181964E+03  0.41800000000E+01 0.  1.
         -5    1    3    3    0  502  0.45178570918E+02 -0.29717944857E+02  0.80523202143E+03  0.80705659049E+03  0.41800000000E+01 0.  1.
        -11    1    4    4    0    0  0.20015528597E+01  0.41585595352E+02  0.19770413014E+03  0.20204032030E+03  0.00000000000E+00 0.  1.
         11    1    4    4    0    0  0.12247705655E+02 -0.14159366368E+02  0.41597209895E+01  0.19178040266E+02  0.00000000000E+00 0. -1.
</event>
<event>
 8    1  0.6689467E-009  0.1604306E+03  0.7561462E-02  0.1188211E+00
         -1   -1    0    0    0  501 -0.00000000000E+00  0.00000000000E+00  0.86979101084E+02  0.86979101084E+02  0.00000000000E+00 0.  1.
          1   -1    0    0  501    0  0.00000000000E+00 -0.00000000000E+00 -0.30157913379E+03  0.30157913379E+03  0.00000000000E+00 0. -1.
         25    2    1    2    0    0 -0.11855206824E+03  0.14792736173E+02 -0.10314861637E+03  0.20139815900E+03  0.12509261953E+03 0.  0.
         23    2    1    2    0    0  0.11855206824E+03 -0.14792736173E+02 -0.11145141635E+03  0.18716007588E+03  0.91291061291E+02 0.  0.
          5    1    3    3  502    0  0.44701689153E+01  0.43662987991E+02 -0.12503959269E+02  0.45828597271E+02  0.41800000000E+01 0. -1.
         -5    1    3    3    0  502 -0.12302223716E+03 -0.28870251818E+02 -0.90644657097E+02  0.15556956172E+03  0.41800000000E+01 0. -1.
        -11    1    4    4    0    0  0.45022112186E+02  0.38731981468E+02 -0.42542886311E+02  0.73055144581E+02  0.00000000000E+00 0.  1.
         11    1    4    4    0    0  0.73529956054E+02 -0.53524717641E+02 -0.68908530036E+02  0.11410493130E+03  0.00000000000E+00 0. -1.
</event>
<event>
 8    1  0.6689467E-009  0.1086446E+03  0.7561462E-02  0.1263101E+00
          1   -1    0    0  501    0  0.00000000000E+00  0.00000000000E+00  0.37942695408E+03  0.37942695408E+03  0.00000000000E+00 0. -1.
         -1   -1    0    0    0  501 -0.00000000000E+00 -0.00000000000E+00 -0.53323500992E+02  0.53323500992E+02  0.00000000000E+00 0.  1.
         25    2    1    2    0    0 -0.83562085514E+02 -0.21686159296E+02  0.13008511446E+03  0.20006126602E+03  0.12509780780E+03 0.  0.
         23    2    1    2    0    0  0.83562085514E+02  0.21686159296E+02  0.19601833863E+03  0.23268918905E+03  0.90929412086E+02 0.  0.
          5    1    3    3  502    0 -0.45807772082E+02  0.21615206838E+02 -0.70593584010E+01  0.51311559037E+02  0.41800000000E+01 0.  1.
         -5    1    3    3    0  502 -0.37754313432E+02 -0.43301366133E+02  0.13714447286E+03  0.14874970698E+03  0.41800000000E+01 0.  1.
        -11    1    4    4    0    0  0.11484201592E+02 -0.21831954208E+02  0.68068917389E+01  0.25590132589E+02  0.00000000000E+00 0.  1.
         11    1    4    4    0    0  0.72077883922E+02  0.43518113504E+02  0.18921144689E+03  0.20709905647E+03  0.00000000000E+00 0. -1.
</event>
<event>
 8    1  0.6689467E-009  0.1464385E+03  0.7561462E-02  0.1204919E+00
          1   -1    0    0  501    0  0.00000000000E+00  0.00000000000E+00  0.79919517333E+03  0.79919517333E+03  0.00000000000E+00 0. -1.
         -1   -1    0    0    0  501 -0.00000000000E+00 -0.00000000000E+00 -0.35621241275E+02  0.35621241275E+02  0.00000000000E+00 0.  1.
         25    2    1    2    0    0  0.57631882323E+02 -0.10089998199E+03  0.54502064854E+03  0.57113507981E+03  0.12508210038E+03 0.  0.
         23    2    1    2    0    0 -0.57631882323E+02  0.10089998199E+03  0.21855328352E+03  0.26368133479E+03  0.90884918198E+02 0.  0.
          5    1    3    3  502    0 -0.30328046424E+02 -0.33351904199E+02  0.28271399075E+03  0.28631593194E+03  0.41800000000E+01 0. -1.
         -5    1    3    3    0  502  0.87959928747E+02 -0.67548077789E+02  0.26230665778E+03  0.28481914787E+03  0.41800000000E+01 0. -1.
        -11    1    4    4    0    0 -0.56829487754E+02  0.27351924844E+02  0.15169349432E+03  0.16428218008E+03  0.00000000000E+00 0.  1.
         11    1    4    4    0    0 -0.80239456963E+00  0.73548057145E+02  0.66859789194E+02  0.99399154714E+02  0.00000000000E+00 0. -1.
</event>
<event>
 8    1  0.6689467E-009  0.1017227E+03  0.7561462E-02  0.1276714E+00
          1   -1    0    0  501    0  0.00000000000E+00  0.00000000000E+00  0.39354726639E+02  0.39354726639E+02  0.00000000000E+00 0. -1.
         -1   -1    0    0    0  501 -0.00000000000E+00 -0.00000000000E+00 -0.57585829644E+03  0.57585829644E+03  0.00000000000E+00 0.  1.
         25    2    1    2    0    0  0.68075839148E+02  0.10892340187E+02 -0.45013140647E+03  0.47224769242E+03  0.12508651787E+03 0.  0.
         23    2    1    2    0    0 -0.68075839148E+02 -0.10892340187E+02 -0.86372163330E+02  0.14296533066E+03  0.90697145612E+02 0.  0.
          5    1    3    3  502    0  0.77088360020E+02  0.29034604355E+01 -0.12554619875E+03  0.14741223068E+03  0.41800000000E+01 0.  1.
         -5    1    3    3    0  502 -0.90125208716E+01  0.79888797512E+01 -0.32458520772E+03  0.32483546174E+03  0.41800000000E+01 0.  1.
        -11    1    4    4    0    0 -0.47178094716E+02 -0.50220847836E+02 -0.58815441461E+02  0.90593390116E+02  0.00000000000E+00 0.  1.
         11    1    4    4    0    0 -0.20897744432E+02  0.39328507649E+02 -0.27556721869E+02  0.52371940545E+02  0.00000000000E+00 0. -1.
</event>
<event>
 8    1  0.6689467E-009  0.1008736E+03  0.7561462E-02  0.1278470E+00
         -1   -1    0    0    0  501 -0.00000000000E+00  0.00000000000E+00  0.12052847943E+03  0.12052847943E+03  0.00000000000E+00 0.  1.
          1   -1    0    0  501    0  0.00000000000E+00 -0.00000000000E+00 -0.24317591350E+03  0.24317591350E+03  0.00000000000E+00 0. -1.
         25    2    1    2    0    0  0.34585977622E+02 -0.64636932369E+02 -0.18266566267E+03  0.23321860349E+03  0.12510015915E+03 0.  0.
         23    2    1    2    0    0 -0.34585977622E+02  0.64636932369E+02  0.60018228598E+02  0.13048578944E+03  0.89723077347E+02 0.  0.
          5    1    3    3  502    0  0.50270114243E+02 -0.55981784862E+02 -0.19633572466E+03  0.21030034189E+03  0.41800000000E+01 0. -1.
         -5    1    3    3    0  502 -0.15684136620E+02 -0.86551475067E+01  0.13670061986E+02  0.22918261596E+02  0.41800000000E+01 0. -1.
        -11    1    4    4    0    0 -0.60199659347E+02  0.38831180422E+02  0.61034942176E+02  0.94112293165E+02  0.00000000000E+00 0.  1.
         11    1    4    4    0    0  0.25613681724E+02  0.25805751947E+02 -0.10167135787E+01  0.36373496278E+02  0.00000000000E+00 0. -1.
</event>
<event>
 8    1  0.6689467E-009  0.1145598E+03  0.7561462E-02  0.1252351E+00
          1   -1    0    0  501    0  0.00000000000E+00  0.00000000000E+00  0.61763724417E+03  0.61763724417E+03  0.00000000000E+00 0. -1.
         -1   -1    0    0    0  501 -0.00000000000E+00 -0.00000000000E+00 -0.35387133598E+02  0.35387133598E+02  0.00000000000E+00 0.  1.
         25    2    1    2    0    0 -0.13444998807E+02  0.60181169215E+02  0.48700834250E+03  0.50658341223E+03  0.12508831586E+03 0.  0.
         23    2    1    2    0    0  0.13444998807E+02 -0.60181169215E+02  0.95241768074E+02  0.14644096554E+03  0.92581968443E+02 0.  0.
          5    1    3    3  502    0 -0.37164871833E+02 -0.28288472968E+02  0.13888485921E+03  0.14658765951E+03  0.41800000000E+01 0. -1.
         -5    1    3    3    0  502  0.23719873026E+02  0.88469642183E+02  0.34812348329E+03  0.35999575273E+03  0.41800000000E+01 0. -1.
        -11    1    4    4    0    0  0.19846391113E+02  0.84771587157E+01 -0.73762615006E+01  0.22806812443E+02  0.00000000000E+00 0.  1.
         11    1    4    4    0    0 -0.64013923055E+01 -0.68658327930E+02  0.10261802957E+03  0.12363415309E+03  0.00000000000E+00 0. -1.
</event>
<event>
 8    1  0.6689467E-009  0.1189616E+03  0.7561462E-02  0.1244820E+00
          4   -1    0    0  501    0  0.00000000000E+00  0.00000000000E+00  0.41511051561E+03  0.41511051561E+03  0.00000000000E+00 0. -1.
         -4   -1    0    0    0  501 -0.00000000000E+00 -0.00000000000E+00 -0.51664764891E+02  0.51664764891E+02  0.00000000000E+00 0.  1.
         25    2    1    2    0    0 -0.76556869823E+02  0.30643005822E+02  0.28337267696E+03  0.32054209948E+03  0.12508882991E+03 0.  0.
         23    2    1    2    0    0  0.76556869823E+02 -0.30643005822E+02  0.80073073755E+02  0.14623318102E+03  0.90401869269E+02 0.  0.
          5    1    3    3  502    0 -0.28707226738E+02  0.75488684027E+02  0.12273162206E+03  0.14698016783E+03  0.41800000000E+01 0.  1.
         -5    1    3    3    0  502 -0.47849643085E+02 -0.44845678205E+02  0.16064105491E+03  0.17356193165E+03  0.41800000000E+01 0.  1.
        -11    1    4    4    0    0  0.20551451945E+02  0.92915918367E+01 -0.16302077230E+02  0.27829006053E+02  0.00000000000E+00 0.  1.
         11    1    4    4    0    0  0.56005417878E+02 -0.39934597659E+02  0.96375150985E+02  0.11840417497E+03  0.00000000000E+00 0. -1.
</event>
<event>
 8    1  0.6689467E-009  0.1660972E+03  0.7561462E-02  0.1181980E+00
          2   -1    0    0  501    0  0.00000000000E+00  0.00000000000E+00  0.16052229409E+03  0.16052229409E+03  0.00000000000E+00 0. -1.
         -2   -1    0    0    0  501 -0.00000000000E+00 -0.00000000000E+00 -0.20945375762E+03  0.20945375762E+03  0.00000000000E+00 0.  1.
         25    2    1    2    0    0  0.61777955173E+02  0.12462448817E+03 -0.75278451424E+02  0.20164784591E+03  0.12508888725E+03 0.  0.
         23    2    1    2    0    0 -0.61777955173E+02 -0.12462448817E+03  0.26346987898E+02  0.16832820580E+03  0.91062848068E+02 0.  0.
          5    1    3    3  502    0  0.74033242310E+02  0.13565207487E+03 -0.90231176116E+02  0.17900151934E+03  0.41800000000E+01 0. -1.
         -5    1    3    3    0  502 -0.12255287137E+02 -0.11027586699E+02  0.14952724692E+02  0.22646326566E+02  0.41800000000E+01 0. -1.
        -11    1    4    4    0    0 -0.79365161139E+02 -0.80289935704E+02 -0.18708973496E+01  0.11291059665E+03  0.00000000000E+00 0.  1.
         11    1    4    4    0    0  0.17587205966E+02 -0.44334552468E+02  0.28217885248E+02  0.55417609152E+02  0.00000000000E+00 0. -1.
</event>
<event>
 8    1  0.6689467E-009  0.6798841E+02  0.7561462E-02  0.1367070E+00
         -1   -1    0    0    0  501 -0.00000000000E+00  0.00000000000E+00  0.68089638121E+02  0.68089638121E+02  0.00000000000E+00 0.  1.
          1   -1    0    0  501    0  0.00000000000E+00 -0.00000000000E+00 -0.17490387670E+03  0.17490387670E+03  0.00000000000E+00 0. -1.
         25    2    1    2    0    0 -0.14477022877E+02 -0.29143751692E+01 -0.66413287633E+02  0.14239570507E+03  0.12509090404E+03 0.  0.
         23    2    1    2    0    0  0.14477022877E+02  0.29143751692E+01 -0.40400950945E+02  0.10059780975E+03  0.90937366994E+02 0.  0.
          5    1    3    3  502    0 -0.23587525582E+02  0.11286713912E+02  0.32525198934E+02  0.41941891227E+02  0.41800000000E+01 0. -1.
         -5    1    3    3    0  502  0.91105027046E+01 -0.14201089082E+02 -0.98938486567E+02  0.10045381384E+03  0.41800000000E+01 0. -1.
        -11    1    4    4    0    0  0.29870124770E+02 -0.38037715962E+02 -0.22116414775E+02  0.53181086787E+02  0.00000000000E+00 0.  1.
         11    1    4    4    0    0 -0.15393101892E+02  0.40952091131E+02 -0.18284536170E+02  0.47416722966E+02  0.00000000000E+00 0. -1.
</event>
<event>
 8    1  0.6689467E-009  0.9851797E+02  0.7561462E-02  0.1283444E+00
         -1   -1    0    0    0  501 -0.00000000000E+00  0.00000000000E+00  0.18618183616E+02  0.18618183616E+02  0.00000000000E+00 0.  1.
          1   -1    0    0  501    0  0.00000000000E+00 -0.00000000000E+00 -0.83459398410E+03  0.83459398410E+03  0.00000000000E+00 0. -1.
         25    2    1    2    0    0  0.50131760429E+02  0.34340420495E+02 -0.48026111356E+03  0.49999063792E+03  0.12508973950E+03 0.  0.
         23    2    1    2    0    0 -0.50131760429E+02 -0.34340420495E+02 -0.33571468693E+03  0.35322152980E+03  0.91480272246E+02 0.  0.
          5    1    3    3  502    0  0.31248063540E+02 -0.17617924182E+02 -0.31813797000E+02  0.48129230277E+02  0.41800000000E+01 0.  1.
         -5    1    3    3    0  502  0.18883696889E+02  0.51958344677E+02 -0.44844731656E+03  0.45186140765E+03  0.41800000000E+01 0.  1.
        -11    1    4    4    0    0  0.19362069532E+02 -0.30185460457E+02 -0.71506309193E+02  0.79995024933E+02  0.00000000000E+00 0.  1.
         11    1    4    4    0    0 -0.69493829961E+02 -0.41549600373E+01 -0.26420837773E+03  0.27322650486E+03  0.00000000000E+00 0. -1.
</event>
<event>
 8    1  0.6689467E-009  0.8222886E+02  0.7561462E-02  0.1322843E+00
          1   -1    0    0  501    0  0.00000000000E+00  0.00000000000E+00  0.96334232604E+02  0.96334232604E+02  0.00000000000E+00 0. -1.
         -1   -1    0    0    0  501 -0.00000000000E+00 -0.00000000000E+00 -0.14467359310E+03  0.14467359310E+03  0.00000000000E+00 0.  1.
         25    2    1    2    0    0 -0.29377045064E+02 -0.26069494489E+02 -0.60864463070E+02  0.14455437479E+03  0.12509538396E+03 0.  0.
         23    2    1    2    0    0  0.29377045064E+02  0.26069494489E+02  0.12525102576E+02  0.96453450908E+02  0.87199545170E+02 0.  0.
          5    1    3    3  502    0 -0.36432975264E+02 -0.69854692110E+02 -0.14424766993E+02  0.80203403913E+02  0.41800000000E+01 0.  1.
         -5    1    3    3    0  502  0.70559302004E+01  0.43785197621E+02 -0.46439696077E+02  0.64350970882E+02  0.41800000000E+01 0.  1.
        -11    1    4    4    0    0  0.19545473722E+02  0.94602383405E+01 -0.37222239319E+02  0.43093117228E+02  0.00000000000E+00 0.  1.
         11    1    4    4    0    0  0.98315713416E+01  0.16609256149E+02  0.49747341895E+02  0.53360333680E+02  0.00000000000E+00 0. -1.
</event>
<event>
 8    1  0.6689467E-009  0.8971733E+02  0.7561462E-02  0.1303538E+00
         -1   -1    0    0    0  501 -0.00000000000E+00  0.00000000000E+00  0.62503638057E+02  0.62503638057E+02  0.00000000000E+00 0.  1.
          1   -1    0    0  501    0  0.00000000000E+00 -0.00000000000E+00 -0.27540917209E+03  0.27540917209E+03  0.00000000000E+00 0. -1.
         25    2    1    2    0    0  0.54775748253E+02 -0.40270578741E+02 -0.18184419103E+03  0.23094737792E+03  0.12508908605E+03 0.  0.
         23    2    1    2    0    0 -0.54775748253E+02  0.40270578741E+02 -0.31061343007E+02  0.10696543223E+03  0.76515975808E+02 0.  0.
          5    1    3    3  502    0  0.51595929827E+02 -0.63213812153E+02 -0.18936408331E+03  0.20623858627E+03  0.41800000000E+01 0. -1.
         -5    1    3    3    0  502  0.31798184256E+01  0.22943233412E+02  0.75198922802E+01  0.24708791644E+02  0.41800000000E+01 0. -1.
        -11    1    4    4    0    0 -0.16223069940E+02 -0.27189042478E+01  0.22723714811E+02  0.28052587285E+02  0.00000000000E+00 0.  1.
         11    1    4    4    0    0 -0.38552678313E+02  0.42989482989E+02 -0.53785057818E+02  0.78912844944E+02  0.00000000000E+00 0. -1.
</event>
<event>
 8    1  0.6689467E-009  0.1938574E+03  0.7561462E-02  0.1155028E+00
          2   -1    0    0  501    0  0.00000000000E+00  0.00000000000E+00  0.26471936060E+03  0.26471936060E+03  0.00000000000E+00 0. -1.
         -2   -1    0    0    0  501 -0.00000000000E+00 -0.00000000000E+00 -0.14576726691E+03  0.14576726691E+03  0.00000000000E+00 0.  1.
         25    2    1    2    0    0 -0.79754406700E+02  0.14200508291E+03  0.72878518655E+02  0.21790625404E+03  0.12508256516E+03 0.  0.
         23    2    1    2    0    0  0.79754406700E+02 -0.14200508291E+03  0.46073575036E+02  0.19258037348E+03  0.91859767981E+02 0.  0.
          5    1    3    3  502    0 -0.88702700756E+02  0.32995567817E+02  0.22263596976E+02  0.97314011157E+02  0.41800000000E+01 0. -1.
         -5    1    3    3    0  502  0.89482940564E+01  0.10900951509E+03  0.50614921679E+02  0.12059224288E+03  0.41800000000E+01 0. -1.
        -11    1    4    4    0    0  0.87418376955E+02 -0.72418470856E+02  0.46235115519E+02  0.12257280880E+03  0.00000000000E+00 0. -1.
         11    1    4    4    0    0 -0.76639702547E+01 -0.69586612051E+02 -0.16154048390E+00  0.70007564678E+02  0.00000000000E+00 0.  1.
</event>
<event>
 8    1  0.6689467E-009  0.3964229E+03  0.7561462E-02  0.1045025E+00
          1   -1    0    0  501    0  0.00000000000E+00  0.00000000000E+00  0.25082120256E+03  0.25082120256E+03  0.00000000000E+00 0. -1.
         -1   -1    0    0    0  501 -0.00000000000E+00 -0.00000000000E+00 -0.64774130388E+03  0.64774130388E+03  0.00000000000E+00 0.  1.
         25    2    1    2    0    0  0.29720393374E+03  0.24485935345E+03 -0.25513774993E+03  0.47856974953E+03  0.12508977785E+03 0.  0.
         23    2    1    2    0    0 -0.29720393374E+03 -0.24485935345E+03 -0.14178235139E+03  0.41999275691E+03  0.89472898057E+02 0.  0.
          5    1    3    3  502    0  0.24927545172E+03  0.14934498216E+03 -0.22476174013E+03  0.36739282349E+03  0.41800000000E+01 0. -1.
         -5    1    3    3    0  502  0.47928482025E+02  0.95514371291E+02 -0.30376009792E+02  0.11117692604E+03  0.41800000000E+01 0. -1.
        -11    1    4    4    0    0 -0.17151517460E+03 -0.19594770172E+03 -0.89992669497E+02  0.27552066618E+03  0.00000000000E+00 0. -1.
         11    1    4    4    0    0 -0.12568875914E+03 -0.48911651728E+02 -0.51789681894E+02  0.14447209073E+03  0.00000000000E+00 0.  1.
</event>
<event>
 8    1  0.6689467E-009  0.1604152E+03  0.7561462E-02  0.1188229E+00
         -1   -1    0    0    0  501 -0.00000000000E+00  0.00000000000E+00  0.12364128965E+03  0.12364128965E+03  0.00000000000E+00 0.  1.
          1   -1    0    0  501    0  0.00000000000E+00 -0.00000000000E+00 -0.28099416664E+03  0.28099416664E+03  0.00000000000E+00 0. -1.
         25    2    1    2    0    0 -0.67649398253E+02  0.11919605337E+03 -0.14245621055E+02  0.18609692415E+03  0.12507992339E+03 0.  0.
         23    2    1    2    0    0  0.67649398253E+02 -0.11919605337E+03 -0.14310725594E+03  0.21853853215E+03  0.92169751581E+02 0.  0.
          5    1    3    3  502    0  0.91173234886E+01  0.82270312234E+02  0.32279893534E+02  0.88943767568E+02  0.41800000000E+01 0.  1.
         -5    1    3    3    0  502 -0.76766721742E+02  0.36925741139E+02 -0.46525514589E+02  0.97153156580E+02  0.41800000000E+01 0.  1.
        -11    1    4    4    0    0 -0.13209370062E+02 -0.26820382186E+02  0.12051944853E+00  0.29897071478E+02  0.00000000000E+00 0.  1.
         11    1    4    4    0    0  0.80858768315E+02 -0.92375671187E+02 -0.14322777539E+03  0.18864146067E+03  0.00000000000E+00 0. -1.
</event>
<event>
 8    1  0.6689467E-009  0.1032623E+03  0.7561462E-02  0.1273582E+00
         -1   -1    0    0    0  501 -0.00000000000E+00  0.00000000000E+00  0.51207071344E+02  0.51207071344E+02  0.00000000000E+00 0.  1.
          1   -1    0    0  501    0  0.00000000000E+00 -0.00000000000E+00 -0.37972663287E+03  0.37972663287E+03  0.00000000000E+00 0. -1.
         25    2    1    2    0    0 -0.78940808933E+02  0.35861384017E+02 -0.18370834896E+03  0.23856613928E+03  0.12508938865E+03 0.  0.
         23    2    1    2    0    0  0.78940808933E+02 -0.35861384017E+02 -0.14481121257E+03  0.19236756494E+03  0.92289233266E+02 0.  0.
          5    1    3    3  502    0 -0.68004022259E+02 -0.59800159832E+01 -0.23108366975E+02  0.72192635766E+02  0.41800000000E+01 0. -1.
         -5    1    3    3    0  502 -0.10936786674E+02  0.41841400000E+02 -0.16059998199E+03  0.16637350351E+03  0.41800000000E+01 0. -1.
        -11    1    4    4    0    0  0.47803445177E+01 -0.17693968082E+02  0.91708000760E+01  0.20494676729E+02  0.00000000000E+00 0.  1.
         11    1    4    4    0    0  0.74160464415E+02 -0.18167415935E+02 -0.15398201264E+03  0.17187288821E+03  0.00000000000E+00 0. -1.
</event>
<event>
 8    1  0.6689467E-009  0.9937735E+02  0.7561462E-02  0.1281611E+00
         -2   -1    0    0    0  501 -0.00000000000E+00  0.00000000000E+00  0.14516561421E+03  0.14516561421E+03  0.00000000000E+00 0.  1.
          2   -1    0    0  501    0  0.00000000000E+00 -0.00000000000E+00 -0.10540893598E+03  0.10540893598E+03  0.00000000000E+00 0. -1.
         25    2    1    2    0    0 -0.60343180234E+02 -0.17916477442E+02  0.31581522096E+02  0.14354772586E+03  0.12508500109E+03 0.  0.
         23    2    1    2    0    0  0.60343180234E+02  0.17916477442E+02  0.81751561387E+01  0.10702682432E+03  0.86171969817E+02 0.  0.
          5    1    3    3  502    0  0.22879566740E+02 -0.16898981719E+02  0.50484769728E+02  0.58096768687E+02  0.41800000000E+01 0.  1.
         -5    1    3    3    0  502 -0.83222746974E+02 -0.10174957230E+01 -0.18903247632E+02  0.85450957178E+02  0.41800000000E+01 0.  1.
        -11    1    4    4    0    0  0.19785803103E+02  0.36916341391E+02 -0.27210972696E+02  0.49947285224E+02  0.00000000000E+00 0.  1.
         11    1    4    4    0    0  0.40557377132E+02 -0.18999863950E+02  0.35386128835E+02  0.57079539100E+02  0.00000000000E+00 0. -1.
</event>
<event>
 8    1  0.6689467E-009  0.1056041E+03  0.7561462E-02  0.1268934E+00
          1   -1    0    0  501    0  0.00000000000E+00  0.00000000000E+00  0.78668872639E+02  0.78668872639E+02  0.00000000000E+00 0. -1.
         -1   -1    0    0    0  501 -0.00000000000E+00 -0.00000000000E+00 -0.15281566192E+03  0.15281566192E+03  0.00000000000E+00 0.  1.
         25    2    1    2    0    0 -0.62471613526E+01 -0.87769781388E+01 -0.61886176674E+02  0.13997671598E+03  0.12509004670E+03 0.  0.
         23    2    1    2    0    0  0.62471613526E+01  0.87769781388E+01 -0.12260612610E+02  0.91507818583E+02  0.90040523488E+02 0.  0.
          5    1    3    3  502    0  0.13329433158E+02 -0.63302767587E+02 -0.46834090954E+02  0.79973862280E+02  0.41800000000E+01 0.  1.
         -5    1    3    3    0  502 -0.19576594510E+02  0.54525789448E+02 -0.15052085719E+02  0.60002853699E+02  0.41800000000E+01 0.  1.
        -11    1    4    4    0    0  0.43585562393E+02  0.21826199756E+02 -0.17105328642E+02  0.51659234536E+02  0.00000000000E+00 0. -1.
         11    1    4    4    0    0 -0.37338401041E+02 -0.13049221617E+02  0.48447160330E+01  0.39848584047E+02  0.00000000000E+00 0.  1.
</event>
<event>
 8    1  0.6689467E-009  0.1131564E+03  0.7561462E-02  0.1254834E+00
          3   -1    0    0  501    0  0.00000000000E+00  0.00000000000E+00  0.22170083978E+03  0.22170083978E+03  0.00000000000E+00 0.  1.
         -3   -1    0    0    0  501 -0.00000000000E+00 -0.00000000000E+00 -0.83357463207E+02  0.83357463207E+02  0.00000000000E+00 0. -1.
         25    2    1    2    0    0  0.27100802868E+02 -0.43717622349E+02  0.14734802697E+03  0.20001160125E+03  0.12509002982E+03 0.  0.
         23    2    1    2    0    0 -0.27100802868E+02  0.43717622349E+02 -0.90046503993E+01  0.10504670174E+03  0.91148460204E+02 0.  0.
          5    1    3    3  502    0  0.28855895023E+02 -0.85733259726E+02  0.11716097241E+03  0.14807775106E+03  0.41800000000E+01 0. -1.
         -5    1    3    3    0  502 -0.17550921555E+01  0.42015637377E+02  0.30187054556E+02  0.51933850189E+02  0.41800000000E+01 0. -1.
        -11    1    4    4    0    0 -0.54275693878E+02  0.21434011743E+02 -0.28408882544E+02  0.64902483872E+02  0.00000000000E+00 0. -1.
         11    1    4    4    0    0  0.27174891010E+02  0.22283610606E+02  0.19404232145E+02  0.40144217867E+02  0.00000000000E+00 0.  1.
</event>
<event>
 8    1  0.6689467E-009  0.1003631E+03  0.7561462E-02  0.1279534E+00
          1   -1    0    0  501    0  0.00000000000E+00  0.00000000000E+00  0.94263348827E+02  0.94263348827E+02  0.00000000000E+00 0. -1.
         -1   -1    0    0    0  501 -0.00000000000E+00 -0.00000000000E+00 -0.16921193990E+03  0.16921193990E+03  0.00000000000E+00 0.  1.
         25    2    1    2    0    0 -0.36365275599E+02 -0.80226797174E+01 -0.95874243294E+02  0.16194538358E+03  0.12509052752E+03 0.  0.
         23    2    1    2    0    0  0.36365275599E+02  0.80226797174E+01  0.20925652226E+02  0.10152990514E+03  0.92106688454E+02 0.  0.
          5    1    3    3  502    0 -0.35107925610E+02 -0.64164750449E+02 -0.63754667234E+02  0.97117514563E+02  0.41800000000E+01 0. -1.
         -5    1    3    3    0  502 -0.12573499893E+01  0.56142070731E+02 -0.32119576060E+02  0.64827869017E+02  0.41800000000E+01 0. -1.
        -11    1    4    4    0    0 -0.38155931829E+01  0.26609950874E+02 -0.25730788534E+02  0.37211849127E+02  0.00000000000E+00 0.  1.
         11    1    4    4    0    0  0.40180868782E+02 -0.18587271157E+02  0.46656440760E+02  0.64318056015E+02  0.00000000000E+00 0. -1.
</event>
<event>
 8    1  0.6689467E-009  0.1136367E+03  0.7561462E-02  0.1253980E+00
         -1   -1    0    0    0  501 -0.00000000000E+00  0.00000000000E+00  0.17416238260E+02  0.17416238260E+02  0.00000000000E+00 0.  1.
          1   -1    0    0  501    0  0.00000000000E+00 -0.00000000000E+00 -0.85471681308E+03  0.85471681308E+03  0.00000000000E+00 0. -1.
         25    2    1    2    0    0 -0.47510768518E+02 -0.23645861655E+02 -0.45719923110E+03  0.47696387430E+03  0.12508797133E+03 0.  0.
         23    2    1    2    0    0  0.47510768518E+02  0.23645861655E+02 -0.38010134372E+03  0.39516917703E+03  0.94155441079E+02 0.  0.
          5    1    3    3  502    0  0.23321064873E+02 -0.43095958336E+02 -0.29213354063E+03  0.29624417573E+03  0.41800000000E+01 0.  1.
         -5    1    3    3    0  502 -0.70831833391E+02  0.19450096681E+02 -0.16506569047E+03  0.18071969857E+03  0.41800000000E+01 0.  1.
        -11    1    4    4    0    0 -0.26333025107E+02 -0.18554614428E+01 -0.14625524697E+03  0.14861853254E+03  0.00000000000E+00 0. -1.
         11    1    4    4    0    0  0.73843793625E+02  0.25501323098E+02 -0.23384609675E+03  0.24655064449E+03  0.00000000000E+00 0.  1.
</event>
<event>
 8    1  0.6689467E-009  0.1081713E+03  0.7561462E-02  0.1263994E+00
         -3   -1    0    0    0  501 -0.00000000000E+00  0.00000000000E+00  0.25174066855E+02  0.25174066855E+02  0.00000000000E+00 0.  1.
          3   -1    0    0  501    0  0.00000000000E+00 -0.00000000000E+00 -0.95136774772E+03  0.95136774772E+03  0.00000000000E+00 0. -1.
         25    2    1    2    0    0 -0.35532957154E+02  0.13393574872E+02 -0.82678607339E+03  0.83705722432E+03  0.12509039428E+03 0.  0.
         23    2    1    2    0    0  0.35532957154E+02 -0.13393574872E+02 -0.99407607472E+02  0.13948459025E+03  0.90178154798E+02 0.  0.
          5    1    3    3  502    0 -0.71857521313E+02 -0.20052448369E+02 -0.61649098224E+03  0.62100258263E+03  0.41800000000E+01 0.  1.
         -5    1    3    3    0  502  0.36324564159E+02  0.33446023241E+02 -0.21029509116E+03  0.21605464169E+03  0.41800000000E+01 0.  1.
        -11    1    4    4    0    0 -0.17020794427E+02 -0.32060304631E+02 -0.63536349367E+02  0.73174027270E+02  0.00000000000E+00 0. -1.
         11    1    4    4    0    0  0.52553751581E+02  0.18666729760E+02 -0.35871258104E+02  0.66310562983E+02  0.00000000000E+00 0.  1.
</event>
<event>
 8    1  0.6689467E-009  0.9006637E+02  0.7561462E-02  0.1302691E+00
          2   -1    0    0  501    0  0.00000000000E+00  0.00000000000E+00  0.26030408158E+03  0.26030408158E+03  0.00000000000E+00 0. -1.
         -2   -1    0    0    0  501 -0.00000000000E+00 -0.00000000000E+00 -0.51419669023E+02  0.51419669023E+02  0.00000000000E+00 0.  1.
         25    2    1    2    0    0 -0.68010397670E+01  0.62440336824E+01  0.17039784625E+03  0.21158967506E+03  0.12509805149E+03 0.  0.
         23    2    1    2    0    0  0.68010397670E+01 -0.62440336824E+01  0.38486566308E+02  0.10013407554E+03  0.91980297892E+02 0.  0.
          5    1    3    3  502    0 -0.50485499620E+02 -0.37843429534E+02  0.85736785205E+02  0.10653252822E+03  0.41800000000E+01 0. -1.
         -5    1    3    3    0  502  0.43684459853E+02  0.44087463217E+02  0.84661061044E+02  0.10505714684E+03  0.41800000000E+01 0. -1.
        -11    1    4    4    0    0 -0.18909860381E+00  0.23823990964E+02 -0.21870425709E+02  0.32340900180E+02  0.00000000000E+00 0.  1.
         11    1    4    4    0    0  0.69901383708E+01 -0.30068024647E+02  0.60356992018E+02  0.67793175365E+02  0.00000000000E+00 0. -1.
</event>
<event>
 8    1  0.6689467E-009  0.8022266E+02  0.7561462E-02  0.1328421E+00
         -2   -1    0    0    0  501 -0.00000000000E+00  0.00000000000E+00  0.68275810286E+03  0.68275810286E+03  0.00000000000E+00 0.  1.
          2   -1    0    0  501    0  0.00000000000E+00 -0.00000000000E+00 -0.22416402680E+02  0.22416402680E+02  0.00000000000E+00 0. -1.
         25    2    1    2    0    0 -0.39892635867E+02  0.36379445173E+02  0.43904741073E+03  0.45969667226E+03  0.12507403884E+03 0.  0.
         23    2    1    2    0    0  0.39892635867E+02 -0.36379445173E+02  0.22129428945E+03  0.24547783328E+03  0.91505834027E+02 0.  0.
          5    1    3    3  502    0 -0.11327872785E+02  0.14584956433E+02  0.41680161669E+03  0.41723147260E+03  0.41800000000E+01 0.  1.
         -5    1    3    3    0  502 -0.28564763082E+02  0.21794488740E+02  0.22245794038E+02  0.42465199655E+02  0.41800000000E+01 0.  1.
        -11    1    4    4    0    0 -0.48079199940E+01 -0.56225480264E+02  0.10244962627E+03  0.11696301402E+03  0.00000000000E+00 0. -1.
         11    1    4    4    0    0  0.44700555861E+02  0.19846035091E+02  0.11884466318E+03  0.12851481926E+03  0.00000000000E+00 0.  1.
</event>
<event>
 8    1  0.6689467E-009  0.1295146E+03  0.7561462E-02  0.1228178E+00
         -2   -1    0    0    0  501 -0.00000000000E+00  0.00000000000E+00  0.79876160856E+02  0.79876160856E+02  0.00000000000E+00 0.  1.
          2   -1    0    0  501    0  0.00000000000E+00 -0.00000000000E+00 -0.27262379080E+03  0.27262379080E+03  0.00000000000E+00 0. -1.
         25    2    1    2    0    0 -0.83188319128E+02  0.56778701897E+02 -0.10683775192E+03  0.19288740151E+03  0.12508847667E+03 0.  0.
         23    2    1    2    0    0  0.83188319128E+02 -0.56778701897E+02 -0.85909878024E+02  0.15961255015E+03  0.89171416916E+02 0.  0.
          5    1    3    3  502    0 -0.82967626046E+02  0.16249720027E+02 -0.12278327406E+03  0.14913378276E+03  0.41800000000E+01 0. -1.
         -5    1    3    3    0  502 -0.22069308194E+00  0.40528981870E+02  0.15945522138E+02  0.43753618743E+02  0.41800000000E+01 0. -1.
        -11    1    4    4    0    0 -0.63045491692E+01 -0.42557198116E+02 -0.36393756899E+02  0.56350403662E+02  0.00000000000E+00 0. -1.
         11    1    4    4    0    0  0.89492868298E+02 -0.14221503781E+02 -0.49516121125E+02  0.10326214649E+03  0.00000000000E+00 0.  1.
</event>
<event>
 8    1  0.6689467E-009  0.1108634E+03  0.7561462E-02  0.1258979E+00
          1   -1    0    0  501    0  0.00000000000E+00  0.00000000000E+00  0.40643868677E+02  0.40643868677E+02  0.00000000000E+00 0. -1.
         -1   -1    0    0    0  501 -0.00000000000E+00 -0.00000000000E+00 -0.34064835124E+03  0.34064835124E+03  0.00000000000E+00 0.  1.
         25    2    1    2    0    0  0.41040226398E+02 -0.16966895495E+02 -0.19559822079E+03  0.23638377538E+03  0.12508576882E+03 0.  0.
         23    2    1    2    0    0 -0.41040226398E+02  0.16966895495E+02 -0.10440626177E+03  0.14490844454E+03  0.90142188098E+02 0.  0.
          5    1    3    3  502    0  0.35736540855E+02 -0.70226123756E+02 -0.12174224261E+03  0.14507740984E+03  0.41800000000E+01 0. -1.
         -5    1    3    3    0  502  0.53036855434E+01  0.53259228260E+02 -0.73855978184E+02  0.91306365544E+02  0.41800000000E+01 0. -1.
        -11    1    4    4    0    0  0.23069573180E+02  0.79105926688E+01 -0.29680361406E+01  0.24568107815E+02  0.00000000000E+00 0. -1.
         11    1    4    4    0    0 -0.64109799578E+02  0.90563028266E+01 -0.10143822563E+03  0.12034033672E+03  0.00000000000E+00 0.  1.
</event>
<event>
 8    1  0.6689467E-009  0.5667762E+02  0.7561462E-02  0.1412328E+00
         -2   -1    0    0    0  501 -0.00000000000E+00  0.00000000000E+00  0.32736620768E+02  0.32736620768E+02  0.00000000000E+00 0. -1.
          2   -1    0    0  501    0  0.00000000000E+00 -0.00000000000E+00 -0.47035145099E+03  0.47035145099E+03  0.00000000000E+00 0.  1.
         25    2    1    2    0    0 -0.17312914265E+01  0.60398625538E+01 -0.38461775400E+03  0.40449744266E+03  0.12509151496E+03 0.  0.
         23    2    1    2    0    0  0.17312914265E+01 -0.60398625538E+01 -0.52997076216E+02  0.98590629094E+02  0.82897193849E+02 0.  0.
          5    1    3    3  502    0  0.17231905945E+02 -0.29977526858E+02 -0.34753396174E+03  0.34927484544E+03  0.41800000000E+01 0. -1.
         -5    1    3    3    0  502 -0.18963197371E+02  0.36017389412E+02 -0.37083792265E+02  0.55222597216E+02  0.41800000000E+01 0. -1.
        -11    1    4    4    0    0 -0.35471800755E+01 -0.21231145127E+02 -0.71152150903E+02  0.74336885784E+02  0.00000000000E+00 0.  1.
         11    1    4    4    0    0  0.52784715020E+01  0.15191282574E+02  0.18155074687E+02  0.24253743310E+02  0.00000000000E+00 0. -1.
</event>
<event>
 8    1  0.6689467E-009  0.1739426E+03  0.7561462E-02  0.1173798E+00
         -1   -1    0    0    0  501 -0.00000000000E+00  0.00000000000E+00  0.49162534658E+02  0.49162534658E+02  0.00000000000E+00 0.  1.
          1   -1    0    0  501    0  0.00000000000E+00 -0.00000000000E+00 -0.66065056940E+03  0.66065056940E+03  0.00000000000E+00 0. -1.
         25    2    1    2    0    0  0.14058837706E+03 -0.28153750138E+02 -0.34848370057E+03  0.39704721585E+03  0.12509147306E+03 0.  0.
         23    2    1    2    0    0 -0.14058837706E+03  0.28153750138E+02 -0.26300433417E+03  0.31276588821E+03  0.89963857334E+02 0.  0.
          5    1    3    3  502    0  0.11087412921E+03 -0.74388751355E+02 -0.26873103462E+03  0.30010098338E+03  0.41800000000E+01 0. -1.
         -5    1    3    3    0  502  0.29714247851E+02  0.46235001217E+02 -0.79752665950E+02  0.96946232464E+02  0.41800000000E+01 0. -1.
        -11    1    4    4    0    0 -0.77064961707E+02 -0.19829073395E+02 -0.78310597290E+02  0.11164564534E+03  0.00000000000E+00 0. -1.
         11    1    4    4    0    0 -0.63523415355E+02  0.47982823533E+02 -0.18469373688E+03  0.20112024288E+03  0.00000000000E+00 0.  1.
</event>
<event>
 8    1  0.6689467E-009  0.1339913E+03  0.7561462E-02  0.1221651E+00
          2   -1    0    0  501    0  0.00000000000E+00  0.00000000000E+00  0.73049108693E+03  0.73049108693E+03  0.00000000000E+00 0. -1.
         -2   -1    0    0    0  501 -0.00000000000E+00 -0.00000000000E+00 -0.35577623913E+02  0.35577623913E+02  0.00000000000E+00 0.  1.
         25    2    1    2    0    0 -0.55131220840E+02  0.89605162097E+02  0.50867845892E+03  0.53429421043E+03  0.12509193478E+03 0.  0.
         23    2    1    2    0    0  0.55131220840E+02 -0.89605162097E+02  0.18623500410E+03  0.23177450042E+03  0.89260325477E+02 0.  0.
          5    1    3    3  502    0  0.35248910513E+02  0.54405021076E+02  0.23909919008E+03  0.24776659805E+03  0.41800000000E+01 0.  1.
         -5    1    3    3    0  502 -0.90380131353E+02  0.35200141021E+02  0.26957926884E+03  0.28652761238E+03  0.41800000000E+01 0.  1.
        -11    1    4    4    0    0  0.88060090721E+01 -0.24502549848E+02  0.13355408034E+03  0.13606841338E+03  0.00000000000E+00 0. -1.
         11    1    4    4    0    0  0.46325211768E+02 -0.65102612249E+02  0.52680923765E+02  0.95706087036E+02  0.00000000000E+00 0.  1.
</event>
<event>
 8    1  0.6689467E-009  0.1155175E+03  0.7561462E-02  0.1250680E+00
         -1   -1    0    0    0  501 -0.00000000000E+00  0.00000000000E+00  0.55464638397E+02  0.55464638397E+02  0.00000000000E+00 0.  1.
          1   -1    0    0  501    0  0.00000000000E+00 -0.00000000000E+00 -0.36731048981E+03  0.36731048981E+03  0.00000000000E+00 0. -1.
         25    2    1    2    0    0  0.21666364430E+02  0.80001937388E+02 -0.10866469562E+03  0.18527144506E+03  0.12509097069E+03 0.  0.
         23    2    1    2    0    0 -0.21666364430E+02 -0.80001937388E+02 -0.20318115580E+03  0.23750368315E+03  0.90860751172E+02 0.  0.
          5    1    3    3  502    0 -0.19876768444E+02 -0.53552022779E+01 -0.84711570832E+02  0.87277068856E+02  0.41800000000E+01 0. -1.
         -5    1    3    3    0  502  0.41543132874E+02  0.85357139666E+02 -0.23953124784E+02  0.97994376205E+02  0.41800000000E+01 0. -1.
        -11    1    4    4    0    0 -0.11446910857E+02 -0.95642099863E+02 -0.19419478345E+03  0.21677190075E+03  0.00000000000E+00 0. -1.
         11    1    4    4    0    0 -0.10219453573E+02  0.15640162474E+02 -0.89863723510E+01  0.20731782403E+02  0.00000000000E+00 0.  1.
</event>
<event>
 8    1  0.6689467E-009  0.1452870E+03  0.7561462E-02  0.1206387E+00
         -3   -1    0    0    0  501 -0.00000000000E+00  0.00000000000E+00  0.10504754380E+03  0.10504754380E+03  0.00000000000E+00 0.  1.
          3   -1    0    0  501    0  0.00000000000E+00 -0.00000000000E+00 -0.24361756801E+03  0.24361756801E+03  0.00000000000E+00 0. -1.
         25    2    1    2    0    0  0.58648397217E+02  0.83190705022E+02 -0.14722260377E+02  0.16194004380E+03  0.12508998735E+03 0.  0.
         23    2    1    2    0    0 -0.58648397217E+02 -0.83190705022E+02 -0.12384776383E+03  0.18672506801E+03  0.95747869527E+02 0.  0.
          5    1    3    3  502    0  0.90836081965E+02  0.81577885112E+02 -0.30355677065E+02  0.12587726028E+03  0.41800000000E+01 0.  1.
         -5    1    3    3    0  502 -0.32187684747E+02  0.16128199107E+01  0.15633416687E+02  0.36062783514E+02  0.41800000000E+01 0.  1.
        -11    1    4    4    0    0 -0.28513582029E+02 -0.98194323448E+02 -0.11039500828E+03  0.15047327793E+03  0.00000000000E+00 0. -1.
         11    1    4    4    0    0 -0.30134815189E+02  0.15003618426E+02 -0.13452755558E+02  0.36251790086E+02  0.00000000000E+00 0.  1.
</event>
<event>
 8    1  0.6689467E-009  0.3577509E+03  0.7561462E-02  0.1059478E+00
          1   -1    0    0  501    0  0.00000000000E+00  0.00000000000E+00  0.21452306059E+03  0.21452306059E+03  0.00000000000E+00 0. -1.
         -1   -1    0    0    0  501 -0.00000000000E+00 -0.00000000000E+00 -0.65919622115E+03  0.65919622115E+03  0.00000000000E+00 0.  1.
         25    2    1    2    0    0  0.18464564087E+03 -0.29974846846E+03 -0.31118448271E+03  0.48623569806E+03  0.12508483024E+03 0.  0.
         23    2    1    2    0    0 -0.18464564087E+03  0.29974846846E+03 -0.13348867785E+03  0.38748358367E+03  0.91548585280E+02 0.  0.
          5    1    3    3  502    0  0.13501071811E+03 -0.21900977207E+03 -0.29245163471E+03  0.38953639793E+03  0.41800000000E+01 0. -1.
         -5    1    3    3    0  502  0.49634922762E+02 -0.80738696394E+02 -0.18732847998E+02  0.96699300137E+02  0.41800000000E+01 0. -1.
        -11    1    4    4    0    0 -0.12386844525E+03  0.11571064955E+03 -0.71838869174E+02  0.18410097574E+03  0.00000000000E+00 0.  1.
         11    1    4    4    0    0 -0.60777195621E+02  0.18403781891E+03 -0.61649808677E+02  0.20338260793E+03  0.00000000000E+00 0. -1.
</event>
<event>
 8    1  0.6689467E-009  0.1122364E+03  0.7561462E-02  0.1256484E+00
         -1   -1    0    0    0  501 -0.00000000000E+00  0.00000000000E+00  0.42156584355E+03  0.42156584355E+03  0.00000000000E+00 0.  1.
          1   -1    0    0  501    0  0.00000000000E+00 -0.00000000000E+00 -0.37366810438E+02  0.37366810438E+02  0.00000000000E+00 0. -1.
         25    2    1    2    0    0  0.56704668725E+02  0.18328472510E+02  0.18314231830E+03  0.22965163201E+03  0.12508961176E+03 0.  0.
         23    2    1    2    0    0 -0.56704668725E+02 -0.18328472510E+02  0.20105671481E+03  0.22928102198E+03  0.92707238726E+02 0.  0.
          5    1    3    3  502    0  0.53875324687E+02  0.68694267735E+02  0.10601594158E+03  0.13739834532E+03  0.41800000000E+01 0. -1.
         -5    1    3    3    0  502  0.28293440383E+01 -0.50365795225E+02  0.77126376728E+02  0.92253286681E+02  0.41800000000E+01 0. -1.
        -11    1    4    4    0    0 -0.32664199597E+02  0.22085498080E+02  0.16602427564E+03  0.17064225521E+03  0.00000000000E+00 0.  1.
         11    1    4    4    0    0 -0.24040469128E+02 -0.40413970590E+02  0.35032439169E+02  0.58638766775E+02  0.00000000000E+00 0. -1.
</event>
<event>
 8    1  0.6689467E-009  0.8775614E+02  0.7561462E-02  0.1308378E+00
          2   -1    0    0  501    0  0.00000000000E+00  0.00000000000E+00  0.15587205501E+03  0.15587205501E+03  0.00000000000E+00 0. -1.
         -2   -1    0    0    0  501 -0.00000000000E+00 -0.00000000000E+00 -0.11579691350E+03  0.11579691350E+03  0.00000000000E+00 0.  1.
         25    2    1    2    0    0  0.47065463087E+02 -0.38106636626E+02 -0.34683140938E+02  0.14322763067E+03  0.12507581841E+03 0.  0.
         23    2    1    2    0    0 -0.47065463087E+02  0.38106636626E+02  0.74758282448E+02  0.12844133784E+03  0.85094670223E+02 0.  0.
          5    1    3    3  502    0  0.34166650640E+01  0.84025947860E+01  0.42129838641E+02  0.43297493036E+02  0.41800000000E+01 0.  1.
         -5    1    3    3    0  502  0.43648798023E+02 -0.46509231412E+02 -0.76812979579E+02  0.99930137632E+02  0.41800000000E+01 0.  1.
        -11    1    4    4    0    0 -0.67873079463E+02  0.13190846664E+02  0.36226849048E+02  0.78058554582E+02  0.00000000000E+00 0.  1.
         11    1    4    4    0    0  0.20807616377E+02  0.24915789962E+02  0.38531433400E+02  0.50382783255E+02  0.00000000000E+00 0. -1.
</event>
<event>
 8    1  0.6689467E-009  0.1240961E+03  0.7561462E-02  0.1236489E+00
         -2   -1    0    0    0  501 -0.00000000000E+00  0.00000000000E+00  0.26480921933E+03  0.26480921933E+03  0.00000000000E+00 0.  1.
          2   -1    0    0  501    0  0.00000000000E+00 -0.00000000000E+00 -0.10239392347E+03  0.10239392347E+03  0.00000000000E+00 0. -1.
         25    2    1    2    0    0 -0.54656252652E+02  0.75529023897E+02 -0.50495424974E+01  0.15609453239E+03  0.12509222901E+03 0.  0.
         23    2    1    2    0    0  0.54656252652E+02 -0.75529023897E+02  0.16746483836E+03  0.21110861042E+03  0.88489738965E+02 0.  0.
          5    1    3    3  502    0 -0.55250290153E+02 -0.29574082455E+01  0.37254294855E+02  0.66833342806E+02  0.41800000000E+01 0.  1.
         -5    1    3    3    0  502  0.59403750113E+00  0.78486432142E+02 -0.42303837353E+02  0.89261189583E+02  0.41800000000E+01 0.  1.
        -11    1    4    4    0    0  0.69362988698E+02 -0.53410804480E+02  0.16177728860E+03  0.18394518027E+03  0.00000000000E+00 0.  1.
         11    1    4    4    0    0 -0.14706736046E+02 -0.22118219416E+02  0.56875497535E+01  0.27163430149E+02  0.00000000000E+00 0. -1.
</event>
<event>
 8    1  0.6689467E-009  0.9241028E+02  0.7561462E-02  0.1297118E+00
         -2   -1    0    0    0  501 -0.00000000000E+00  0.00000000000E+00  0.57150599275E+03  0.57150599275E+03  0.00000000000E+00 0.  1.
          2   -1    0    0  501    0  0.00000000000E+00 -0.00000000000E+00 -0.28447244174E+02  0.28447244174E+02  0.00000000000E+00 0. -1.
         25    2    1    2    0    0 -0.13372021135E+02 -0.73615433516E+02  0.31783872040E+03  0.34966569754E+03  0.12508638955E+03 0.  0.
         23    2    1    2    0    0  0.13372021135E+02  0.73615433516E+02  0.22522002818E+03  0.25028753939E+03  0.79509422571E+02 0.  0.
          5    1    3    3  502    0  0.41132038266E+01 -0.44128786449E+01  0.25311732329E+03  0.25322370287E+03  0.41800000000E+01 0. -1.
         -5    1    3    3    0  502 -0.17485224962E+02 -0.69202554871E+02  0.64721397102E+02  0.96441994668E+02  0.41800000000E+01 0. -1.
        -11    1    4    4    0    0 -0.28397829651E+02  0.51272743714E+02  0.93967053059E+02  0.11074808367E+03  0.00000000000E+00 0. -1.
         11    1    4    4    0    0  0.41769850786E+02  0.22342689802E+02  0.13125297512E+03  0.13953945571E+03  0.00000000000E+00 0.  1.
</event>
<event>
 8    1  0.6689467E-009  0.1149137E+03  0.7561462E-02  0.1251732E+00
         -2   -1    0    0    0  501 -0.00000000000E+00  0.00000000000E+00  0.31691166933E+02  0.31691166933E+02  0.00000000000E+00 0.  1.
          2   -1    0    0  501    0  0.00000000000E+00 -0.00000000000E+00 -0.60493025788E+03  0.60493025788E+03  0.00000000000E+00 0. -1.
         25    2    1    2    0    0 -0.13123114886E+02 -0.66127562755E+02 -0.23895312728E+03  0.27801268650E+03  0.12508951242E+03 0.  0.
         23    2    1    2    0    0  0.13123114886E+02  0.66127562755E+02 -0.33428596367E+03  0.35860873831E+03  0.11094165579E+03 0.  0.
          5    1    3    3  502    0 -0.31364162506E+02 -0.87498474509E+02 -0.23019317328E+03  0.24828625245E+03  0.41800000000E+01 0.  1.
         -5    1    3    3    0  502  0.18241047620E+02  0.21370911754E+02 -0.87599540079E+01  0.29726434056E+02  0.41800000000E+01 0.  1.
        -11    1    4    4    0    0 -0.33662206250E+02  0.47049545638E+02 -0.76465878573E+02  0.95884484982E+02  0.00000000000E+00 0. -1.
         11    1    4    4    0    0  0.46785321136E+02  0.19078017117E+02 -0.25782008509E+03  0.26272425333E+03  0.00000000000E+00 0.  1.
</event>
<event>
 8    1  0.6689467E-009  0.9839860E+02  0.7561462E-02  0.1283700E+00
         -2   -1    0    0    0  501 -0.00000000000E+00  0.00000000000E+00  0.20720670388E+02  0.20720670388E+02  0.00000000000E+00 0.  1.
          2   -1    0    0  501    0  0.00000000000E+00 -0.00000000000E+00 -0.56153624145E+03  0.56153624145E+03  0.00000000000E+00 0. -1.
         25    2    1    2    0    0 -0.37885880007E+01 -0.80228279787E+01 -0.31355364356E+03  0.33770144051E+03  0.12509059264E+03 0.  0.
         23    2    1    2    0    0  0.37885880007E+01  0.80228279787E+01 -0.22726192751E+03  0.24455547133E+03  0.89892578639E+02 0.  0.
          5    1    3    3  502    0  0.51305127580E+02  0.36173890418E+01 -0.65937346995E+02  0.83728774912E+02  0.41800000000E+01 0. -1.
         -5    1    3    3    0  502 -0.55093715581E+02 -0.11640217020E+02 -0.24761629656E+03  0.25397266560E+03  0.41800000000E+01 0. -1.
        -11    1    4    4    0    0  0.19415313622E+02  0.44769885285E+02 -0.14738355246E+03  0.15525208071E+03  0.00000000000E+00 0. -1.
         11    1    4    4    0    0 -0.15626725621E+02 -0.36747057306E+02 -0.79878375050E+02  0.89303390613E+02  0.00000000000E+00 0.  1.
</event>
<event>
 8    1  0.6689467E-009  0.1514589E+03  0.7561462E-02  0.1198692E+00
          1   -1    0    0  501    0  0.00000000000E+00  0.00000000000E+00  0.24412305611E+03  0.24412305611E+03  0.00000000000E+00 0. -1.
         -1   -1    0    0    0  501 -0.00000000000E+00 -0.00000000000E+00 -0.12322362367E+03  0.12322362367E+03  0.00000000000E+00 0.  1.
         25    2    1    2    0    0 -0.56055459596E+02 -0.12364373590E+03  0.58070782416E+02  0.19351792938E+03  0.12508791006E+03 0.  0.
         23    2    1    2    0    0  0.56055459596E+02  0.12364373590E+03  0.62828650021E+02  0.17382875041E+03  0.88538168196E+02 0.  0.
          5    1    3    3  502    0 -0.10622216364E+02  0.49164759703E+01  0.55711784353E+02  0.57081332608E+02  0.41800000000E+01 0. -1.
         -5    1    3    3    0  502 -0.45433243232E+02 -0.12856021187E+03  0.23589980623E+01  0.13643659677E+03  0.41800000000E+01 0. -1.
        -11    1    4    4    0    0 -0.17641387142E+02  0.17464759579E+02 -0.84569407207E+01  0.26225106555E+02  0.00000000000E+00 0.  1.
         11    1    4    4    0    0  0.73696846738E+02  0.10617897632E+03  0.71285590742E+02  0.14760364385E+03  0.00000000000E+00 0. -1.
</event>
<event>
 8    1  0.6689467E-009  0.1028432E+03  0.7561462E-02  0.1274428E+00
         -2   -1    0    0    0  501 -0.00000000000E+00  0.00000000000E+00  0.17449860321E+03  0.17449860321E+03  0.00000000000E+00 0.  1.
          2   -1    0    0  501    0  0.00000000000E+00 -0.00000000000E+00 -0.81519085018E+02  0.81519085018E+02  0.00000000000E+00 0. -1.
         25    2    1    2    0    0  0.29115689835E-01 -0.19636364620E+02  0.59615643956E+01  0.12677243030E+03  0.12510044433E+03 0.  0.
         23    2    1    2    0    0 -0.29115689835E-01  0.19636364620E+02  0.87017953797E+02  0.12924525793E+03  0.93523391459E+02 0.  0.
          5    1    3    3  502    0  0.11071519447E+02 -0.71945603900E+02  0.58548116517E+01  0.73147109874E+02  0.41800000000E+01 0.  1.
         -5    1    3    3    0  502 -0.11042403758E+02  0.52309239281E+02  0.10675274383E+00  0.53625320428E+02  0.41800000000E+01 0.  1.
        -11    1    4    4    0    0 -0.55628384193E+01 -0.29339070392E+02  0.71640540790E+02  0.77615032741E+02  0.00000000000E+00 0.  1.
         11    1    4    4    0    0  0.55337227295E+01  0.48975435011E+02  0.15377413007E+02  0.51630225184E+02  0.00000000000E+00 0. -1.
</event>
<event>
 8    1  0.6689467E-009  0.9465136E+02  0.7561462E-02  0.1291963E+00
          2   -1    0    0  501    0  0.00000000000E+00  0.00000000000E+00  0.33484466552E+02  0.33484466552E+02  0.00000000000E+00 0. -1.
         -2   -1    0    0    0  501 -0.00000000000E+00 -0.00000000000E+00 -0.45855116834E+03  0.45855116834E+03  0.00000000000E+00 0.  1.
         25    2    1    2    0    0 -0.12482885432E+02  0.60164019827E+02 -0.24409012618E+03  0.28107041358E+03  0.12508019820E+03 0.  0.
         23    2    1    2    0    0  0.12482885432E+02 -0.60164019827E+02 -0.18097657561E+03  0.21096522131E+03  0.89321173151E+02 0.  0.
          5    1    3    3  502    0  0.30026383191E+02  0.69261060011E+02 -0.75240362305E+02  0.10666425194E+03  0.41800000000E+01 0.  1.
         -5    1    3    3    0  502 -0.42509268623E+02 -0.90970401841E+01 -0.16884976388E+03  0.17440616165E+03  0.41800000000E+01 0.  1.
        -11    1    4    4    0    0  0.23925429309E+02 -0.35170756517E+02 -0.18853055177E+02  0.46527905295E+02  0.00000000000E+00 0. -1.
         11    1    4    4    0    0 -0.11442543878E+02 -0.24993263310E+02 -0.16212352043E+03  0.16443731602E+03  0.00000000000E+00 0.  1.
</event>
<event>
 8    1  0.6689467E-009  0.1205589E+03  0.7561462E-02  0.1242178E+00
          3   -1    0    0  501    0  0.00000000000E+00  0.00000000000E+00  0.35248267552E+02  0.35248267552E+02  0.00000000000E+00 0. -1.
         -3   -1    0    0    0  501 -0.00000000000E+00 -0.00000000000E+00 -0.48098780653E+03  0.48098780653E+03  0.00000000000E+00 0.  1.
         25    2    1    2    0    0 -0.73137700982E+01  0.57627176282E+02 -0.25158280082E+03  0.28690734487E+03  0.12509011230E+03 0.  0.
         23    2    1    2    0    0  0.73137700982E+01 -0.57627176282E+02 -0.19415673816E+03  0.22932872921E+03  0.10733333308E+03 0.  0.
          5    1    3    3  502    0 -0.48860102689E+02  0.66280129877E+02 -0.21656444568E+03  0.23172828223E+03  0.41800000000E+01 0.  1.
         -5    1    3    3    0  502  0.41546332590E+02 -0.86529535950E+01 -0.35018355134E+02  0.55179062641E+02  0.41800000000E+01 0.  1.
        -11    1    4    4    0    0 -0.46567791381E+02 -0.30828539907E+02 -0.12934579176E+03  0.14088751511E+03  0.00000000000E+00 0.  1.
         11    1    4    4    0    0  0.53881561479E+02 -0.26798636374E+02 -0.64810946401E+02  0.88441214105E+02  0.00000000000E+00 0. -1.
</event>
<event>
 8    1  0.6689467E-009  0.1655871E+03  0.7561462E-02  0.1182530E+00
         -1   -1    0    0    0  501 -0.00000000000E+00  0.00000000000E+00  0.50364144803E+03  0.50364144803E+03  0.00000000000E+00 0.  1.
          1   -1    0    0  501    0  0.00000000000E+00 -0.00000000000E+00 -0.10298048146E+03  0.10298048146E+03  0.00000000000E+00 0. -1.
         25    2    1    2    0    0 -0.63713011581E+02  0.11458888149E+03  0.40889890272E+03  0.44725387087E+03  0.12509097791E+03 0.  0.
         23    2    1    2    0    0  0.63713011581E+02 -0.11458888149E+03 -0.82379361520E+01  0.15936805862E+03  0.90223915397E+02 0.  0.
          5    1    3    3  502    0 -0.70344413944E+02  0.10114619524E+02  0.22019369097E+03  0.23141602374E+03  0.41800000000E+01 0.  1.
         -5    1    3    3    0  502  0.66314023625E+01  0.10447426196E+03  0.18870521175E+03  0.21583784713E+03  0.41800000000E+01 0.  1.
        -11    1    4    4    0    0  0.46205183974E+02 -0.76272699917E+01 -0.18813696951E+02  0.50468301602E+02  0.00000000000E+00 0. -1.
         11    1    4    4    0    0  0.17507827608E+02 -0.10696161150E+03  0.10575760799E+02  0.10889975701E+03  0.00000000000E+00 0.  1.
</event>
<event>
 8    1  0.6689467E-009  0.1101159E+03  0.7561462E-02  0.1260355E+00
         -1   -1    0    0    0  501 -0.00000000000E+00  0.00000000000E+00  0.14299436122E+02  0.14299436122E+02  0.00000000000E+00 0.  1.
          1   -1    0    0  501    0  0.00000000000E+00 -0.00000000000E+00 -0.87924825705E+03  0.87924825705E+03  0.00000000000E+00 0. -1.
         25    2    1    2    0    0  0.21951749288E+02  0.14567607336E+02 -0.50504801158E+03  0.52097574166E+03  0.12509250547E+03 0.  0.
         23    2    1    2    0    0 -0.21951749288E+02 -0.14567607336E+02 -0.35990080935E+03  0.37257195151E+03  0.92666995194E+02 0.  0.
          5    1    3    3  502    0  0.40054739847E+02 -0.46542823745E+02 -0.19761339483E+03  0.20697618907E+03  0.41800000000E+01 0.  1.
         -5    1    3    3    0  502 -0.18102990558E+02  0.61110431081E+02 -0.30743461675E+03  0.31399955260E+03  0.41800000000E+01 0.  1.
        -11    1    4    4    0    0  0.17773679061E+02 -0.42621839111E+02 -0.20846801683E+03  0.21352151853E+03  0.00000000000E+00 0. -1.
         11    1    4    4    0    0 -0.39725428349E+02  0.28054231775E+02 -0.15143279253E+03  0.15905043298E+03  0.00000000000E+00 0.  1.
</event>
<event>
 8    1  0.6689467E-009  0.1062535E+03  0.7561462E-02  0.1267669E+00
          2   -1    0    0  501    0  0.00000000000E+00  0.00000000000E+00  0.12799545376E+04  0.12799545376E+04  0.00000000000E+00 0. -1.
         -2   -1    0    0    0  501 -0.00000000000E+00 -0.00000000000E+00 -0.18505883922E+02  0.18505883922E+02  0.00000000000E+00 0.  1.
         25    2    1    2    0    0  0.86372494976E+02  0.74328736072E+01  0.98077997162E+03  0.99251795862E+03  0.12508832858E+03 0.  0.
         23    2    1    2    0    0 -0.86372494976E+02 -0.74328736072E+01  0.28066868205E+03  0.30594246289E+03  0.85501029360E+02 0.  0.
          5    1    3    3  502    0  0.26220936643E+02 -0.11828570119E+02  0.80775929384E+03  0.80828213006E+03  0.41800000000E+01 0.  1.
         -5    1    3    3    0  502  0.60151558333E+02  0.19261443726E+02  0.17302067778E+03  0.18423582856E+03  0.41800000000E+01 0.  1.
        -11    1    4    4    0    0 -0.79985909462E+02  0.27536556763E+02  0.21887553739E+03  0.23465401880E+03  0.00000000000E+00 0. -1.
         11    1    4    4    0    0 -0.63865855138E+01 -0.34969430370E+02  0.61793144652E+02  0.71288444091E+02  0.00000000000E+00 0.  1.
</event>
<event>
 8    1  0.6689467E-009  0.1142457E+03  0.7561462E-02  0.1252904E+00
         -1   -1    0    0    0  501 -0.00000000000E+00  0.00000000000E+00  0.56725763150E+02  0.56725763150E+02  0.00000000000E+00 0.  1.
          1   -1    0    0  501    0  0.00000000000E+00 -0.00000000000E+00 -0.30134367877E+03  0.30134367877E+03  0.00000000000E+00 0. -1.
         25    2    1    2    0    0  0.62469388463E+02  0.34584158564E+02 -0.11791886092E+03  0.18614700385E+03  0.12508941107E+03 0.  0.
         23    2    1    2    0    0 -0.62469388463E+02 -0.34584158564E+02 -0.12669905470E+03  0.17192243807E+03  0.91685253623E+02 0.  0.
          5    1    3    3  502    0 -0.11350869102E+02 -0.37497505651E+02 -0.44562871470E+02  0.59482998184E+02  0.41800000000E+01 0.  1.
         -5    1    3    3    0  502  0.73820257565E+02  0.72081664215E+02 -0.73355989449E+02  0.12666400566E+03  0.41800000000E+01 0.  1.
        -11    1    4    4    0    0 -0.75404362325E+01 -0.29748743956E+02  0.31495655176E+01  0.30850700291E+02  0.00000000000E+00 0.  1.
         11    1    4    4    0    0 -0.54928952230E+02 -0.48354146082E+01 -0.12984862022E+03  0.14107173778E+03  0.00000000000E+00 0. -1.
</event>
<event>
 8    1  0.6689467E-009  0.1104175E+03  0.7561462E-02  0.1259799E+00
          1   -1    0    0  501    0  0.00000000000E+00  0.00000000000E+00  0.48263914237E+03  0.48263914237E+03  0.00000000000E+00 0. -1.
         -1   -1    0    0    0  501 -0.00000000000E+00 -0.00000000000E+00 -0.40201868019E+02  0.40201868019E+02  0.00000000000E+00 0.  1.
         25    2    1    2    0    0  0.44130146862E+02  0.51142565654E+02  0.34648788540E+03  0.37451995043E+03  0.12509319187E+03 0.  0.
         23    2    1    2    0    0 -0.44130146862E+02 -0.51142565654E+02  0.95949388949E+02  0.14832105996E+03  0.90718353741E+02 0.  0.
          5    1    3    3  502    0  0.62284167391E+02  0.44155029521E+01  0.29852991641E+03  0.30501868396E+03  0.41800000000E+01 0.  1.
         -5    1    3    3    0  502 -0.18154020529E+02  0.46727062702E+02  0.47957968993E+02  0.69501266464E+02  0.41800000000E+01 0.  1.
        -11    1    4    4    0    0  0.18567441817E+02  0.93847328490E+01  0.31920313335E+01  0.21047854292E+02  0.00000000000E+00 0.  1.
         11    1    4    4    0    0 -0.62697588679E+02 -0.60527298503E+02  0.92757357616E+02  0.12727320567E+03  0.00000000000E+00 0. -1.
</event>
<event>
 8    1  0.6689467E-009  0.1451926E+03  0.7561462E-02  0.1206508E+00
         -2   -1    0    0    0  501 -0.00000000000E+00  0.00000000000E+00  0.34952902889E+02  0.34952902889E+02  0.00000000000E+00 0. -1.
          2   -1    0    0  501    0  0.00000000000E+00 -0.00000000000E+00 -0.89455347450E+03  0.89455347450E+03  0.00000000000E+00 0.  1.
         25    2    1    2    0    0  0.10411381635E+03 -0.33417837701E+02 -0.22817581677E+03  0.28225585376E+03  0.12509086694E+03 0.  0.
         23    2    1    2    0    0 -0.10411381635E+03  0.33417837701E+02 -0.63142475484E+03  0.64725052362E+03  0.90992201173E+02 0.  0.
          5    1    3    3  502    0  0.42596679199E+02  0.37499644109E+02 -0.14857552252E+03  0.15910015299E+03  0.41800000000E+01 0. -1.
         -5    1    3    3    0  502  0.61517137154E+02 -0.70917481810E+02 -0.79600294246E+02  0.12315570078E+03  0.41800000000E+01 0. -1.
        -11    1    4    4    0    0  0.15552889741E+02  0.13163333279E+01 -0.38975905938E+02  0.41985073019E+02  0.00000000000E+00 0. -1.
         11    1    4    4    0    0 -0.11966670609E+03  0.32101504373E+02 -0.59244884890E+03  0.60526545060E+03  0.00000000000E+00 0.  1.
</event>
<event>
 8    1  0.6689467E-009  0.2280972E+03  0.7561462E-02  0.1127986E+00
         -2   -1    0    0    0  501 -0.00000000000E+00  0.00000000000E+00  0.69426845459E+02  0.69426845459E+02  0.00000000000E+00 0.  1.
          2   -1    0    0  501    0  0.00000000000E+00 -0.00000000000E+00 -0.10778533002E+04  0.10778533002E+04  0.00000000000E+00 0. -1.
         25    2    1    2    0    0  0.49539006896E+02 -0.21757361225E+03 -0.27705569888E+03  0.37709643854E+03  0.12509785662E+03 0.  0.
         23    2    1    2    0    0 -0.49539006896E+02  0.21757361225E+03 -0.73137075589E+03  0.77018370714E+03  0.92126924509E+02 0.  0.
          5    1    3    3  502    0  0.31681477558E+02 -0.43388779025E+02 -0.57850497051E+01  0.54196322437E+02  0.41800000000E+01 0.  1.
         -5    1    3    3    0  502  0.17857529338E+02 -0.17418483323E+03 -0.27127064917E+03  0.32290011611E+03  0.41800000000E+01 0.  1.
        -11    1    4    4    0    0 -0.13361884465E+02  0.14927374721E+03 -0.59346404242E+03  0.61209538571E+03  0.00000000000E+00 0.  1.
         11    1    4    4    0    0 -0.36177122431E+02  0.68299865042E+02 -0.13790671347E+03  0.15808832143E+03  0.00000000000E+00 0. -1.
</event>
<event>
 8    1  0.6689467E-009  0.9062130E+02  0.7561462E-02  0.1301354E+00
          2   -1    0    0  501    0  0.00000000000E+00  0.00000000000E+00  0.21644646392E+03  0.21644646392E+03  0.00000000000E+00 0. -1.
         -2   -1    0    0    0  501 -0.00000000000E+00 -0.00000000000E+00 -0.84721452510E+02  0.84721452510E+02  0.00000000000E+00 0.  1.
         25    2    1    2    0    0 -0.52474870205E+02  0.42681855708E+02  0.12250749471E+03  0.18769942125E+03  0.12509050192E+03 0.  0.
         23    2    1    2    0    0  0.52474870205E+02 -0.42681855708E+02  0.92175167066E+01  0.11346849518E+03  0.90635445464E+02 0.  0.
          5    1    3    3  502    0  0.33954267870E+01 -0.46646786891E+01  0.11358222874E+03  0.11380546225E+03  0.41800000000E+01 0.  1.
         -5    1    3    3    0  502 -0.55870296992E+02  0.47346534397E+02  0.89252659628E+01  0.73893959008E+02  0.41800000000E+01 0.  1.
        -11    1    4    4    0    0  0.18639186400E+02  0.21350963417E+02  0.26729822859E+02  0.38958520744E+02  0.00000000000E+00 0. -1.
         11    1    4    4    0    0  0.33835683805E+02 -0.64032819125E+02 -0.17512306152E+02  0.74509974436E+02  0.00000000000E+00 0.  1.
</event>
<event>
 8    1  0.6689467E-009  0.9452406E+02  0.7561462E-02  0.1292252E+00
          1   -1    0    0  501    0  0.00000000000E+00  0.00000000000E+00  0.14013036620E+04  0.14013036620E+04  0.00000000000E+00 0. -1.
         -1   -1    0    0    0  501 -0.00000000000E+00 -0.00000000000E+00 -0.89722138409E+01  0.89722138409E+01  0.00000000000E+00 0.  1.
         25    2    1    2    0    0  0.51447790110E+01 -0.38955505881E+01  0.96669620573E+03  0.97477715675E+03  0.12508919654E+03 0.  0.
         23    2    1    2    0    0 -0.51447790110E+01  0.38955505881E+01  0.42563524238E+03  0.43549871904E+03  0.91935470096E+02 0.  0.
          5    1    3    3  502    0  0.47554469805E+02  0.15960860894E+02  0.18673013776E+03  0.19339543280E+03  0.41800000000E+01 0. -1.
         -5    1    3    3    0  502 -0.42409690794E+02 -0.19856411482E+02  0.77996606797E+03  0.78138172396E+03  0.41800000000E+01 0. -1.
        -11    1    4    4    0    0  0.23388812049E+02  0.39601244437E+02  0.23527584600E+03  0.23972905289E+03  0.00000000000E+00 0.  1.
         11    1    4    4    0    0 -0.28533591060E+02 -0.35705693849E+02  0.19035939638E+03  0.19576966615E+03  0.00000000000E+00 0. -1.
</event>
<event>
 8    1  0.6689467E-009  0.9506765E+02  0.7561462E-02  0.1291024E+00
          3   -1    0    0  501    0  0.00000000000E+00  0.00000000000E+00  0.12898199177E+03  0.12898199177E+03  0.00000000000E+00 0. -1.
         -3   -1    0    0    0  501 -0.00000000000E+00 -0.00000000000E+00 -0.14946046190E+03  0.14946046190E+03  0.00000000000E+00 0.  1.
         25    2    1    2    0    0 -0.72492175741E+02 -0.32211096041E+02  0.28063371989E+02  0.15075295629E+03  0.12508489409E+03 0.  0.
         23    2    1    2    0    0  0.72492175741E+02  0.32211096041E+02 -0.48541842121E+02  0.12768949739E+03  0.87496440240E+02 0.  0.
          5    1    3    3  502    0 -0.47806382366E+02 -0.26227721316E+02  0.77595540106E+02  0.94930942293E+02  0.41800000000E+01 0. -1.
         -5    1    3    3    0  502 -0.24685793375E+02 -0.59833747245E+01 -0.49532168117E+02  0.55822013992E+02  0.41800000000E+01 0. -1.
        -11    1    4    4    0    0 -0.15862187279E+02  0.62607644235E+00  0.83726687058E+01  0.17947215334E+02  0.00000000000E+00 0. -1.
         11    1    4    4    0    0  0.88354363020E+02  0.31585019598E+02 -0.56914510827E+02  0.10974228205E+03  0.00000000000E+00 0.  1.
</event>
<event>
 8    1  0.6689467E-009  0.9003880E+02  0.7561462E-02  0.1302758E+00
         -2   -1    0    0    0  501 -0.00000000000E+00  0.00000000000E+00  0.21428798125E+03  0.21428798125E+03  0.00000000000E+00 0.  1.
          2   -1    0    0  501    0  0.00000000000E+00 -0.00000000000E+00 -0.78085068252E+02  0.78085068252E+02  0.00000000000E+00 0. -1.
         25    2    1    2    0    0 -0.71042149869E+01 -0.17677738210E+01 -0.21251976315E+01  0.12531949431E+03  0.12508742661E+03 0.  0.
         23    2    1    2    0    0  0.71042149869E+01  0.17677738210E+01  0.13832811062E+03  0.16705355518E+03  0.93373600206E+02 0.  0.
          5    1    3    3  502    0 -0.44823021097E+02  0.11108642705E+02  0.44204413421E+02  0.64062529835E+02  0.41800000000E+01 0. -1.
         -5    1    3    3    0  502  0.37718806110E+02 -0.12876416526E+02 -0.46329611052E+02  0.61256964479E+02  0.41800000000E+01 0. -1.
        -11    1    4    4    0    0  0.49853123541E+02  0.78101633988E+01  0.72615391933E+02  0.88426962657E+02  0.00000000000E+00 0. -1.
         11    1    4    4    0    0 -0.42748908555E+02 -0.60423895778E+01  0.65712718692E+02  0.78626592527E+02  0.00000000000E+00 0.  1.
</event>
<event>
 8    1  0.6689467E-009  0.1326428E+03  0.7561462E-02  0.1223586E+00
          2   -1    0    0  501    0  0.00000000000E+00  0.00000000000E+00  0.52599727887E+03  0.52599727887E+03  0.00000000000E+00 0. -1.
         -2   -1    0    0    0  501 -0.00000000000E+00 -0.00000000000E+00 -0.40623036243E+02  0.40623036243E+02  0.00000000000E+00 0.  1.
         25    2    1    2    0    0 -0.53520916697E+02 -0.81305220444E+02  0.28747890812E+03  0.32827964364E+03  0.12509346275E+03 0.  0.
         23    2    1    2    0    0  0.53520916697E+02  0.81305220444E+02  0.19789533451E+03  0.23834067147E+03  0.90380777055E+02 0.  0.
          5    1    3    3  502    0  0.30992480972E+02  0.74640796943E+01  0.34600429778E+02  0.47232494146E+02  0.41800000000E+01 0.  1.
         -5    1    3    3    0  502 -0.84513397669E+02 -0.88769300138E+02  0.25287847834E+03  0.28104714950E+03  0.41800000000E+01 0.  1.
        -11    1    4    4    0    0 -0.76074425446E+01  0.29199204360E+02  0.66297104538E+01  0.30893685084E+02  0.00000000000E+00 0.  1.
         11    1    4    4    0    0  0.61128359241E+02  0.52106016083E+02  0.19126562406E+03  0.20744698639E+03  0.00000000000E+00 0. -1.
</event>
<event>
 8    1  0.6689467E-009  0.1018970E+03  0.7561462E-02  0.1276357E+00
         -1   -1    0    0    0  501 -0.00000000000E+00  0.00000000000E+00  0.22389629313E+03  0.22389629313E+03  0.00000000000E+00 0.  1.
          1   -1    0    0  501    0  0.00000000000E+00 -0.00000000000E+00 -0.74939046606E+02  0.74939046606E+02  0.00000000000E+00 0. -1.
         25    2    1    2    0    0  0.45036847340E+01 -0.57019237546E+02  0.10875758943E+03  0.17534910995E+03  0.12509044918E+03 0.  0.
         23    2    1    2    0    0 -0.45036847340E+01  0.57019237546E+02  0.40199657096E+02  0.12348622979E+03  0.10179076525E+03 0.  0.
          5    1    3    3  502    0  0.38042626341E+02 -0.57370401666E+02  0.12110463906E+03  0.13936430823E+03  0.41800000000E+01 0. -1.
         -5    1    3    3    0  502 -0.33538941607E+02  0.35116411975E+00 -0.12347049630E+02  0.35984801722E+02  0.41800000000E+01 0. -1.
        -11    1    4    4    0    0 -0.40930700161E+02  0.11086142644E+02 -0.12967409883E+02  0.44343866470E+02  0.00000000000E+00 0.  1.
         11    1    4    4    0    0  0.36427015427E+02  0.45933094902E+02  0.53167066979E+02  0.79142363317E+02  0.00000000000E+00 0. -1.
</event>
<event>
 8    1  0.6689467E-009  0.1108219E+03  0.7561462E-02  0.1259055E+00
          1   -1    0    0  501    0  0.00000000000E+00  0.00000000000E+00  0.13899084263E+03  0.13899084263E+03  0.00000000000E+00 0. -1.
         -1   -1    0    0    0  501 -0.00000000000E+00 -0.00000000000E+00 -0.15816090268E+03  0.15816090268E+03  0.00000000000E+00 0.  1.
         25    2    1    2    0    0 -0.92683046602E+02  0.26858329518E+02  0.12133658096E+02  0.15845029771E+03  0.12509098367E+03 0.  0.
         23    2    1    2    0    0  0.92683046602E+02 -0.26858329518E+02 -0.31303718138E+02  0.13870144760E+03  0.94586742223E+02 0.  0.
          5    1    3    3  502    0 -0.94192556851E+02 -0.31690373422E+01  0.52485632884E+02  0.10795598466E+03  0.41800000000E+01 0. -1.
         -5    1    3    3    0  502  0.15095102498E+01  0.30027366861E+02 -0.40351974788E+02  0.50494313056E+02  0.41800000000E+01 0. -1.
        -11    1    4    4    0    0  0.68631009703E+02 -0.24108027310E+02 -0.64768649648E+02  0.97398102912E+02  0.00000000000E+00 0.  1.
         11    1    4    4    0    0  0.24052036899E+02 -0.27503022080E+01  0.33464931510E+02  0.41303344685E+02  0.00000000000E+00 0. -1.
</event>
<event>
 8    1  0.6689467E-009  0.1399366E+03  0.7561462E-02  0.1213414E+00
         -2   -1    0    0    0  501 -0.00000000000E+00  0.00000000000E+00  0.78289242524E+02  0.78289242524E+02  0.00000000000E+00 0.  1.
          2   -1    0    0  501    0  0.00000000000E+00 -0.00000000000E+00 -0.27402140304E+03  0.27402140304E+03  0.00000000000E+00 0. -1.
         25    2    1    2    0    0  0.83953094504E+02 -0.34899533997E+02 -0.14963905319E+03  0.21518667752E+03  0.12508940959E+03 0.  0.
         23    2    1    2    0    0 -0.83953094504E+02  0.34899533997E+02 -0.46093107332E+02  0.13712396805E+03  0.91718637802E+02 0.  0.
          5    1    3    3  502    0 -0.64794299947E+01 -0.57287196215E+02 -0.80467092665E+02  0.99076895718E+02  0.41800000000E+01 0.  1.
         -5    1    3    3    0  502  0.90432524499E+02  0.22387662217E+02 -0.69171960523E+02  0.11610978180E+03  0.41800000000E+01 0.  1.
        -11    1    4    4    0    0 -0.71204689818E+02  0.64820061771E+02 -0.30125897830E+02  0.10089260617E+03  0.00000000000E+00 0. -1.
         11    1    4    4    0    0 -0.12748404686E+02 -0.29920527774E+02 -0.15967209502E+02  0.36231361878E+02  0.00000000000E+00 0.  1.
</event>
<event>
 8    1  0.6689467E-009  0.8053625E+02  0.7561462E-02  0.1327536E+00
         -1   -1    0    0    0  501 -0.00000000000E+00  0.00000000000E+00  0.76147051486E+02  0.76147051486E+02  0.00000000000E+00 0.  1.
          1   -1    0    0  501    0  0.00000000000E+00 -0.00000000000E+00 -0.18692435095E+03  0.18692435095E+03  0.00000000000E+00 0. -1.
         25    2    1    2    0    0 -0.20246358163E+02 -0.31203436181E+02 -0.19654915126E+02  0.13197712748E+03  0.12509227410E+03 0.  0.
         23    2    1    2    0    0  0.20246358163E+02  0.31203436181E+02 -0.91122384337E+02  0.13109427496E+03  0.86595903779E+02 0.  0.
          5    1    3    3  502    0 -0.72032287154E+01 -0.46659372333E+02  0.44235283787E+02  0.64832216237E+02  0.41800000000E+01 0. -1.
         -5    1    3    3    0  502 -0.13043129448E+02  0.15455936152E+02 -0.63890198913E+02  0.67144911239E+02  0.41800000000E+01 0. -1.
        -11    1    4    4    0    0 -0.29294676945E+02 -0.74044709509E+01 -0.39882736648E+02  0.50036356481E+02  0.00000000000E+00 0.  1.
         11    1    4    4    0    0  0.49541035108E+02  0.38607907132E+02 -0.51239647689E+02  0.81057918478E+02  0.00000000000E+00 0. -1.
</event>
<event>
 8    1  0.6689467E-009  0.1704786E+03  0.7561462E-02  0.1177350E+00
          2   -1    0    0  501    0  0.00000000000E+00  0.00000000000E+00  0.72280934881E+03  0.72280934881E+03  0.00000000000E+00 0.  1.
         -2   -1    0    0    0  501 -0.00000000000E+00 -0.00000000000E+00 -0.49137810736E+02  0.49137810736E+02  0.00000000000E+00 0. -1.
         25    2    1    2    0    0  0.89640564301E+02 -0.11202725942E+03  0.24203912449E+03  0.30792191547E+03  0.12508969032E+03 0.  0.
         23    2    1    2    0    0 -0.89640564301E+02  0.11202725942E+03  0.43163241358E+03  0.46402524407E+03  0.91800594008E+02 0.  0.
          5    1    3    3  502    0  0.44649517694E+02  0.14579283832E+02  0.27044161058E+02  0.54359856463E+02  0.41800000000E+01 0.  1.
         -5    1    3    3    0  502  0.44991046607E+02 -0.12660654325E+03  0.21499496343E+03  0.25356205901E+03  0.41800000000E+01 0.  1.
        -11    1    4    4    0    0 -0.45711513641E+02  0.10548100840E+03  0.22492964294E+03  0.25260469094E+03  0.00000000000E+00 0. -1.
         11    1    4    4    0    0 -0.43929050660E+02  0.65462510133E+01  0.20670277064E+03  0.21142055313E+03  0.00000000000E+00 0.  1.
</event>
<event>
 8    1  0.6689467E-009  0.1216726E+03  0.7561462E-02  0.1240363E+00
          2   -1    0    0  501    0  0.00000000000E+00  0.00000000000E+00  0.14897015733E+03  0.14897015733E+03  0.00000000000E+00 0.  1.
         -2   -1    0    0    0  501 -0.00000000000E+00 -0.00000000000E+00 -0.13066914764E+03  0.13066914764E+03  0.00000000000E+00 0. -1.
         25    2    1    2    0    0 -0.17887472050E+00  0.73715310348E+02 -0.36339434896E+02  0.14967216257E+03  0.12508885939E+03 0.  0.
         23    2    1    2    0    0  0.17887472050E+00 -0.73715310348E+02  0.54640444590E+02  0.12996714240E+03  0.92042929892E+02 0.  0.
          5    1    3    3  502    0 -0.39921394619E+02 -0.10980228289E+02 -0.37496074513E+02  0.56015276180E+02  0.41800000000E+01 0. -1.
         -5    1    3    3    0  502  0.39742519899E+02  0.84695538637E+02  0.11566396165E+01  0.93656886389E+02  0.41800000000E+01 0. -1.
        -11    1    4    4    0    0  0.39180604379E+02 -0.28994024403E+02 -0.81498163310E+00  0.48748716964E+02  0.00000000000E+00 0. -1.
         11    1    4    4    0    0 -0.39001729658E+02 -0.44721285945E+02  0.55455426223E+02  0.81218425437E+02  0.00000000000E+00 0.  1.
</event>
<event>
 8    1  0.6689467E-009  0.1296041E+03  0.7561462E-02  0.1228044E+00
          1   -1    0    0  501    0  0.00000000000E+00  0.00000000000E+00  0.96761623496E+02  0.96761623496E+02  0.00000000000E+00 0. -1.
         -1   -1    0    0    0  501 -0.00000000000E+00 -0.00000000000E+00 -0.36793449822E+03  0.36793449822E+03  0.00000000000E+00 0.  1.
         25    2    1    2    0    0 -0.10796259887E+03  0.25274873563E+02 -0.13443514737E+02  0.16769883045E+03  0.12508967847E+03 0.  0.
         23    2    1    2    0    0  0.10796259887E+03 -0.25274873563E+02 -0.25772935999E+03  0.29699729126E+03  0.97407525532E+02 0.  0.
          5    1    3    3  502    0 -0.25390480002E+02  0.99583319390E+01 -0.63924133065E+02  0.69624794705E+02  0.41800000000E+01 0. -1.
         -5    1    3    3    0  502 -0.82572118865E+02  0.15316541624E+02  0.50480618328E+02  0.98074035748E+02  0.41800000000E+01 0. -1.
        -11    1    4    4    0    0  0.64805521544E+02 -0.62873934915E+02 -0.15362580463E+03  0.17819588986E+03  0.00000000000E+00 0. -1.
         11    1    4    4    0    0  0.43157077323E+02  0.37599061352E+02 -0.10410355536E+03  0.11880140140E+03  0.00000000000E+00 0.  1.
</event>
<event>
 8    1  0.6689467E-009  0.4743554E+03  0.7561462E-02  0.1020698E+00
          1   -1    0    0  501    0  0.00000000000E+00  0.00000000000E+00  0.96180058898E+03  0.96180058898E+03  0.00000000000E+00 0. -1.
         -1   -1    0    0    0  501 -0.00000000000E+00 -0.00000000000E+00 -0.27214934954E+03  0.27214934954E+03  0.00000000000E+00 0.  1.
         25    2    1    2    0    0 -0.36650038566E+03 -0.28754583944E+03  0.12844338333E+03  0.49915003022E+03  0.12509159637E+03 0.  0.
         23    2    1    2    0    0  0.36650038566E+03  0.28754583944E+03  0.56120785611E+03  0.73479990829E+03  0.89283285073E+02 0.  0.
          5    1    3    3  502    0 -0.33448671699E+03 -0.20224707072E+03  0.97975489306E+02  0.40299120383E+03  0.41800000000E+01 0. -1.
         -5    1    3    3    0  502 -0.32013668667E+02 -0.85298768725E+02  0.30467894024E+02  0.96158826396E+02  0.41800000000E+01 0. -1.
        -11    1    4    4    0    0  0.30707075525E+03  0.22784794019E+03  0.50542599772E+03  0.63376854746E+03  0.00000000000E+00 0. -1.
         11    1    4    4    0    0  0.59429630403E+02  0.59697899252E+02  0.55781858392E+02  0.10103136083E+03  0.00000000000E+00 0.  1.
</event>
<event>
 8    1  0.6689467E-009  0.1075900E+03  0.7561462E-02  0.1265099E+00
          1   -1    0    0  501    0  0.00000000000E+00  0.00000000000E+00  0.10475312034E+03  0.10475312034E+03  0.00000000000E+00 0. -1.
         -1   -1    0    0    0  501 -0.00000000000E+00 -0.00000000000E+00 -0.11948410054E+03  0.11948410054E+03  0.00000000000E+00 0.  1.
         25    2    1    2    0    0  0.28216810834E-01 -0.19755333019E+02  0.23578665437E+00  0.12664194404E+03  0.12509137627E+03 0.  0.
         23    2    1    2    0    0 -0.28216810834E-01  0.19755333019E+02 -0.14966766854E+02  0.97595276828E+02  0.94395762459E+02 0.  0.
          5    1    3    3  502    0  0.19248854656E+02 -0.66063540398E+02  0.21218778629E+02  0.72129180932E+02  0.41800000000E+01 0. -1.
         -5    1    3    3    0  502 -0.19220637846E+02  0.46308207378E+02 -0.20982991975E+02  0.54512763111E+02  0.41800000000E+01 0. -1.
        -11    1    4    4    0    0 -0.28086908075E+02  0.48319704848E+02 -0.13654709926E+02  0.57533636987E+02  0.00000000000E+00 0.  1.
         11    1    4    4    0    0  0.28058691264E+02 -0.28564371828E+02 -0.13120569274E+01  0.40061639841E+02  0.00000000000E+00 0. -1.
</event>
<event>
 8    1  0.6689467E-009  0.1128409E+03  0.7561462E-02  0.1255398E+00
          1   -1    0    0  501    0  0.00000000000E+00  0.00000000000E+00  0.12331117705E+03  0.12331117705E+03  0.00000000000E+00 0. -1.
         -1   -1    0    0    0  501 -0.00000000000E+00 -0.00000000000E+00 -0.11364677591E+03  0.11364677591E+03  0.00000000000E+00 0.  1.
         25    2    1    2    0    0 -0.42674641986E+02 -0.52423600003E+01 -0.15183526342E+02  0.13313814271E+03  0.12508644277E+03 0.  0.
         23    2    1    2    0    0  0.42674641986E+02  0.52423600003E+01  0.24847927490E+02  0.10381981025E+03  0.91173055739E+02 0.  0.
          5    1    3    3  502    0  0.41029568810E+02 -0.20066550188E+02  0.35140032589E+01  0.45999049687E+02  0.41800000000E+01 0.  1.
         -5    1    3    3    0  502 -0.83704210797E+02  0.14824190187E+02 -0.18697529601E+02  0.87139093024E+02  0.41800000000E+01 0.  1.
        -11    1    4    4    0    0  0.58700235711E+02  0.29451980962E+02  0.33227369965E+02  0.73601596246E+02  0.00000000000E+00 0. -1.
         11    1    4    4    0    0 -0.16025593725E+02 -0.24209620962E+02 -0.83794424756E+01  0.30218214004E+02  0.00000000000E+00 0.  1.
</event>
<event>
 8    1  0.6689467E-009  0.1391590E+03  0.7561462E-02  0.1214465E+00
         -1   -1    0    0    0  501 -0.00000000000E+00  0.00000000000E+00  0.79553899904E+02  0.79553899904E+02  0.00000000000E+00 0.  1.
          1   -1    0    0  501    0  0.00000000000E+00 -0.00000000000E+00 -0.33858520041E+03  0.33858520041E+03  0.00000000000E+00 0. -1.
         25    2    1    2    0    0 -0.85428811570E+02  0.43964396828E+02 -0.22690213182E+03  0.27633765040E+03  0.12508784740E+03 0.  0.
         23    2    1    2    0    0  0.85428811570E+02 -0.43964396828E+02 -0.32129168691E+02  0.14180144992E+03  0.99219038918E+02 0.  0.
          5    1    3    3  502    0 -0.45050774393E+02 -0.34245629779E+02 -0.39158310009E+02  0.68943317842E+02  0.41800000000E+01 0. -1.
         -5    1    3    3    0  502 -0.40378037178E+02  0.78210026607E+02 -0.18774382181E+03  0.20739433255E+03  0.41800000000E+01 0. -1.
        -11    1    4    4    0    0  0.88065064517E+02  0.13409852736E+01 -0.38223751241E+02  0.96012025230E+02  0.00000000000E+00 0. -1.
         11    1    4    4    0    0 -0.26362529465E+01 -0.45305382102E+02  0.60945825498E+01  0.45789424690E+02  0.00000000000E+00 0.  1.
</event>
<event>
 8    1  0.6689467E-009  0.1688012E+03  0.7561462E-02  0.1179104E+00
         -2   -1    0    0    0  501 -0.00000000000E+00  0.00000000000E+00  0.16582702290E+03  0.16582702290E+03  0.00000000000E+00 0.  1.
          2   -1    0    0  501    0  0.00000000000E+00 -0.00000000000E+00 -0.21316282012E+03  0.21316282012E+03  0.00000000000E+00 0. -1.
         25    2    1    2    0    0 -0.13254476602E+03 -0.76034999374E+02 -0.14370353490E+02  0.19799814409E+03  0.12508925563E+03 0.  0.
         23    2    1    2    0    0  0.13254476602E+03  0.76034999374E+02 -0.32965443733E+02  0.18099169892E+03  0.91224111223E+02 0.  0.
          5    1    3    3  502    0 -0.48625305931E+02 -0.56020959585E+02 -0.64276208738E+02  0.98242921879E+02  0.41800000000E+01 0. -1.
         -5    1    3    3    0  502 -0.83919460094E+02 -0.20014039789E+02  0.49905855248E+02  0.99755222215E+02  0.41800000000E+01 0. -1.
        -11    1    4    4    0    0  0.80111163397E+02  0.92122948706E+02 -0.13653443276E+02  0.12284483177E+03  0.00000000000E+00 0.  1.
         11    1    4    4    0    0  0.52433602627E+02 -0.16087949332E+02 -0.19312000457E+02  0.58146867154E+02  0.00000000000E+00 0. -1.
</event>
<event>
 8    1  0.6689467E-009  0.2387029E+03  0.7561462E-02  0.1120660E+00
         -2   -1    0    0    0  501 -0.00000000000E+00  0.00000000000E+00  0.19017628021E+03  0.19017628021E+03  0.00000000000E+00 0.  1.
          2   -1    0    0  501    0  0.00000000000E+00 -0.00000000000E+00 -0.75045435572E+03  0.75045435572E+03  0.00000000000E+00 0. -1.
         25    2    1    2    0    0  0.19381205040E+03  0.98485003208E+02  0.75334728287E+02  0.26188673105E+03  0.12508769674E+03 0.  0.
         23    2    1    2    0    0 -0.19381205040E+03 -0.98485003208E+02 -0.63561280379E+03  0.67874390488E+03  0.97094002591E+02 0.  0.
          5    1    3    3  502    0  0.71106242637E+02 -0.25772538258E+02  0.16157718016E+02  0.77452344843E+02  0.41800000000E+01 0. -1.
         -5    1    3    3    0  502  0.12270580776E+03  0.12425754147E+03  0.59177010271E+02  0.18443438620E+03  0.41800000000E+01 0. -1.
        -11    1    4    4    0    0 -0.29738478992E+02  0.87098541773E+01 -0.33952557280E+02  0.45967541139E+02  0.00000000000E+00 0.  1.
         11    1    4    4    0    0 -0.16407357141E+03 -0.10719485738E+03 -0.60166024651E+03  0.63277636374E+03  0.00000000000E+00 0. -1.
</event>
<event>
 8    1  0.6689467E-009  0.1343158E+03  0.7561462E-02  0.1221189E+00
         -1   -1    0    0    0  501 -0.00000000000E+00  0.00000000000E+00  0.11008604031E+04  0.11008604031E+04  0.00000000000E+00 0.  1.
          1   -1    0    0  501    0  0.00000000000E+00 -0.00000000000E+00 -0.31380323231E+02  0.31380323231E+02  0.00000000000E+00 0. -1.
         25    2    1    2    0    0  0.73952691543E+01 -0.12468601238E+03  0.82762922106E+03  0.84629701098E+03  0.12508881466E+03 0.  0.
         23    2    1    2    0    0 -0.73952691543E+01  0.12468601238E+03  0.24185085876E+03  0.28594371530E+03  0.87582411187E+02 0.  0.
          5    1    3    3  502    0  0.19244124209E+02 -0.13380630432E+01  0.41435641733E+03  0.41482627654E+03  0.41800000000E+01 0. -1.
         -5    1    3    3    0  502 -0.11848855055E+02 -0.12334794934E+03  0.41327280374E+03  0.43147073444E+03  0.41800000000E+01 0. -1.
        -11    1    4    4    0    0 -0.51360752498E+01  0.80821246240E+02  0.22460050934E+03  0.23875477358E+03  0.00000000000E+00 0.  1.
         11    1    4    4    0    0 -0.22591939045E+01  0.43864766139E+02  0.17250349420E+02  0.47188941720E+02  0.00000000000E+00 0. -1.
</event>
<event>
 8    1  0.6689467E-009  0.1104800E+03  0.7561462E-02  0.1259684E+00
         -2   -1    0    0    0  501 -0.00000000000E+00  0.00000000000E+00  0.34758124241E+02  0.34758124241E+02  0.00000000000E+00 0.  1.
          2   -1    0    0  501    0  0.00000000000E+00 -0.00000000000E+00 -0.45930837012E+03  0.45930837012E+03  0.00000000000E+00 0. -1.
         25    2    1    2    0    0 -0.27690842712E+02  0.53729116975E+02 -0.18531392855E+03  0.23160841483E+03  0.12509038701E+03 0.  0.
         23    2    1    2    0    0  0.27690842712E+02 -0.53729116975E+02 -0.23923631733E+03  0.26245807953E+03  0.89423862601E+02 0.  0.
          5    1    3    3  502    0  0.39566912442E+02  0.49517523512E+02 -0.51692283964E+02  0.81896827267E+02  0.41800000000E+01 0.  1.
         -5    1    3    3    0  502 -0.67257755154E+02  0.42115934627E+01 -0.13362164459E+03  0.14971158756E+03  0.41800000000E+01 0.  1.
        -11    1    4    4    0    0  0.31473599450E+02  0.43009174747E+01 -0.16564394299E+03  0.16866238823E+03  0.00000000000E+00 0. -1.
         11    1    4    4    0    0 -0.37827567378E+01 -0.58030034450E+02 -0.73592374340E+02  0.93795691307E+02  0.00000000000E+00 0.  1.
</event>
<event>
 8    1  0.6689467E-009  0.1132020E+03  0.7561462E-02  0.1254753E+00
          2   -1    0    0  501    0  0.00000000000E+00  0.00000000000E+00  0.21142314894E+02  0.21142314894E+02  0.00000000000E+00 0.  1.
         -2   -1    0    0    0  501 -0.00000000000E+00 -0.00000000000E+00 -0.88973182854E+03  0.88973182854E+03  0.00000000000E+00 0. -1.
         25    2    1    2    0    0  0.49133655495E+02 -0.48689240005E+02 -0.39690002490E+03  0.42185486691E+03  0.12508853175E+03 0.  0.
         23    2    1    2    0    0 -0.49133655495E+02  0.48689240005E+02 -0.47168948875E+03  0.48901927653E+03  0.10892254507E+03 0.  0.
          5    1    3    3  502    0  0.24434067465E+02  0.21618494359E+02 -0.28776395219E+03  0.28963761415E+03  0.41800000000E+01 0.  1.
         -5    1    3    3    0  502  0.24699588030E+02 -0.70307734364E+02 -0.10913607271E+03  0.13221725276E+03  0.41800000000E+01 0.  1.
        -11    1    4    4    0    0 -0.69799783738E+02  0.43250855557E+01 -0.36500940235E+03  0.37164846291E+03  0.00000000000E+00 0. -1.
         11    1    4    4    0    0  0.20666128243E+02  0.44364154449E+02 -0.10668008640E+03  0.11737081362E+03  0.00000000000E+00 0.  1.
</event>
<event>
 8    1  0.6689467E-009  0.5841307E+02  0.7561462E-02  0.1404615E+00
         -1   -1    0    0    0  501 -0.00000000000E+00  0.00000000000E+00  0.49989108040E+02  0.49989108040E+02  0.00000000000E+00 0.  1.
          1   -1    0    0  501    0  0.00000000000E+00 -0.00000000000E+00 -0.26190785054E+03  0.26190785054E+03  0.00000000000E+00 0. -1.
         25    2    1    2    0    0 -0.12784408999E+02  0.26487799779E+02 -0.12386213764E+03  0.17847763147E+03  0.12508953251E+03 0.  0.
         23    2    1    2    0    0  0.12784408999E+02 -0.26487799779E+02 -0.88056604863E+02  0.13341932711E+03  0.95821221744E+02 0.  0.
          5    1    3    3  502    0  0.15745330562E+02 -0.10805010889E+00  0.22032609764E+02  0.27401375921E+02  0.41800000000E+01 0. -1.
         -5    1    3    3    0  502 -0.28529739561E+02  0.26595849888E+02 -0.14589474740E+03  0.15107625555E+03  0.41800000000E+01 0. -1.
        -11    1    4    4    0    0  0.17894366884E-02  0.16479585637E+02  0.14209254012E+02  0.21759587440E+02  0.00000000000E+00 0.  1.
         11    1    4    4    0    0  0.12782619562E+02 -0.42967385416E+02 -0.10226585887E+03  0.11165973967E+03  0.00000000000E+00 0. -1.
</event>
<event>
 8    1  0.6689467E-009  0.8043676E+02  0.7561462E-02  0.1327817E+00
         -1   -1    0    0    0  501 -0.00000000000E+00  0.00000000000E+00  0.50124241468E+02  0.50124241468E+02  0.00000000000E+00 0.  1.
          1   -1    0    0  501    0  0.00000000000E+00 -0.00000000000E+00 -0.32504419224E+03  0.32504419224E+03  0.00000000000E+00 0. -1.
         25    2    1    2    0    0 -0.55722657750E+02  0.34807680631E+02 -0.17841666471E+03  0.22759045512E+03  0.12509324442E+03 0.  0.
         23    2    1    2    0    0  0.55722657750E+02 -0.34807680631E+02 -0.96503286068E+02  0.14757797859E+03  0.90276166977E+02 0.  0.
          5    1    3    3  502    0 -0.78423921452E+01  0.14726511778E+02  0.17696176483E+02  0.24677931960E+02  0.41800000000E+01 0.  1.
         -5    1    3    3    0  502 -0.47880265605E+02  0.20081168853E+02 -0.19611284119E+03  0.20291252316E+03  0.41800000000E+01 0.  1.
        -11    1    4    4    0    0 -0.19432375055E+01 -0.33855048162E+02  0.14114566023E+01  0.33940133586E+02  0.00000000000E+00 0.  1.
         11    1    4    4    0    0  0.57665895255E+02 -0.95263246876E+00 -0.97914742670E+02  0.11363784500E+03  0.00000000000E+00 0. -1.
</event>
<event>
 8    1  0.6689467E-009  0.1974990E+03  0.7561462E-02  0.1151866E+00
          3   -1    0    0  501    0  0.00000000000E+00  0.00000000000E+00  0.64099131777E+03  0.64099131777E+03  0.00000000000E+00 0. -1.
         -3   -1    0    0    0  501 -0.00000000000E+00 -0.00000000000E+00 -0.82588997087E+02  0.82588997087E+02  0.00000000000E+00 0.  1.
         25    2    1    2    0    0  0.26706001383E+02 -0.18714332844E+03  0.40242852312E+03  0.46187900867E+03  0.12509063331E+03 0.  0.
         23    2    1    2    0    0 -0.26706001383E+02  0.18714332844E+03  0.15597379757E+03  0.26170130619E+03  0.91781873181E+02 0.  0.
          5    1    3    3  502    0  0.76684994782E+01 -0.39112054791E+02  0.90031047560E+01  0.41074164745E+02  0.41800000000E+01 0.  1.
         -5    1    3    3    0  502  0.19037501905E+02 -0.14803127365E+03  0.39342541836E+03  0.42080484392E+03  0.41800000000E+01 0.  1.
        -11    1    4    4    0    0  0.27553480052E+02  0.92537333887E+02  0.46474206865E+02  0.10715504808E+03  0.00000000000E+00 0.  1.
         11    1    4    4    0    0 -0.54259481435E+02  0.94605994552E+02  0.10949959070E+03  0.15454625811E+03  0.00000000000E+00 0. -1.
</event>
<event>
 8    1  0.6689467E-009  0.9488181E+02  0.7561462E-02  0.1291443E+00
          2   -1    0    0  501    0  0.00000000000E+00  0.00000000000E+00  0.22216122347E+03  0.22216122347E+03  0.00000000000E+00 0. -1.
         -2   -1    0    0    0  501 -0.00000000000E+00 -0.00000000000E+00 -0.60896260377E+02  0.60896260377E+02  0.00000000000E+00 0.  1.
         25    2    1    2    0    0  0.37200737652E+02  0.83235358969E+01  0.10768879796E+03  0.16940238309E+03  0.12508842496E+03 0.  0.
         23    2    1    2    0    0 -0.37200737652E+02 -0.83235358969E+01  0.53576165131E+02  0.11365510076E+03  0.92703291883E+02 0.  0.
          5    1    3    3  502    0  0.29368250987E+01  0.45461540384E+02  0.10949535321E+03  0.11866794584E+03  0.41800000000E+01 0.  1.
         -5    1    3    3    0  502  0.34263912554E+02 -0.37138004488E+02 -0.18065552514E+01  0.50734437246E+02  0.41800000000E+01 0.  1.
        -11    1    4    4    0    0 -0.58638018639E+02 -0.27302155225E+02  0.16395540179E+02  0.66728094890E+02  0.00000000000E+00 0.  1.
         11    1    4    4    0    0  0.21437280987E+02  0.18978619328E+02  0.37180624952E+02  0.46927005866E+02  0.00000000000E+00 0. -1.
</event>
<event>
 8    1  0.6689467E-009  0.1672207E+03  0.7561462E-02  0.1180778E+00
          3   -1    0    0  501    0  0.00000000000E+00  0.00000000000E+00  0.35476137083E+02  0.35476137083E+02  0.00000000000E+00 0. -1.
         -3   -1    0    0    0  501 -0.00000000000E+00 -0.00000000000E+00 -0.85419787445E+03  0.85419787445E+03  0.00000000000E+00 0.  1.
         25    2    1    2    0    0  0.49980376595E+02  0.12817869393E+03 -0.41851235490E+03  0.45796020536E+03  0.12508854010E+03 0.  0.
         23    2    1    2    0    0 -0.49980376595E+02 -0.12817869393E+03 -0.40020938247E+03  0.43171380617E+03  0.85331383473E+02 0.  0.
          5    1    3    3  502    0 -0.36760657624E+02  0.15385892191E+02 -0.13338312838E+03  0.13927168759E+03  0.41800000000E+01 0. -1.
         -5    1    3    3    0  502  0.86741034219E+02  0.11279280174E+03 -0.28512922652E+03  0.31868851777E+03  0.41800000000E+01 0. -1.
        -11    1    4    4    0    0 -0.58631946148E+02 -0.62201344454E+02 -0.29579649442E+03  0.30789978641E+03  0.00000000000E+00 0.  1.
         11    1    4    4    0    0  0.86515695523E+01 -0.65977349478E+02 -0.10441288804E+03  0.12381401976E+03  0.00000000000E+00 0. -1.
</event>
<event>
 8    1  0.6689467E-009  0.1044211E+03  0.7561462E-02  0.1271264E+00
          1   -1    0    0  501    0  0.00000000000E+00  0.00000000000E+00  0.56347100409E+02  0.56347100409E+02  0.00000000000E+00 0. -1.
         -1   -1    0    0    0  501 -0.00000000000E+00 -0.00000000000E+00 -0.25614336621E+03  0.25614336621E+03  0.00000000000E+00 0.  1.
         25    2    1    2    0    0  0.41179353019E+02 -0.14532651437E+02 -0.74796925054E+02  0.15214751279E+03  0.12508936236E+03 0.  0.
         23    2    1    2    0    0 -0.41179353019E+02  0.14532651437E+02 -0.12499934074E+03  0.16034295383E+03  0.90432795950E+02 0.  0.
          5    1    3    3  502    0  0.62118704014E+02  0.22736704086E+02 -0.44724535756E+00  0.66282452651E+02  0.41800000000E+01 0. -1.
         -5    1    3    3    0  502 -0.20939350994E+02 -0.37269355523E+02 -0.74349679697E+02  0.85865060136E+02  0.41800000000E+01 0. -1.
        -11    1    4    4    0    0  0.25768787621E+02 -0.10917634583E+02 -0.26378578460E+02  0.38458478414E+02  0.00000000000E+00 0. -1.
         11    1    4    4    0    0 -0.66948140641E+02  0.25450286020E+02 -0.98620762283E+02  0.12188447541E+03  0.00000000000E+00 0.  1.
</event>
<event>
 8    1  0.6689467E-009  0.7132426E+02  0.7561462E-02  0.1355647E+00
          1   -1    0    0  501    0  0.00000000000E+00  0.00000000000E+00  0.71510875335E+02  0.71510875335E+02  0.00000000000E+00 0. -1.
         -1   -1    0    0    0  501 -0.00000000000E+00 -0.00000000000E+00 -0.16862470028E+03  0.16862470028E+03  0.00000000000E+00 0.  1.
         25    2    1    2    0    0  0.14760423036E+02  0.21014260196E+01 -0.58563076181E+02  0.13892222777E+03  0.12508982931E+03 0.  0.
         23    2    1    2    0    0 -0.14760423036E+02 -0.21014260196E+01 -0.38550748763E+02  0.10121334784E+03  0.92388827633E+02 0.  0.
          5    1    3    3  502    0  0.58761240662E+02  0.38446858972E+01 -0.71608082850E+02  0.92805468283E+02  0.41800000000E+01 0. -1.
         -5    1    3    3    0  502 -0.44000817627E+02 -0.17432598776E+01  0.13045006669E+02  0.46116759490E+02  0.41800000000E+01 0. -1.
        -11    1    4    4    0    0  0.12222874143E+02 -0.20696647238E+01 -0.63358095377E+02  0.64559510641E+02  0.00000000000E+00 0.  1.
         11    1    4    4    0    0 -0.26983297178E+02 -0.31761295833E-01  0.24807346614E+02  0.36653837199E+02  0.00000000000E+00 0. -1.
</event>
<event>
 8    1  0.6689467E-009  0.1622565E+03  0.7561462E-02  0.1186172E+00
          1   -1    0    0  501    0  0.00000000000E+00  0.00000000000E+00  0.23579488367E+03  0.23579488367E+03  0.00000000000E+00 0. -1.
         -1   -1    0    0    0  501 -0.00000000000E+00 -0.00000000000E+00 -0.12222228556E+03  0.12222228556E+03  0.00000000000E+00 0.  1.
         25    2    1    2    0    0 -0.10208283364E+03  0.65365375409E+02  0.10413767894E+02  0.17449889195E+03  0.12509148454E+03 0.  0.
         23    2    1    2    0    0  0.10208283364E+03 -0.65365375409E+02  0.10315883021E+03  0.18351827728E+03  0.91343727870E+02 0.  0.
          5    1    3    3  502    0  0.19691640179E+02  0.46346064513E+02 -0.18940101373E+01  0.50564592980E+02  0.41800000000E+01 0. -1.
         -5    1    3    3    0  502 -0.12177447382E+03  0.19019310896E+02  0.12307778031E+02  0.12393429897E+03  0.41800000000E+01 0. -1.
        -11    1    4    4    0    0  0.10696146068E+02 -0.58001356973E+02  0.51402658537E+02  0.78235530650E+02  0.00000000000E+00 0.  1.
         11    1    4    4    0    0  0.91386687571E+02 -0.73640184359E+01  0.51756171672E+02  0.10528274663E+03  0.00000000000E+00 0. -1.
</event>
<event>
 8    1  0.6689467E-009  0.1825377E+03  0.7561462E-02  0.1165369E+00
         -2   -1    0    0    0  501 -0.00000000000E+00  0.00000000000E+00  0.12189664702E+03  0.12189664702E+03  0.00000000000E+00 0.  1.
          2   -1    0    0  501    0  0.00000000000E+00 -0.00000000000E+00 -0.35840008355E+03  0.35840008355E+03  0.00000000000E+00 0. -1.
         25    2    1    2    0    0  0.17742237239E+03 -0.94493481578E+01 -0.10952638984E+03  0.24333334549E+03  0.12508836298E+03 0.  0.
         23    2    1    2    0    0 -0.17742237239E+03  0.94493481578E+01 -0.12697704669E+03  0.23696338508E+03  0.91980906037E+02 0.  0.
          5    1    3    3  502    0  0.16658395945E+03  0.75340915724E+01 -0.13210752688E+03  0.21278357348E+03  0.41800000000E+01 0. -1.
         -5    1    3    3    0  502  0.10838412940E+02 -0.16983439730E+02  0.22581137045E+02  0.30549772018E+02  0.41800000000E+01 0. -1.
        -11    1    4    4    0    0 -0.10540579002E+03  0.43417408992E+01 -0.19183033610E+02  0.10722509064E+03  0.00000000000E+00 0.  1.
         11    1    4    4    0    0 -0.72016582373E+02  0.51076072586E+01 -0.10779401308E+03  0.12973829444E+03  0.00000000000E+00 0. -1.
</event>
<event>
 8    1  0.6689467E-009  0.1521399E+03  0.7561462E-02  0.1197868E+00
          2   -1    0    0  501    0  0.00000000000E+00  0.00000000000E+00  0.46433031911E+02  0.46433031911E+02  0.00000000000E+00 0. -1.
         -2   -1    0    0    0  501 -0.00000000000E+00 -0.00000000000E+00 -0.69286216506E+03  0.69286216506E+03  0.00000000000E+00 0.  1.
         25    2    1    2    0    0 -0.12788377253E+03 -0.13833516125E+02 -0.47178270737E+03  0.50474897307E+03  0.12508787869E+03 0.  0.
         23    2    1    2    0    0  0.12788377253E+03  0.13833516125E+02 -0.17464642578E+03  0.23454622390E+03  0.89246465839E+02 0.  0.
          5    1    3    3  502    0  0.16108688913E+02 -0.22808245350E+02 -0.36403400787E+02  0.46069359701E+02  0.41800000000E+01 0. -1.
         -5    1    3    3    0  502 -0.14399246144E+03  0.89747292242E+01 -0.43537930658E+03  0.45867961336E+03  0.41800000000E+01 0. -1.
        -11    1    4    4    0    0  0.94788026650E+02 -0.24683763541E+01 -0.17340037520E+03  0.19763236829E+03  0.00000000000E+00 0.  1.
         11    1    4    4    0    0  0.33095745879E+02  0.16301892479E+02 -0.12460505770E+01  0.36913855607E+02  0.00000000000E+00 0. -1.
</event>
<event>
 8    1  0.6689467E-009  0.7404724E+02  0.7561462E-02  0.1346847E+00
          2   -1    0    0  501    0  0.00000000000E+00  0.00000000000E+00  0.90281190631E+03  0.90281190631E+03  0.00000000000E+00 0. -1.
         -2   -1    0    0    0  501 -0.00000000000E+00 -0.00000000000E+00 -0.16595475389E+02  0.16595475389E+02  0.00000000000E+00 0.  1.
         25    2    1    2    0    0 -0.48924874539E+02  0.12078990769E+02  0.64518349964E+03  0.65913303280E+03  0.12512018765E+03 0.  0.
         23    2    1    2    0    0  0.48924874539E+02 -0.12078990769E+02  0.24103293129E+03  0.26027434890E+03  0.84298976060E+02 0.  0.
          5    1    3    3  502    0  0.14496471703E+02 -0.86559055610E+01  0.92605037280E+01  0.19705372927E+02  0.41800000000E+01 0. -1.
         -5    1    3    3    0  502 -0.63421346242E+02  0.20734896330E+02  0.63592299591E+03  0.63942765988E+03  0.41800000000E+01 0. -1.
        -11    1    4    4    0    0 -0.14858503970E+01 -0.13336122162E+02 -0.60361426380E+00  0.13432209643E+02  0.00000000000E+00 0.  1.
         11    1    4    4    0    0  0.50410724936E+02  0.12571313934E+01  0.24163654555E+03  0.24684213926E+03  0.00000000000E+00 0. -1.
</event>
<event>
 8    1  0.6689467E-009  0.1371141E+03  0.7561462E-02  0.1217266E+00
          1   -1    0    0  501    0  0.00000000000E+00  0.00000000000E+00  0.51199401786E+03  0.51199401786E+03  0.00000000000E+00 0. -1.
         -1   -1    0    0    0  501 -0.00000000000E+00 -0.00000000000E+00 -0.40021378829E+02  0.40021378829E+02  0.00000000000E+00 0.  1.
         25    2    1    2    0    0 -0.86158701372E+02  0.23085520266E+01  0.19132259739E+03  0.24429541456E+03  0.12508901658E+03 0.  0.
         23    2    1    2    0    0  0.86158701372E+02 -0.23085520266E+01  0.28065004164E+03  0.30771998213E+03  0.92187256684E+02 0.  0.
          5    1    3    3  502    0 -0.90282773204E+02 -0.45101181229E+02  0.10539969699E+03  0.14598515065E+03  0.41800000000E+01 0.  1.
         -5    1    3    3    0  502  0.41240718328E+01  0.47409733256E+02  0.85922900403E+02  0.98310263907E+02  0.41800000000E+01 0.  1.
        -11    1    4    4    0    0  0.60135533712E+02 -0.45235319655E+02  0.15154950806E+03  0.16920333907E+03  0.00000000000E+00 0. -1.
         11    1    4    4    0    0  0.26023167659E+02  0.42926767628E+02  0.12910053358E+03  0.13851664306E+03  0.00000000000E+00 0.  1.
</event>
<event>
 8    1  0.6689467E-009  0.1203884E+03  0.7561462E-02  0.1242458E+00
         -3   -1    0    0    0  501 -0.00000000000E+00  0.00000000000E+00  0.66778967363E+02  0.66778967363E+02  0.00000000000E+00 0.  1.
          3   -1    0    0  501    0  0.00000000000E+00 -0.00000000000E+00 -0.38503224726E+03  0.38503224726E+03  0.00000000000E+00 0. -1.
         25    2    1    2    0    0 -0.55190622525E+02 -0.88727482321E+02 -0.94173629246E+02  0.18823955416E+03  0.12508751485E+03 0.  0.
         23    2    1    2    0    0  0.55190622525E+02  0.88727482321E+02 -0.22407965065E+03  0.26357166047E+03  0.91322283316E+02 0.  0.
          5    1    3    3  502    0  0.21570197806E+02 -0.17035774780E+02  0.19081599514E+02  0.33720481844E+02  0.41800000000E+01 0.  1.
         -5    1    3    3    0  502 -0.76760820331E+02 -0.71691707541E+02 -0.11325522876E+03  0.15451907232E+03  0.41800000000E+01 0.  1.
        -11    1    4    4    0    0  0.62175246059E+01  0.33383797827E+02 -0.16639038120E+03  0.16982018291E+03  0.00000000000E+00 0. -1.
         11    1    4    4    0    0  0.48973097919E+02  0.55343684494E+02 -0.57689269459E+02  0.93751477555E+02  0.00000000000E+00 0.  1.
</event>
<event>
 8    1  0.6689467E-009  0.1089180E+03  0.7561462E-02  0.1262587E+00
         -1   -1    0    0    0  501 -0.00000000000E+00  0.00000000000E+00  0.78032421402E+02  0.78032421402E+02  0.00000000000E+00 0.  1.
          1   -1    0    0  501    0  0.00000000000E+00 -0.00000000000E+00 -0.17370106118E+03  0.17370106118E+03  0.00000000000E+00 0. -1.
         25    2    1    2    0    0  0.75792649360E+01 -0.21440936362E+02 -0.92888933549E+02  0.15745652869E+03  0.12508815069E+03 0.  0.
         23    2    1    2    0    0 -0.75792649360E+01  0.21440936362E+02 -0.27797062278E+01  0.94276953887E+02  0.91450851600E+02 0.  0.
          5    1    3    3  502    0 -0.40185142782E+02  0.32246774653E+02 -0.21215770884E+02  0.55877379234E+02  0.41800000000E+01 0. -1.
         -5    1    3    3    0  502  0.47764407718E+02 -0.53687711016E+02 -0.71673162665E+02  0.10157914946E+03  0.41800000000E+01 0. -1.
        -11    1    4    4    0    0 -0.31603623179E+02 -0.26039614328E+02  0.64369747860E+00  0.40954424166E+02  0.00000000000E+00 0.  1.
         11    1    4    4    0    0  0.24024358242E+02  0.47480550690E+02 -0.34234037065E+01  0.53322529720E+02  0.00000000000E+00 0. -1.
</event>
<event>
 8    1  0.6689467E-009  0.6130276E+02  0.7561462E-02  0.1392445E+00
         -2   -1    0    0    0  501 -0.00000000000E+00  0.00000000000E+00  0.49441379876E+03  0.49441379876E+03  0.00000000000E+00 0.  1.
          2   -1    0    0  501    0  0.00000000000E+00 -0.00000000000E+00 -0.32401560717E+02  0.32401560717E+02  0.00000000000E+00 0. -1.
         25    2    1    2    0    0  0.32817066521E+02  0.38192173722E+02  0.34156663804E+03  0.36721954917E+03  0.12508727784E+03 0.  0.
         23    2    1    2    0    0 -0.32817066521E+02 -0.38192173722E+02  0.12044560000E+03  0.15959581031E+03  0.91804564813E+02 0.  0.
          5    1    3    3  502    0 -0.10105343257E+02  0.54272306774E+01 -0.72662606502E+01  0.14207172097E+02  0.41800000000E+01 0.  1.
         -5    1    3    3    0  502  0.42922409778E+02  0.32764943045E+02  0.34883289869E+03  0.35301237707E+03  0.41800000000E+01 0.  1.
        -11    1    4    4    0    0 -0.22326868796E+02 -0.71093147208E+01  0.12436872732E+03  0.12655675312E+03  0.00000000000E+00 0.  1.
         11    1    4    4    0    0 -0.10490197725E+02 -0.31082859001E+02 -0.39231273167E+01  0.33039057189E+02  0.00000000000E+00 0. -1.
</event>
<event>
 8    1  0.6689467E-009  0.1264039E+03  0.7561462E-02  0.1232891E+00
          1   -1    0    0  501    0  0.00000000000E+00  0.00000000000E+00  0.16570550250E+03  0.16570550250E+03  0.00000000000E+00 0. -1.
         -1   -1    0    0    0  501 -0.00000000000E+00 -0.00000000000E+00 -0.17589845528E+03  0.17589845528E+03  0.00000000000E+00 0.  1.
         25    2    1    2    0    0 -0.13418504957E+02 -0.94057659248E+02 -0.96428704672E+02  0.18431845220E+03  0.12509155527E+03 0.  0.
         23    2    1    2    0    0  0.13418504957E+02  0.94057659248E+02  0.86235751889E+02  0.15728550558E+03  0.90968268227E+02 0.  0.
          5    1    3    3  502    0 -0.38027679082E+02 -0.89685445015E+02 -0.11655212371E+03  0.15195872257E+03  0.41800000000E+01 0.  1.
         -5    1    3    3    0  502  0.24609174126E+02 -0.43722142329E+01  0.20123419034E+02  0.32359729635E+02  0.41800000000E+01 0.  1.
        -11    1    4    4    0    0  0.29725442190E+02  0.10578114512E+03  0.63332201741E+02  0.12682357964E+03  0.00000000000E+00 0. -1.
         11    1    4    4    0    0 -0.16306937233E+02 -0.11723485867E+02  0.22903550149E+02  0.30461925944E+02  0.00000000000E+00 0.  1.
</event>
<event>
 8    1  0.6689467E-009  0.1427759E+03  0.7561462E-02  0.1209642E+00
          2   -1    0    0  501    0  0.00000000000E+00  0.00000000000E+00  0.49985333365E+03  0.49985333365E+03  0.00000000000E+00 0. -1.
         -2   -1    0    0    0  501 -0.00000000000E+00 -0.00000000000E+00 -0.51105749831E+02  0.51105749831E+02  0.00000000000E+00 0.  1.
         25    2    1    2    0    0  0.83435516398E+02  0.49337394071E+02  0.32772010089E+03  0.36394581863E+03  0.12514164183E+03 0.  0.
         23    2    1    2    0    0 -0.83435516398E+02 -0.49337394071E+02  0.12102748292E+03  0.18701326485E+03  0.10454972862E+03 0.  0.
          5    1    3    3  502    0  0.11154355722E+03  0.15049183673E+02  0.25341255505E+03  0.27731541346E+03  0.41800000000E+01 0. -1.
         -5    1    3    3    0  502 -0.28108040818E+02  0.34288210398E+02  0.74307545844E+02  0.86630405172E+02  0.41800000000E+01 0. -1.
        -11    1    4    4    0    0  0.10571635902E+02  0.12112575254E+02 -0.62680576707E+01  0.17255796472E+02  0.00000000000E+00 0.  1.
         11    1    4    4    0    0 -0.94007152300E+02 -0.61449969325E+02  0.12729554059E+03  0.16975746837E+03  0.00000000000E+00 0. -1.
</event>
<event>
 8    1  0.6689467E-009  0.1190229E+03  0.7561462E-02  0.1244718E+00
          1   -1    0    0  501    0  0.00000000000E+00  0.00000000000E+00  0.30280199595E+03  0.30280199595E+03  0.00000000000E+00 0.  1.
         -1   -1    0    0    0  501 -0.00000000000E+00 -0.00000000000E+00 -0.55587159835E+02  0.55587159835E+02  0.00000000000E+00 0. -1.
         25    2    1    2    0    0  0.34841072822E+02 -0.60597667949E+02  0.12377962138E+03  0.18935530985E+03  0.12509220991E+03 0.  0.
         23    2    1    2    0    0 -0.34841072822E+02  0.60597667949E+02  0.12343521473E+03  0.16903384594E+03  0.91925029894E+02 0.  0.
          5    1    3    3  502    0  0.23503731363E+02 -0.99484985138E+02  0.93651343148E+02  0.13870015908E+03  0.41800000000E+01 0.  1.
         -5    1    3    3    0  502  0.11337341459E+02  0.38887317189E+02  0.30128278236E+02  0.50655150765E+02  0.41800000000E+01 0.  1.
        -11    1    4    4    0    0 -0.39050176364E+02  0.51271462416E+01  0.10213437579E+03  0.10946522105E+03  0.00000000000E+00 0.  1.
         11    1    4    4    0    0  0.42091035419E+01  0.55470521707E+02  0.21300838944E+02  0.59568624886E+02  0.00000000000E+00 0. -1.
</event>
<event>
 7    1  0.6689467E-009  0.8554482E+02  0.7561462E-02  0.1314014E+00
         -1   -1    0    0    0  501 -0.00000000000E+00  0.00000000000E+00  0.54376221888E+03  0.54376221888E+03  0.00000000000E+00 0.  1.
          1   -1    0    0  501    0  0.00000000000E+00 -0.00000000000E+00 -0.31763154203E+02  0.31763154203E+02  0.00000000000E+00 0. -1.
         23    2    1    2    0    0 -0.34352076092E+02  0.51271954132E+02  0.17319757199E+03  0.20910069586E+03  0.99583249859E+02 0.  0.
          5    1    1    2  502    0  0.34379377073E+01 -0.51037820542E+02  0.33006025770E+03  0.33402683224E+03  0.41800000000E+01 0. -1.
         -5    1    1    2    0  502  0.30914138385E+02 -0.23413359042E+00  0.87412349828E+01  0.32397844985E+02  0.41800000000E+01 0. -1.
        -11    1    3    3    0    0 -0.46765942381E+02  0.57955378933E+02  0.17898568448E+03  0.19386014175E+03  0.00000000000E+00 0.  1.
         11    1    3    3    0    0  0.12413866289E+02 -0.66834248004E+01 -0.57881124830E+01  0.15240554105E+02  0.00000000000E+00 0. -1.
</event>
<event>
 8    1  0.6689467E-009  0.8383654E+02  0.7561462E-02  0.1318503E+00
          2   -1    0    0  501    0  0.00000000000E+00  0.00000000000E+00  0.33731058745E+03  0.33731058745E+03  0.00000000000E+00 0.  1.
         -2   -1    0    0    0  501 -0.00000000000E+00 -0.00000000000E+00 -0.59577372134E+02  0.59577372134E+02  0.00000000000E+00 0. -1.
         25    2    1    2    0    0 -0.36678226022E+02 -0.47503014399E+01  0.42096325125E+02  0.13706841261E+03  0.12509113285E+03 0.  0.
         23    2    1    2    0    0  0.36678226022E+02  0.47503014399E+01  0.23563689019E+03  0.25981954698E+03  0.10302230508E+03 0.  0.
          5    1    3    3  502    0 -0.20579663957E+01  0.17207165312E+02  0.79464632658E+02  0.81439683246E+02  0.41800000000E+01 0.  1.
         -5    1    3    3    0  502 -0.34620259626E+02 -0.21957466751E+02 -0.37368307533E+02  0.55628729364E+02  0.41800000000E+01 0.  1.
        -11    1    4    4    0    0 -0.21031908467E+02  0.36976325271E+02  0.77129504197E+02  0.88082632919E+02  0.00000000000E+00 0. -1.
         11    1    4    4    0    0  0.57710134489E+02 -0.32226023831E+02  0.15850738600E+03  0.17173691406E+03  0.00000000000E+00 0.  1.
</event>
<event>
 8    1  0.6689467E-009  0.1274479E+03  0.7561462E-02  0.1231292E+00
         -2   -1    0    0    0  501 -0.00000000000E+00  0.00000000000E+00  0.13956034969E+03  0.13956034969E+03  0.00000000000E+00 0. -1.
          2   -1    0    0  501    0  0.00000000000E+00 -0.00000000000E+00 -0.21605262399E+03  0.21605262399E+03  0.00000000000E+00 0.  1.
         25    2    1    2    0    0 -0.87951806194E+02  0.31487010526E+02 -0.14038144696E+03  0.20995678318E+03  0.12509175875E+03 0.  0.
         23    2    1    2    0    0  0.87951806194E+02 -0.31487010526E+02  0.63889172661E+02  0.14565619050E+03  0.91689407254E+02 0.  0.
          5    1    3    3  502    0 -0.47344548525E+02  0.79266017853E+02 -0.94208962178E+02  0.13197503103E+03  0.41800000000E+01 0.  1.
         -5    1    3    3    0  502 -0.40607257668E+02 -0.47779007327E+02 -0.46172484782E+02  0.77981752144E+02  0.41800000000E+01 0.  1.
        -11    1    4    4    0    0  0.35102899635E+02 -0.30917871634E+02 -0.16369033491E+02  0.49558789398E+02  0.00000000000E+00 0.  1.
         11    1    4    4    0    0  0.52848906559E+02 -0.56913889166E+00  0.80258206152E+02  0.96097401100E+02  0.00000000000E+00 0. -1.
</event>
<event>
 8    1  0.6689467E-009  0.9875163E+02  0.7561462E-02  0.1282943E+00
         -1   -1    0    0    0  501 -0.00000000000E+00  0.00000000000E+00  0.68473467542E+02  0.68473467542E+02  0.00000000000E+00 0.  1.
          1   -1    0    0  501    0  0.00000000000E+00 -0.00000000000E+00 -0.34297101218E+03  0.34297101218E+03  0.00000000000E+00 0. -1.
         25    2    1    2    0    0 -0.25859533239E+02 -0.86331213937E+02 -0.65563502478E+02  0.16753063607E+03  0.12508456023E+03 0.  0.
         23    2    1    2    0    0  0.25859533239E+02  0.86331213937E+02 -0.20893404216E+03  0.24391384364E+03  0.87856332667E+02 0.  0.
          5    1    3    3  502    0  0.15670575729E+00 -0.59293948072E+02 -0.10006396826E+03  0.11638757226E+03  0.41800000000E+01 0.  1.
         -5    1    3    3    0  502 -0.26016238997E+02 -0.27037265865E+02  0.34500465778E+02  0.51143063810E+02  0.41800000000E+01 0.  1.
        -11    1    4    4    0    0 -0.12593278096E+02  0.22788078255E+02 -0.14059444278E+03  0.14298491005E+03  0.00000000000E+00 0. -1.
         11    1    4    4    0    0  0.38452811335E+02  0.63543135682E+02 -0.68339599381E+02  0.10092893359E+03  0.00000000000E+00 0.  1.
</event>
<event>
 8    1  0.6689467E-009  0.8022929E+02  0.7561462E-02  0.1328402E+00
          2   -1    0    0  501    0  0.00000000000E+00  0.00000000000E+00  0.12043157711E+03  0.12043157711E+03  0.00000000000E+00 0. -1.
         -2   -1    0    0    0  501 -0.00000000000E+00 -0.00000000000E+00 -0.10960918590E+03  0.10960918590E+03  0.00000000000E+00 0.  1.
         25    2    1    2    0    0  0.17781797201E+02 -0.14025862046E+02  0.38198823915E+02  0.13276761306E+03  0.12512062904E+03 0.  0.
         23    2    1    2    0    0 -0.17781797201E+02  0.14025862046E+02 -0.27376432708E+02  0.97273149947E+02  0.90552081782E+02 0.  0.
          5    1    3    3  502    0  0.62742907143E+02 -0.18552500478E+02  0.53767906064E+02  0.84789903841E+02  0.41800000000E+01 0. -1.
         -5    1    3    3    0  502 -0.44961109942E+02  0.45266384321E+01 -0.15569082149E+02  0.47977709217E+02  0.41800000000E+01 0. -1.
        -11    1    4    4    0    0 -0.18469542492E+02 -0.12933303177E+02 -0.54527237445E+02  0.59005202773E+02  0.00000000000E+00 0.  1.
         11    1    4    4    0    0  0.68774529039E+00  0.26959165222E+02  0.27150804737E+02  0.38267947174E+02  0.00000000000E+00 0. -1.
</event>
<event>
 8    1  0.6689467E-009  0.1361697E+03  0.7561462E-02  0.1218578E+00
          1   -1    0    0  501    0  0.00000000000E+00  0.00000000000E+00  0.53596692915E+03  0.53596692915E+03  0.00000000000E+00 0.  1.
         -1   -1    0    0    0  501 -0.00000000000E+00 -0.00000000000E+00 -0.37099932094E+02  0.37099932094E+02  0.00000000000E+00 0. -1.
         25    2    1    2    0    0 -0.89828273559E+02  0.22610732291E+01  0.28708809376E+03  0.32579648740E+03  0.12509814723E+03 0.  0.
         23    2    1    2    0    0  0.89828273559E+02 -0.22610732291E+01  0.21177890329E+03  0.24727037384E+03  0.90653751810E+02 0.  0.
          5    1    3    3  502    0 -0.49269268221E+01 -0.52494494480E+02  0.10118789828E+03  0.11417709804E+03  0.41800000000E+01 0.  1.
         -5    1    3    3    0  502 -0.84901346737E+02  0.54755567709E+02  0.18590019548E+03  0.21161938936E+03  0.41800000000E+01 0.  1.
        -11    1    4    4    0    0 -0.93456668263E+01  0.14997546790E+02  0.68502111277E+01  0.18952395380E+02  0.00000000000E+00 0. -1.
         11    1    4    4    0    0  0.99173940385E+02 -0.17258620019E+02  0.20492869216E+03  0.22831797846E+03  0.00000000000E+00 0.  1.
</event>
<event>
 7    1  0.6689467E-009  0.9793494E+02  0.7561462E-02  0.1284699E+00
         -1   -1    0    0    0  501 -0.00000000000E+00  0.00000000000E+00  0.55784330909E+02  0.55784330909E+02  0.00000000000E+00 0.  1.
          1   -1    0    0  501    0  0.00000000000E+00 -0.00000000000E+00 -0.32632602429E+03  0.32632602429E+03  0.00000000000E+00 0. -1.
         23    2    1    2    0    0 -0.15224680106E+02  0.37105547472E+02 -0.22091079099E+03  0.24176498465E+03  0.89666703358E+02 0.  0.
          5    1    1    2  502    0  0.16082882593E+02  0.29026835048E+02 -0.64293228595E+02  0.72472808063E+02  0.41800000000E+01 0. -1.
         -5    1    1    2    0  502 -0.85820248706E+00 -0.66132382519E+02  0.14662326198E+02  0.67872562488E+02  0.41800000000E+01 0. -1.
        -11    1    3    3    0    0 -0.15190977771E+02 -0.27569735738E+02 -0.50654249421E+02  0.59638151536E+02  0.00000000000E+00 0.  1.
         11    1    3    3    0    0 -0.33702334681E-01  0.64675283210E+02 -0.17025654157E+03  0.18212683311E+03  0.00000000000E+00 0. -1.
</event>
<event>
 8    1  0.6689467E-009  0.1122586E+03  0.7561462E-02  0.1256444E+00
          2   -1    0    0  501    0  0.00000000000E+00  0.00000000000E+00  0.43591411888E+03  0.43591411888E+03  0.00000000000E+00 0. -1.
         -2   -1    0    0    0  501 -0.00000000000E+00 -0.00000000000E+00 -0.41437435635E+02  0.41437435635E+02  0.00000000000E+00 0.  1.
         25    2    1    2    0    0  0.66937189992E+02 -0.32462223234E+02  0.16416982938E+03  0.21941806744E+03  0.12513261804E+03 0.  0.
         23    2    1    2    0    0 -0.66937189992E+02  0.32462223234E+02  0.23030685387E+03  0.25793348708E+03  0.89185500380E+02 0.  0.
          5    1    3    3  502    0  0.82057692154E+02 -0.12678571555E+02  0.17358848731E+03  0.19246985828E+03  0.41800000000E+01 0.  1.
         -5    1    3    3    0  502 -0.15120502162E+02 -0.19783651680E+02 -0.94186579350E+01  0.26948209156E+02  0.41800000000E+01 0.  1.
        -11    1    4    4    0    0  0.21440137180E+02 -0.14089438769E+01  0.41470485218E+02  0.46706163933E+02  0.00000000000E+00 0. -1.
         11    1    4    4    0    0 -0.88377327171E+02  0.33871167111E+02  0.18883636865E+03  0.21122732315E+03  0.00000000000E+00 0.  1.
</event>
