<event>
 7    1  0.3896452E-010  0.6946370E+03  0.7561462E-02  0.9726448E-01
          1   -1    0    0  501    0  0.00000000000E+00  0.00000000000E+00  0.24178264528E+04  0.24178264528E+04  0.00000000000E+00 0. -1.
         -1   -1    0    0    0  501 -0.00000000000E+00 -0.00000000000E+00 -0.20612783932E+03  0.20612783932E+03  0.00000000000E+00 0.  1.
         25    2    1    2    0    0 -0.66000278442E+03  0.92966167798E+02  0.90845837815E+03  0.11336624728E+04  0.12509034214E+03 0.  0.
          5    1    3    3  502    0 -0.36471691897E+03  0.44921122088E+02  0.39596446067E+03  0.54022371728E+03  0.41800000000E+01 0. -1.
         -5    1    3    3    0  502 -0.29528586544E+03  0.48045045710E+02  0.51249391748E+03  0.59343875556E+03  0.41800000000E+01 0. -1.
        -11    1    1    2    0    0  0.18696256959E+03 -0.15839086057E+03  0.46196976906E+03  0.52293282042E+03  0.00000000000E+00 0. -1.
         11    1    1    2    0    0  0.47304021483E+03  0.65424692775E+02  0.84127046623E+03  0.96735899883E+03  0.00000000000E+00 0.  1.
</event>
<event>
 7    1  0.3896452E-010  0.1415067E+03  0.7561462E-02  0.1211316E+00
          1   -1    0    0  501    0  0.00000000000E+00  0.00000000000E+00  0.68217344837E+03  0.68217344837E+03  0.00000000000E+00 0. -1.
         -1   -1    0    0    0  501 -0.00000000000E+00 -0.00000000000E+00 -0.38490986730E+02  0.38490986730E+02  0.00000000000E+00 0.  1.
         25    2    1    2    0    0  0.12712129198E+03 -0.28519066974E+02  0.27826349453E+03  0.33173952854E+03  0.12508949738E+03 0.  0.
          5    1    3    3  502    0  0.81598236565E+02  0.19259187153E+02  0.58693473671E+02  0.10242843722E+03  0.41800000000E+01 0. -1.
         -5    1    3    3    0  502  0.45523055410E+02 -0.47778254127E+02  0.21957002086E+03  0.22931109132E+03  0.41800000000E+01 0. -1.
        -11    1    1    2    0    0 -0.29321209700E+02  0.18411367624E+02  0.85716844975E+02  0.92445061028E+02  0.00000000000E+00 0. -1.
         11    1    1    2    0    0 -0.97800082276E+02  0.10107699350E+02  0.27970212213E+03  0.29647984553E+03  0.00000000000E+00 0.  1.
</event>
<event>
 8    1  0.3896452E-010  0.1903236E+03  0.7561462E-02  0.1158170E+00
         -1   -1    0    0    0  501 -0.00000000000E+00  0.00000000000E+00  0.20713258402E+03  0.20713258402E+03  0.00000000000E+00 0.  1.
          1   -1    0    0  501    0  0.00000000000E+00 -0.00000000000E+00 -0.18003864548E+03  0.18003864548E+03  0.00000000000E+00 0. -1.
         25    2    1    2    0    0 -0.16159697310E+03 -0.35496674597E+02  0.34922661098E+01  0.20744278342E+03  0.12508683723E+03 0.  0.
         23    2    1    2    0    0  0.16159697310E+03  0.35496674597E+02  0.23601672426E+02  0.17972844608E+03  0.66118679402E+02 0.  0.
          5    1    3    3  502    0 -0.85025038548E+02 -0.78390699499E+02 -0.17666985369E+02  0.11706388734E+03  0.41800000000E+01 0. -1.
         -5    1    3    3    0  502 -0.76571934550E+02  0.42894024901E+02  0.21159251479E+02  0.90378896077E+02  0.41800000000E+01 0. -1.
        -11    1    4    4    0    0  0.14297720546E+03  0.52036205812E+02  0.27202498631E+02  0.15456462703E+03  0.00000000000E+00 0.  1.
         11    1    4    4    0    0  0.18619767634E+02 -0.16539531215E+02 -0.36008262050E+01  0.25163819045E+02  0.00000000000E+00 0. -1.
</event>
<event>
 8    1  0.3896452E-010  0.3247721E+03  0.7561462E-02  0.1073474E+00
          1   -1    0    0  501    0  0.00000000000E+00  0.00000000000E+00  0.71580317274E+03  0.71580317274E+03  0.00000000000E+00 0. -1.
         -1   -1    0    0    0  501 -0.00000000000E+00 -0.00000000000E+00 -0.16544743798E+03  0.16544743798E+03  0.00000000000E+00 0.  1.
         25    2    1    2    0    0  0.94144281508E+01 -0.30533859425E+03  0.13914845305E+03  0.35822946432E+03  0.12508304650E+03 0.  0.
         23    2    1    2    0    0 -0.94144281508E+01  0.30533859425E+03  0.41120728171E+03  0.52302114640E+03  0.10554336765E+03 0.  0.
          5    1    3    3  502    0  0.66414611979E+02 -0.16388536829E+03  0.85947175124E+02  0.19665630917E+03  0.41800000000E+01 0. -1.
         -5    1    3    3    0  502 -0.57000183828E+02 -0.14145322596E+03  0.53201277924E+02  0.16157315515E+03  0.41800000000E+01 0. -1.
        -11    1    4    4    0    0 -0.36331157144E+02  0.42608126274E+02  0.46831428553E+02  0.72997178743E+02  0.00000000000E+00 0.  1.
         11    1    4    4    0    0  0.26916728993E+02  0.26273046798E+03  0.36437585316E+03  0.45002396766E+03  0.00000000000E+00 0. -1.
</event>
<event>
 8    1  0.3896452E-010  0.1157446E+03  0.7561462E-02  0.1250287E+00
         -2   -1    0    0    0  501 -0.00000000000E+00  0.00000000000E+00  0.26707778906E+02  0.26707778906E+02  0.00000000000E+00 0. -1.
          2   -1    0    0  501    0  0.00000000000E+00 -0.00000000000E+00 -0.61155324786E+03  0.61155324786E+03  0.00000000000E+00 0.  1.
         25    2    1    2    0    0  0.48812065382E+02 -0.65666860247E+02 -0.40901068933E+03  0.43546884517E+03  0.12509443177E+03 0.  0.
         23    2    1    2    0    0 -0.48812065382E+02  0.65666860247E+02 -0.17583477962E+03  0.20279218160E+03  0.59262508650E+02 0.  0.
          5    1    3    3  502    0 -0.41197366303E+01  0.34839384235E+02 -0.11247478862E+03  0.11789319488E+03  0.41800000000E+01 0.  1.
         -5    1    3    3    0  502  0.52931802012E+02 -0.10050624448E+03 -0.29653590071E+03  0.31757565029E+03  0.41800000000E+01 0.  1.
        -11    1    4    4    0    0 -0.21969612078E+02  0.21086135165E+02 -0.15390094525E+02  0.34119553933E+02  0.00000000000E+00 0. -1.
         11    1    4    4    0    0 -0.26842453304E+02  0.44580725082E+02 -0.16044468509E+03  0.16867262766E+03  0.00000000000E+00 0.  1.
</event>
<event>
 8    1  0.3896452E-010  0.3174944E+03  0.7561462E-02  0.1076808E+00
         -1   -1    0    0    0  501 -0.00000000000E+00  0.00000000000E+00  0.12853566387E+04  0.12853566387E+04  0.00000000000E+00 0.  1.
          1   -1    0    0  501    0  0.00000000000E+00 -0.00000000000E+00 -0.90809716272E+02  0.90809716272E+02  0.00000000000E+00 0. -1.
         25    2    1    2    0    0  0.23028996409E+03  0.21637564086E+03  0.77097671715E+03  0.84255847439E+03  0.12509116218E+03 0.  0.
         23    2    1    2    0    0 -0.23028996409E+03 -0.21637564086E+03  0.42357020523E+03  0.53360788054E+03  0.73984903163E+02 0.  0.
          5    1    3    3  502    0  0.16177168477E+03  0.16298678053E+03  0.67518314537E+03  0.71317916459E+03  0.41800000000E+01 0.  1.
         -5    1    3    3    0  502  0.68518279319E+02  0.53388860325E+02  0.95793571788E+02  0.12937930980E+03  0.41800000000E+01 0.  1.
        -11    1    4    4    0    0 -0.34175385641E+02 -0.15217536947E+02  0.21612664930E+02  0.43204602762E+02  0.00000000000E+00 0. -1.
         11    1    4    4    0    0 -0.19611457845E+03 -0.20115810391E+03  0.40195754030E+03  0.49040327778E+03  0.00000000000E+00 0.  1.
</event>
<event>
 8    1  0.3896452E-010  0.2366790E+03  0.7561462E-02  0.1122025E+00
          1   -1    0    0  501    0  0.00000000000E+00  0.00000000000E+00  0.21065388916E+04  0.21065388916E+04  0.00000000000E+00 0. -1.
         -1   -1    0    0    0  501 -0.00000000000E+00 -0.00000000000E+00 -0.28981251828E+02  0.28981251828E+02  0.00000000000E+00 0.  1.
         25    2    1    2    0    0  0.23283753927E+02 -0.21282067148E+03  0.99965902037E+03  0.10299517237E+04  0.12509046615E+03 0.  0.
         23    2    1    2    0    0 -0.23283753927E+02  0.21282067148E+03  0.10778986194E+04  0.11055684198E+04  0.12075315984E+03 0.  0.
          5    1    3    3  502    0 -0.31670593054E+02 -0.93285304269E+02  0.62751457797E+03  0.63521428858E+03  0.41800000000E+01 0.  1.
         -5    1    3    3    0  502  0.54954346981E+02 -0.11953536721E+03  0.37214444240E+03  0.39473743511E+03  0.41800000000E+01 0.  1.
        -11    1    4    4    0    0  0.46225009558E+02  0.10650995226E+03  0.59648249235E+03  0.60767794523E+03  0.00000000000E+00 0.  1.
         11    1    4    4    0    0 -0.69508763485E+02  0.10631071922E+03  0.48141612710E+03  0.49789047456E+03  0.00000000000E+00 0. -1.
</event>
<event>
 8    1  0.3896452E-010  0.1411773E+03  0.7561462E-02  0.1211754E+00
          1   -1    0    0  501    0  0.00000000000E+00  0.00000000000E+00  0.23809463836E+04  0.23809463836E+04  0.00000000000E+00 0. -1.
         -1   -1    0    0    0  501 -0.00000000000E+00 -0.00000000000E+00 -0.10940503238E+02  0.10940503238E+02  0.00000000000E+00 0.  1.
         25    2    1    2    0    0 -0.10090403943E+03  0.34273086347E+02  0.18905445397E+04  0.18976729062E+04  0.12509009885E+03 0.  0.
         23    2    1    2    0    0  0.10090403943E+03 -0.34273086347E+02  0.47946134070E+03  0.49421398064E+03  0.54845344542E+02 0.  0.
          5    1    3    3  502    0  0.17975990003E+02 -0.24991728598E+02  0.41014720251E+03  0.41132216430E+03  0.41800000000E+01 0.  1.
         -5    1    3    3    0  502 -0.11888002944E+03  0.59264814945E+02  0.14803973371E+04  0.14863507419E+04  0.41800000000E+01 0.  1.
        -11    1    4    4    0    0  0.83005391203E+02 -0.38558533227E+01  0.36948351709E+03  0.37871207002E+03  0.00000000000E+00 0. -1.
         11    1    4    4    0    0  0.17898648230E+02 -0.30417233025E+02  0.10997782361E+03  0.11550191063E+03  0.00000000000E+00 0.  1.
</event>
<event>
 7    1  0.3896452E-010  0.1804069E+03  0.7561462E-02  0.1167410E+00
          1   -1    0    0  501    0  0.00000000000E+00  0.00000000000E+00  0.22745810587E+03  0.22745810587E+03  0.00000000000E+00 0. -1.
         -1   -1    0    0    0  501 -0.00000000000E+00 -0.00000000000E+00 -0.25948405826E+03  0.25948405826E+03  0.00000000000E+00 0.  1.
         25    2    1    2    0    0  0.91651434713E+01  0.43405567172E+02  0.19288736283E+02  0.13411809580E+03  0.12509022807E+03 0.  0.
          5    1    3    3  502    0 -0.42123512280E+02  0.13265358466E+02 -0.32613993241E+02  0.55059104398E+02  0.41800000000E+01 0. -1.
         -5    1    3    3    0  502  0.51288655752E+02  0.30140208706E+02  0.51902729523E+02  0.79058991403E+02  0.41800000000E+01 0. -1.
        -11    1    1    2    0    0  0.12365994835E+02 -0.14876635394E+03 -0.14653966509E+03  0.20918465368E+03  0.00000000000E+00 0.  1.
         11    1    1    2    0    0 -0.21531138306E+02  0.10536078677E+03  0.95224976420E+02  0.14363941464E+03  0.00000000000E+00 0. -1.
</event>
<event>
 8    1  0.3896452E-010  0.1289021E+03  0.7561462E-02  0.1229094E+00
          2   -1    0    0  501    0  0.00000000000E+00  0.00000000000E+00  0.37665550178E+03  0.37665550178E+03  0.00000000000E+00 0. -1.
         -2   -1    0    0    0  501 -0.00000000000E+00 -0.00000000000E+00 -0.68423057641E+02  0.68423057641E+02  0.00000000000E+00 0.  1.
         25    2    1    2    0    0 -0.29290304914E+02  0.11478219056E+03  0.11561712490E+03  0.20747790530E+03  0.12508752290E+03 0.  0.
         23    2    1    2    0    0  0.29290304914E+02 -0.11478219056E+03  0.19261531924E+03  0.23760065412E+03  0.72942007105E+02 0.  0.
          5    1    3    3  502    0 -0.34635843207E+02  0.12278775093E+03  0.13477785666E+03  0.18563139944E+03  0.41800000000E+01 0.  1.
         -5    1    3    3    0  502  0.53455382932E+01 -0.80055603653E+01 -0.19160731763E+02  0.21846505855E+02  0.41800000000E+01 0.  1.
        -11    1    4    4    0    0  0.15039047696E+02 -0.88460426178E+02  0.18662408083E+03  0.20707478722E+03  0.00000000000E+00 0. -1.
         11    1    4    4    0    0  0.14251257218E+02 -0.26321764386E+02  0.59912384116E+01  0.30525866906E+02  0.00000000000E+00 0.  1.
</event>
<event>
 8    1  0.3896452E-010  0.1174827E+03  0.7561462E-02  0.1247309E+00
         -1   -1    0    0    0  501 -0.00000000000E+00  0.00000000000E+00  0.45247972807E+03  0.45247972807E+03  0.00000000000E+00 0.  1.
          1   -1    0    0  501    0  0.00000000000E+00 -0.00000000000E+00 -0.33502268681E+02  0.33502268681E+02  0.00000000000E+00 0. -1.
         25    2    1    2    0    0  0.39574839642E+02 -0.67843987150E+02  0.24880303909E+03  0.28934660517E+03  0.12509808605E+03 0.  0.
         23    2    1    2    0    0 -0.39574839642E+02  0.67843987150E+02  0.17017442030E+03  0.19663539159E+03  0.59474106765E+02 0.  0.
          5    1    3    3  502    0 -0.32803837915E+02 -0.64163703179E+02  0.15275685052E+03  0.16895324906E+03  0.41800000000E+01 0. -1.
         -5    1    3    3    0  502  0.72378677557E+02 -0.36802839714E+01  0.96046188576E+02  0.12039335611E+03  0.41800000000E+01 0. -1.
        -11    1    4    4    0    0 -0.26370447253E+02  0.61243301525E+01  0.93415814483E+02  0.97259561502E+02  0.00000000000E+00 0.  1.
         11    1    4    4    0    0 -0.13204392389E+02  0.61719656998E+02  0.76758605817E+02  0.99375830086E+02  0.00000000000E+00 0. -1.
</event>
<event>
 8    1  0.4590733E-010  0.9848167E+02  0.7561462E-02  0.1283522E+00
         -2   -1    0    0    0  501 -0.00000000000E+00  0.00000000000E+00  0.97407656277E+02  0.97407656277E+02  0.00000000000E+00 0. -1.
          2   -1    0    0  501    0  0.00000000000E+00 -0.00000000000E+00 -0.18235984259E+03  0.18235984259E+03  0.00000000000E+00 0.  1.
         25    2    1    2    0    0  0.21048810439E+02  0.28841724615E+02  0.14872476697E+02  0.13093915649E+03  0.12509586180E+03 0.  0.
         23    2    1    2    0    0 -0.21048810439E+02 -0.28841724615E+02 -0.99824663011E+02  0.14882834238E+03  0.10445101555E+03 0.  0.
          5    1    3    3  502    0 -0.44803536417E+01 -0.40074101489E+02 -0.24592759036E+02  0.47416066643E+02  0.41800000000E+01 0. -1.
         -5    1    3    3    0  502  0.25529164081E+02  0.68915826104E+02  0.39465235732E+02  0.83523089847E+02  0.41800000000E+01 0. -1.
        -11    1    4    4    0    0  0.27262335932E+02 -0.19721751072E+02 -0.93362783720E+02  0.99241079246E+02  0.00000000000E+00 0.  1.
         11    1    4    4    0    0 -0.48311146371E+02 -0.91199735429E+01 -0.64618792902E+01  0.49587263133E+02  0.00000000000E+00 0. -1.
</event>
<event>
 8    1  0.3896452E-010  0.1316845E+03  0.7561462E-02  0.1224977E+00
          1   -1    0    0  501    0  0.00000000000E+00  0.00000000000E+00  0.70770304208E+02  0.70770304208E+02  0.00000000000E+00 0. -1.
         -1   -1    0    0    0  501 -0.00000000000E+00 -0.00000000000E+00 -0.26897927612E+03  0.26897927612E+03  0.00000000000E+00 0.  1.
         25    2    1    2    0    0 -0.46104927981E+02  0.80617320894E+02 -0.10491272316E+03  0.18782747480E+03  0.12509062315E+03 0.  0.
         23    2    1    2    0    0  0.46104927981E+02 -0.80617320894E+02 -0.93296248756E+02  0.15192210552E+03  0.75837453166E+02 0.  0.
          5    1    3    3  502    0  0.34457390888E+02  0.40750307947E+02 -0.76684865023E+02  0.93519732187E+02  0.41800000000E+01 0.  1.
         -5    1    3    3    0  502 -0.80562318870E+02  0.39867012947E+02 -0.28227858134E+02  0.94307742618E+02  0.41800000000E+01 0.  1.
        -11    1    4    4    0    0  0.20734707641E+02  0.11911049726E+02 -0.20292421397E+02  0.31362135971E+02  0.00000000000E+00 0. -1.
         11    1    4    4    0    0  0.25370220341E+02 -0.92528370619E+02 -0.73003827359E+02  0.12055996955E+03  0.00000000000E+00 0.  1.
</event>
<event>
 8    1  0.3896452E-010  0.1427348E+03  0.7561462E-02  0.1209696E+00
          2   -1    0    0  501    0  0.00000000000E+00  0.00000000000E+00  0.35189570081E+03  0.35189570081E+03  0.00000000000E+00 0.  1.
         -2   -1    0    0    0  501 -0.00000000000E+00 -0.00000000000E+00 -0.88226152880E+02  0.88226152880E+02  0.00000000000E+00 0. -1.
         25    2    1    2    0    0  0.54169657695E+02  0.61369124839E+02  0.75320879771E+01  0.14968432656E+03  0.12509254163E+03 0.  0.
         23    2    1    2    0    0 -0.54169657695E+02 -0.61369124839E+02  0.25613745995E+03  0.29043752712E+03  0.10975899724E+03 0.  0.
          5    1    3    3  502    0 -0.40391257514E+02  0.26993126944E+02  0.39153662160E+01  0.48917124592E+02  0.41800000000E+01 0.  1.
         -5    1    3    3    0  502  0.94560915209E+02  0.34375997895E+02  0.36167217611E+01  0.10076720197E+03  0.41800000000E+01 0.  1.
        -11    1    4    4    0    0 -0.59975072369E+02 -0.89249331606E+02  0.18783178748E+03  0.21643297550E+03  0.00000000000E+00 0. -1.
         11    1    4    4    0    0  0.58054146738E+01  0.27880206767E+02  0.68305672473E+02  0.74004551623E+02  0.00000000000E+00 0.  1.
</event>
<event>
 8    1  0.3896452E-010  0.9033287E+02  0.7561462E-02  0.1302048E+00
         -1   -1    0    0    0  501 -0.00000000000E+00  0.00000000000E+00  0.33823865215E+03  0.33823865215E+03  0.00000000000E+00 0.  1.
          1   -1    0    0  501    0  0.00000000000E+00 -0.00000000000E+00 -0.28399727304E+02  0.28399727304E+02  0.00000000000E+00 0. -1.
         25    2    1    2    0    0 -0.95778809256E+01  0.26034114153E+01  0.21742104403E+03  0.25104191553E+03  0.12510643233E+03 0.  0.
         23    2    1    2    0    0  0.95778809256E+01 -0.26034114153E+01  0.92417880814E+02  0.11559646392E+03  0.68723825736E+02 0.  0.
          5    1    3    3  502    0 -0.13698272377E+02 -0.56226376328E+02  0.62787125976E+02  0.85491190478E+02  0.41800000000E+01 0. -1.
         -5    1    3    3    0  502  0.41203914512E+01  0.58829787743E+02  0.15463391805E+03  0.16555072505E+03  0.41800000000E+01 0. -1.
        -11    1    4    4    0    0 -0.24405172911E+02 -0.13429729256E+02  0.64648993669E+02  0.70395045813E+02  0.00000000000E+00 0.  1.
         11    1    4    4    0    0  0.33983053836E+02  0.10826317841E+02  0.27768887145E+02  0.45201418112E+02  0.00000000000E+00 0. -1.
</event>
<event>
 8    1  0.3896452E-010  0.7744519E+02  0.7561462E-02  0.1336462E+00
          1   -1    0    0  501    0  0.00000000000E+00  0.00000000000E+00  0.25977417196E+03  0.25977417196E+03  0.00000000000E+00 0. -1.
         -1   -1    0    0    0  501 -0.00000000000E+00 -0.00000000000E+00 -0.37797544635E+02  0.37797544635E+02  0.00000000000E+00 0.  1.
         25    2    1    2    0    0 -0.24141639702E+02  0.20883303235E+02  0.15327321737E+03  0.20039756390E+03  0.12509026074E+03 0.  0.
         23    2    1    2    0    0  0.24141639702E+02 -0.20883303235E+02  0.68703409954E+02  0.97174152694E+02  0.60858247518E+02 0.  0.
          5    1    3    3  502    0  0.59908950732E+01 -0.34590728360E+02  0.84842233088E+00  0.35363844994E+02  0.41800000000E+01 0.  1.
         -5    1    3    3    0  502 -0.30132534775E+02  0.55474031595E+02  0.15242479504E+03  0.16503371891E+03  0.41800000000E+01 0.  1.
        -11    1    4    4    0    0 -0.14054232845E+02 -0.55732059771E+01 -0.21171302319E+01  0.15266444450E+02  0.00000000000E+00 0.  1.
         11    1    4    4    0    0  0.38195872547E+02 -0.15310097258E+02  0.70820540186E+02  0.81907708244E+02  0.00000000000E+00 0. -1.
</event>
<event>
 8    1  0.4335715E-010  0.9791761E+02  0.7561462E-02  0.1284737E+00
         -1   -1    0    0    0  501 -0.00000000000E+00  0.00000000000E+00  0.28989918806E+02  0.28989918806E+02  0.00000000000E+00 0.  1.
          1   -1    0    0  501    0  0.00000000000E+00 -0.00000000000E+00 -0.38982130420E+03  0.38982130420E+03  0.00000000000E+00 0. -1.
         25    2    1    2    0    0  0.22296581068E+02  0.87401517193E+01 -0.18195787853E+03  0.22210194812E+03  0.12508828091E+03 0.  0.
         23    2    1    2    0    0 -0.22296581068E+02 -0.87401517193E+01 -0.17887350687E+03  0.19670927489E+03  0.78264165410E+02 0.  0.
          5    1    3    3  502    0  0.58220098639E+02 -0.34018194853E+02 -0.72180698354E+02  0.98865277431E+02  0.41800000000E+01 0. -1.
         -5    1    3    3    0  502 -0.35923517571E+02  0.42758346572E+02 -0.10977718017E+03  0.12323667069E+03  0.41800000000E+01 0. -1.
        -11    1    4    4    0    0 -0.12406506000E+02  0.29908425109E+02 -0.36223164964E+02  0.48585522161E+02  0.00000000000E+00 0.  1.
         11    1    4    4    0    0 -0.98900750676E+01 -0.38648576829E+02 -0.14265034191E+03  0.14812375273E+03  0.00000000000E+00 0. -1.
</event>
<event>
 8    1  0.3896452E-010  0.1187260E+03  0.7561462E-02  0.1245214E+00
         -1   -1    0    0    0  501 -0.00000000000E+00  0.00000000000E+00  0.29323128312E+02  0.29323128312E+02  0.00000000000E+00 0. -1.
          1   -1    0    0  501    0  0.00000000000E+00 -0.00000000000E+00 -0.48583573720E+03  0.48583573720E+03  0.00000000000E+00 0.  1.
         25    2    1    2    0    0 -0.58787183409E+02 -0.35164604125E+02 -0.26443463565E+03  0.30044351643E+03  0.12509255659E+03 0.  0.
         23    2    1    2    0    0  0.58787183409E+02  0.35164604125E+02 -0.19207797324E+03  0.21471534908E+03  0.67203058065E+02 0.  0.
          5    1    3    3  502    0  0.47167676614E+01 -0.69622967218E+02 -0.14032911819E+03  0.15677799359E+03  0.41800000000E+01 0.  1.
         -5    1    3    3    0  502 -0.63503951071E+02  0.34458363093E+02 -0.12410551746E+03  0.14366552284E+03  0.41800000000E+01 0.  1.
        -11    1    4    4    0    0  0.53695443973E+02 -0.56957441439E+01 -0.95147915368E+02  0.10940186472E+03  0.00000000000E+00 0.  1.
         11    1    4    4    0    0  0.50917394368E+01  0.40860348269E+02 -0.96930057869E+02  0.10531348437E+03  0.00000000000E+00 0. -1.
</event>
<event>
 8    1  0.3896452E-010  0.1036239E+03  0.7561462E-02  0.1272855E+00
          2   -1    0    0  501    0  0.00000000000E+00  0.00000000000E+00  0.85047440880E+03  0.85047440880E+03  0.00000000000E+00 0. -1.
         -2   -1    0    0    0  501 -0.00000000000E+00 -0.00000000000E+00 -0.18997249812E+02  0.18997249812E+02  0.00000000000E+00 0.  1.
         25    2    1    2    0    0 -0.19656101190E+02  0.41025913421E+02  0.48207443204E+03  0.50011322198E+03  0.12509192173E+03 0.  0.
         23    2    1    2    0    0  0.19656101190E+02 -0.41025913421E+02  0.34940272695E+03  0.36935843664E+03  0.11078764024E+03 0.  0.
          5    1    3    3  502    0 -0.55875833978E+02  0.48286425241E+02  0.16443130795E+03  0.18030201086E+03  0.41800000000E+01 0. -1.
         -5    1    3    3    0  502  0.36219732788E+02 -0.72605118197E+01  0.31764312409E+03  0.31981121112E+03  0.41800000000E+01 0. -1.
        -11    1    4    4    0    0 -0.31517840111E+02 -0.16970654690E+01  0.30157995776E+02  0.43654999550E+02  0.00000000000E+00 0.  1.
         11    1    4    4    0    0  0.51173941301E+02 -0.39328847952E+02  0.31924473117E+03  0.32570343709E+03  0.00000000000E+00 0. -1.
</event>
<event>
 8    1  0.3896452E-010  0.1046084E+03  0.7561462E-02  0.1270893E+00
         -2   -1    0    0    0  501 -0.00000000000E+00  0.00000000000E+00  0.16946014020E+02  0.16946014020E+02  0.00000000000E+00 0.  1.
          2   -1    0    0  501    0  0.00000000000E+00 -0.00000000000E+00 -0.81233268520E+03  0.81233268520E+03  0.00000000000E+00 0. -1.
         25    2    1    2    0    0  0.12093404363E+02 -0.54810261727E+01 -0.44305827258E+03  0.46057014588E+03  0.12509170354E+03 0.  0.
         23    2    1    2    0    0 -0.12093404363E+02  0.54810261727E+01 -0.35232839860E+03  0.36870855334E+03  0.10786289803E+03 0.  0.
          5    1    3    3  502    0 -0.76205797356E+01 -0.53473729213E+02 -0.34801669720E+03  0.35220818685E+03  0.41800000000E+01 0.  1.
         -5    1    3    3    0  502  0.19713984099E+02  0.47992703040E+02 -0.95041575385E+02  0.10836195903E+03  0.41800000000E+01 0.  1.
        -11    1    4    4    0    0 -0.57468355154E+02  0.29921017289E+01 -0.13626400712E+03  0.14791701779E+03  0.00000000000E+00 0.  1.
         11    1    4    4    0    0  0.45374950791E+02  0.24889244438E+01 -0.21606439148E+03  0.22079153555E+03  0.00000000000E+00 0. -1.
</event>
<event>
 7    1  0.3896452E-010  0.2280447E+03  0.7561462E-02  0.1128024E+00
          2   -1    0    0  501    0  0.00000000000E+00  0.00000000000E+00  0.50113292530E+03  0.50113292530E+03  0.00000000000E+00 0. -1.
         -2   -1    0    0    0  501 -0.00000000000E+00 -0.00000000000E+00 -0.12920690634E+03  0.12920690634E+03  0.00000000000E+00 0.  1.
         25    2    1    2    0    0 -0.53786237877E+02 -0.19715478455E+03  0.27588880706E+03  0.36541125781E+03  0.12509110685E+03 0.  0.
          5    1    3    3  502    0  0.15922849021E+02 -0.82616609329E+02  0.38239117329E+02  0.92513478759E+02  0.41800000000E+01 0.  1.
         -5    1    3    3    0  502 -0.69709086898E+02 -0.11453817522E+03  0.23764968973E+03  0.27289777905E+03  0.41800000000E+01 0.  1.
        -11    1    1    2    0    0  0.64905113812E+02  0.32349313187E+02 -0.25495220698E+01  0.72564811895E+02  0.00000000000E+00 0. -1.
         11    1    1    2    0    0 -0.11118875935E+02  0.16480547136E+03  0.98586733963E+02  0.19236376194E+03  0.00000000000E+00 0.  1.
</event>
<event>
 7    1  0.3896452E-010  0.1359394E+03  0.7561462E-02  0.1218900E+00
          1   -1    0    0  501    0  0.00000000000E+00  0.00000000000E+00  0.75090458370E+03  0.75090458370E+03  0.00000000000E+00 0. -1.
         -1   -1    0    0    0  501 -0.00000000000E+00 -0.00000000000E+00 -0.32963379039E+02  0.32963379039E+02  0.00000000000E+00 0.  1.
         25    2    1    2    0    0  0.42330773970E+02  0.52104636874E+02  0.51289757834E+03  0.53218260260E+03  0.12509040345E+03 0.  0.
          5    1    3    3  502    0  0.45919905185E+02  0.83260837959E+02  0.25201230881E+03  0.26938574762E+03  0.41800000000E+01 0. -1.
         -5    1    3    3    0  502 -0.35891312152E+01 -0.31156201085E+02  0.26088526953E+03  0.26279685498E+03  0.41800000000E+01 0. -1.
        -11    1    1    2    0    0 -0.19079260193E+02 -0.94663392214E+02  0.14919146449E+03  0.17771682270E+03  0.00000000000E+00 0. -1.
         11    1    1    2    0    0 -0.23251513777E+02  0.42558755340E+02  0.55852161827E+02  0.73968537431E+02  0.00000000000E+00 0.  1.
</event>
<event>
 7    1  0.3896452E-010  0.1305663E+03  0.7561462E-02  0.1226618E+00
          1   -1    0    0  501    0  0.00000000000E+00  0.00000000000E+00  0.50798845567E+03  0.50798845567E+03  0.00000000000E+00 0. -1.
         -1   -1    0    0    0  501 -0.00000000000E+00 -0.00000000000E+00 -0.44009311398E+02  0.44009311398E+02  0.00000000000E+00 0.  1.
         25    2    1    2    0    0 -0.11575324733E+03 -0.11764143531E+02  0.32258516899E+03  0.36502766454E+03  0.12508715079E+03 0.  0.
          5    1    3    3  502    0 -0.59354468113E+02  0.33495971203E+02  0.54605097387E+02  0.87430669862E+02  0.41800000000E+01 0. -1.
         -5    1    3    3    0  502 -0.56398779220E+02 -0.45260114734E+02  0.26798007160E+03  0.27759699468E+03  0.41800000000E+01 0. -1.
        -11    1    1    2    0    0  0.71657274205E+02 -0.79829659241E+01  0.68054103554E+02  0.99145618673E+02  0.00000000000E+00 0.  1.
         11    1    1    2    0    0  0.44095973127E+02  0.19747109455E+02  0.73339871736E+02  0.87824483853E+02  0.00000000000E+00 0. -1.
</event>
<event>
 7    1  0.3896452E-010  0.9682362E+02  0.7561462E-02  0.1287121E+00
         -1   -1    0    0    0  501 -0.00000000000E+00  0.00000000000E+00  0.98368608608E+02  0.98368608608E+02  0.00000000000E+00 0.  1.
          1   -1    0    0  501    0  0.00000000000E+00 -0.00000000000E+00 -0.10486817766E+03  0.10486817766E+03  0.00000000000E+00 0. -1.
         25    2    1    2    0    0  0.28488654306E+02  0.35846141539E+02 -0.25940838984E+01  0.13323159468E+03  0.12508948501E+03 0.  0.
          5    1    3    3  502    0 -0.42984729421E+02  0.29236383532E+02 -0.25117640869E+02  0.57886279619E+02  0.41800000000E+01 0.  1.
         -5    1    3    3    0  502  0.71473383727E+02  0.66097580078E+01  0.22523556971E+02  0.75345315056E+02  0.41800000000E+01 0.  1.
        -11    1    1    2    0    0 -0.34198781458E+02 -0.46372400065E+02 -0.76161672911E+00  0.57624093928E+02  0.00000000000E+00 0.  1.
         11    1    1    2    0    0  0.57101271513E+01  0.10526258526E+02 -0.31438684208E+01  0.12381097661E+02  0.00000000000E+00 0. -1.
</event>
<event>
 8    1  0.3896452E-010  0.2167478E+03  0.7561462E-02  0.1136331E+00
         -1   -1    0    0    0  501 -0.00000000000E+00  0.00000000000E+00  0.30442880861E+02  0.30442880861E+02  0.00000000000E+00 0.  1.
          1   -1    0    0  501    0  0.00000000000E+00 -0.00000000000E+00 -0.19313281655E+04  0.19313281655E+04  0.00000000000E+00 0. -1.
         25    2    1    2    0    0 -0.18717950621E+03 -0.65058574925E+02 -0.13927261961E+04  0.14123029506E+04  0.12507830025E+03 0.  0.
         23    2    1    2    0    0  0.18717950621E+03  0.65058574925E+02 -0.50815908852E+03  0.54946809576E+03  0.66488670465E+02 0.  0.
          5    1    3    3  502    0 -0.14386782837E+03  0.32061503027E+01 -0.68519590536E+03  0.70015650577E+03  0.41800000000E+01 0.  1.
         -5    1    3    3    0  502 -0.43311677835E+02 -0.68264725228E+02 -0.70753029077E+03  0.71214644484E+03  0.41800000000E+01 0.  1.
        -11    1    4    4    0    0  0.13466185122E+03  0.14095038171E+02 -0.31249335881E+03  0.34056509447E+03  0.00000000000E+00 0.  1.
         11    1    4    4    0    0  0.52517654992E+02  0.50963536755E+02 -0.19566572971E+03  0.20890300129E+03  0.00000000000E+00 0. -1.
</event>
<event>
 8    1  0.3896452E-010  0.1317674E+03  0.7561462E-02  0.1224857E+00
          1   -1    0    0  501    0  0.00000000000E+00  0.00000000000E+00  0.23108463295E+03  0.23108463295E+03  0.00000000000E+00 0. -1.
         -1   -1    0    0    0  501 -0.00000000000E+00 -0.00000000000E+00 -0.95073046216E+02  0.95073046216E+02  0.00000000000E+00 0.  1.
         25    2    1    2    0    0 -0.77366211892E+02  0.24981524070E+02  0.81520919771E+02  0.17000854293E+03  0.12509051531E+03 0.  0.
         23    2    1    2    0    0  0.77366211892E+02 -0.24981524070E+02  0.54490666966E+02  0.15614913624E+03  0.12167050865E+03 0.  0.
          5    1    3    3  502    0 -0.33122072361E+02  0.70483136542E+02  0.71142910013E+02  0.10556386815E+03  0.41800000000E+01 0.  1.
         -5    1    3    3    0  502 -0.44244139531E+02 -0.45501612472E+02  0.10378009759E+02  0.64444674776E+02  0.41800000000E+01 0.  1.
        -11    1    4    4    0    0 -0.39728224767E+01 -0.39172675109E+02 -0.20692825778E+02  0.44480049823E+02  0.00000000000E+00 0.  1.
         11    1    4    4    0    0  0.81339034369E+02  0.14191151039E+02  0.75183492744E+02  0.11166908642E+03  0.00000000000E+00 0. -1.
</event>
<event>
 7    1  0.3896452E-010  0.2008637E+03  0.7561462E-02  0.1149012E+00
          1   -1    0    0  501    0  0.00000000000E+00  0.00000000000E+00  0.43398556507E+03  0.43398556507E+03  0.00000000000E+00 0. -1.
         -1   -1    0    0    0  501 -0.00000000000E+00 -0.00000000000E+00 -0.10814802321E+03  0.10814802321E+03  0.00000000000E+00 0.  1.
         25    2    1    2    0    0  0.10593679420E+03  0.12431655409E+03  0.16295045122E+03  0.26244682694E+03  0.12509307507E+03 0.  0.
          5    1    3    3  502    0  0.92116222092E+02  0.18455067653E+02  0.10479588431E+03  0.14080354280E+03  0.41800000000E+01 0.  1.
         -5    1    3    3    0  502  0.13820572105E+02  0.10586148644E+03  0.58154566902E+02  0.12164328414E+03  0.41800000000E+01 0.  1.
        -11    1    1    2    0    0 -0.43914344298E+02  0.16550498402E+02  0.10541648407E+03  0.11539074376E+03  0.00000000000E+00 0. -1.
         11    1    1    2    0    0 -0.62022449899E+02 -0.14086705250E+03  0.57470606573E+02  0.16429601757E+03  0.00000000000E+00 0.  1.
</event>
<event>
 8    1  0.3896452E-010  0.7741453E+02  0.7561462E-02  0.1336553E+00
         -1   -1    0    0    0  501 -0.00000000000E+00  0.00000000000E+00  0.13219106823E+03  0.13219106823E+03  0.00000000000E+00 0.  1.
          1   -1    0    0  501    0  0.00000000000E+00 -0.00000000000E+00 -0.14197266866E+03  0.14197266866E+03  0.00000000000E+00 0. -1.
         25    2    1    2    0    0  0.34367989663E+02 -0.58721069549E+02 -0.66136941226E+02  0.15700420941E+03  0.12508758554E+03 0.  0.
         23    2    1    2    0    0 -0.34367989663E+02  0.58721069549E+02  0.56355340799E+02  0.11715952748E+03  0.76948734368E+02 0.  0.
          5    1    3    3  502    0  0.48046509168E+02 -0.51936674427E+02 -0.98282193543E+02  0.12117238613E+03  0.41800000000E+01 0. -1.
         -5    1    3    3    0  502 -0.13678519505E+02 -0.67843951223E+01  0.32145252317E+02  0.35831823280E+02  0.41800000000E+01 0. -1.
        -11    1    4    4    0    0 -0.13581570017E+02  0.26523967047E+02  0.70317819108E+02  0.76371300605E+02  0.00000000000E+00 0.  1.
         11    1    4    4    0    0 -0.20786419646E+02  0.32197102502E+02 -0.13962478309E+02  0.40788226877E+02  0.00000000000E+00 0. -1.
</event>
<event>
 8    1  0.3896452E-010  0.1332376E+03  0.7561462E-02  0.1222729E+00
          2   -1    0    0  501    0  0.00000000000E+00  0.00000000000E+00  0.10039736007E+04  0.10039736007E+04  0.00000000000E+00 0. -1.
         -2   -1    0    0    0  501 -0.00000000000E+00 -0.00000000000E+00 -0.22051326110E+02  0.22051326110E+02  0.00000000000E+00 0.  1.
         25    2    1    2    0    0  0.86116361540E+02 -0.54072934954E+02  0.70323510725E+03  0.72147546737E+03  0.12508926382E+03 0.  0.
         23    2    1    2    0    0 -0.86116361540E+02  0.54072934954E+02  0.27868716735E+03  0.30454945945E+03  0.68876164153E+02 0.  0.
          5    1    3    3  502    0 -0.48799522082E+01 -0.56074942379E+02  0.14052281813E+03  0.15143430230E+03  0.41800000000E+01 0. -1.
         -5    1    3    3    0  502  0.90996313748E+02  0.20020074251E+01  0.56271228912E+03  0.57004116508E+03  0.41800000000E+01 0. -1.
        -11    1    4    4    0    0 -0.79569041299E+01  0.38384566800E+02  0.13075728549E+03  0.13650697784E+03  0.00000000000E+00 0. -1.
         11    1    4    4    0    0 -0.78159457410E+02  0.15688368154E+02  0.14792988186E+03  0.16804248161E+03  0.00000000000E+00 0.  1.
</event>
<event>
 8    1  0.3896452E-010  0.7652496E+02  0.7561462E-02  0.1339213E+00
          1   -1    0    0  501    0  0.00000000000E+00  0.00000000000E+00  0.14604512308E+03  0.14604512308E+03  0.00000000000E+00 0. -1.
         -1   -1    0    0    0  501 -0.00000000000E+00 -0.00000000000E+00 -0.66692002842E+02  0.66692002842E+02  0.00000000000E+00 0.  1.
         25    2    1    2    0    0 -0.33116438168E+02 -0.15422673927E+02  0.46361919864E+02  0.13831537107E+03  0.12508859626E+03 0.  0.
         23    2    1    2    0    0  0.33116438168E+02  0.15422673927E+02  0.32991200376E+02  0.74421754850E+02  0.55817747578E+02 0.  0.
          5    1    3    3  502    0 -0.40281340377E+02  0.23388610853E+02 -0.27653731673E+02  0.54330606251E+02  0.41800000000E+01 0.  1.
         -5    1    3    3    0  502  0.71649022094E+01 -0.38811284780E+02  0.74015651537E+02  0.83984764823E+02  0.41800000000E+01 0.  1.
        -11    1    4    4    0    0  0.10864606362E+02 -0.21154793524E+02  0.97145843875E+01  0.25689260602E+02  0.00000000000E+00 0.  1.
         11    1    4    4    0    0  0.22251831805E+02  0.36577467450E+02  0.23276615989E+02  0.48732494248E+02  0.00000000000E+00 0. -1.
</event>
<event>
 8    1  0.3896452E-010  0.8479472E+02  0.7561462E-02  0.1315970E+00
         -4   -1    0    0    0  501 -0.00000000000E+00  0.00000000000E+00  0.53461336235E+02  0.53461336235E+02  0.00000000000E+00 0.  1.
          4   -1    0    0  501    0  0.00000000000E+00 -0.00000000000E+00 -0.23276939176E+03  0.23276939176E+03  0.00000000000E+00 0. -1.
         25    2    1    2    0    0  0.32304820574E+02 -0.24100549701E+02 -0.14588852390E+03  0.19635493245E+03  0.12508940869E+03 0.  0.
         23    2    1    2    0    0 -0.32304820574E+02  0.24100549701E+02 -0.33419531626E+02  0.89875795538E+02  0.73050363457E+02 0.  0.
          5    1    3    3  502    0 -0.68928997295E+01  0.35110787980E+02 -0.11182892846E+03  0.11748813191E+03  0.41800000000E+01 0. -1.
         -5    1    3    3    0  502  0.39197720304E+02 -0.59211337681E+02 -0.34059595440E+02  0.78866800547E+02  0.41800000000E+01 0. -1.
        -11    1    4    4    0    0 -0.26683078954E+02 -0.95307522067E+01  0.13892660863E+02  0.31556742005E+02  0.00000000000E+00 0.  1.
         11    1    4    4    0    0 -0.56217416206E+01  0.33631301908E+02 -0.47312192489E+02  0.58319053533E+02  0.00000000000E+00 0. -1.
</event>
<event>
 8    1  0.3896452E-010  0.1233836E+03  0.7561462E-02  0.1237617E+00
         -1   -1    0    0    0  501 -0.00000000000E+00  0.00000000000E+00  0.55264691224E+02  0.55264691224E+02  0.00000000000E+00 0.  1.
          1   -1    0    0  501    0  0.00000000000E+00 -0.00000000000E+00 -0.55725033316E+03  0.55725033316E+03  0.00000000000E+00 0. -1.
         25    2    1    2    0    0 -0.41702580021E+02 -0.80217537589E+01 -0.42544536769E+02  0.13877990367E+03  0.12508545215E+03 0.  0.
         23    2    1    2    0    0  0.41702580021E+02  0.80217537589E+01 -0.45944110517E+03  0.47373512072E+03  0.10740289459E+03 0.  0.
          5    1    3    3  502    0  0.66538199437E+01  0.52950267246E+02 -0.10679799098E+02  0.54585113631E+02  0.41800000000E+01 0. -1.
         -5    1    3    3    0  502 -0.48356399965E+02 -0.60972021005E+02 -0.31864737671E+02  0.84194790040E+02  0.41800000000E+01 0. -1.
        -11    1    4    4    0    0  0.42845467654E+02 -0.45078955167E+02 -0.26124791183E+03  0.26854853888E+03  0.00000000000E+00 0.  1.
         11    1    4    4    0    0 -0.11428876321E+01  0.53100708926E+02 -0.19819319334E+03  0.20518658184E+03  0.00000000000E+00 0. -1.
</event>
<event>
 8    1  0.3896452E-010  0.3265802E+03  0.7561462E-02  0.1072660E+00
         -4   -1    0    0    0  501 -0.00000000000E+00  0.00000000000E+00  0.66377756723E+02  0.66377756723E+02  0.00000000000E+00 0.  1.
          4   -1    0    0  501    0  0.00000000000E+00 -0.00000000000E+00 -0.16228795971E+04  0.16228795971E+04  0.00000000000E+00 0. -1.
         25    2    1    2    0    0  0.99647713818E+02 -0.28529791303E+03 -0.85960142362E+03  0.91972285004E+03  0.12510374635E+03 0.  0.
         23    2    1    2    0    0 -0.99647713818E+02  0.28529791303E+03 -0.69690041676E+03  0.76953450379E+03  0.12324202038E+03 0.  0.
          5    1    3    3  502    0  0.30169273276E+02 -0.24394168448E+03 -0.66247281873E+03  0.70661548132E+03  0.41800000000E+01 0. -1.
         -5    1    3    3    0  502  0.69478440542E+02 -0.41356228547E+02 -0.19712860489E+03  0.21310736872E+03  0.41800000000E+01 0. -1.
        -11    1    4    4    0    0 -0.95342721159E+02  0.90305486619E+02 -0.27904099608E+03  0.30839778353E+03  0.00000000000E+00 0.  1.
         11    1    4    4    0    0 -0.43049926593E+01  0.19499242641E+03 -0.41785942068E+03  0.46113672026E+03  0.00000000000E+00 0. -1.
</event>
<event>
 8    1  0.5893161E-010  0.8498948E+02  0.7561462E-02  0.1315460E+00
         -4   -1    0    0    0  501 -0.00000000000E+00  0.00000000000E+00  0.23703538614E+02  0.23703538614E+02  0.00000000000E+00 0.  1.
          4   -1    0    0  501    0  0.00000000000E+00 -0.00000000000E+00 -0.54419948500E+03  0.54419948500E+03  0.00000000000E+00 0. -1.
         25    2    1    2    0    0 -0.17623983378E+02 -0.33847804685E+02 -0.39458367890E+03  0.41569074123E+03  0.12508490722E+03 0.  0.
         23    2    1    2    0    0  0.17623983378E+02  0.33847804685E+02 -0.12591226749E+03  0.15221228239E+03  0.76540192935E+02 0.  0.
          5    1    3    3  502    0  0.48111199077E+02 -0.25855315934E+01 -0.23935537739E+03  0.24419222251E+03  0.41800000000E+01 0. -1.
         -5    1    3    3    0  502 -0.65735182455E+02 -0.31262273092E+02 -0.15522830152E+03  0.17149851872E+03  0.41800000000E+01 0. -1.
        -11    1    4    4    0    0  0.75165051227E+01  0.37281915332E+02 -0.13369643989E+03  0.13900063705E+03  0.00000000000E+00 0. -1.
         11    1    4    4    0    0  0.10107478255E+02 -0.34341106465E+01  0.77841724047E+01  0.13211645342E+02  0.00000000000E+00 0.  1.
</event>
<event>
 7    1  0.3896452E-010  0.1185020E+03  0.7561462E-02  0.1245589E+00
         -2   -1    0    0    0  501 -0.00000000000E+00  0.00000000000E+00  0.11961486665E+03  0.11961486665E+03  0.00000000000E+00 0.  1.
          2   -1    0    0  501    0  0.00000000000E+00 -0.00000000000E+00 -0.18505389829E+03  0.18505389829E+03  0.00000000000E+00 0. -1.
         25    2    1    2    0    0  0.12890382636E+02 -0.10823022369E+03  0.13683039782E+02  0.16647714363E+03  0.12508984966E+03 0.  0.
          5    1    3    3  502    0  0.38779904537E+02 -0.63511145229E+02 -0.45873659682E+02  0.87518064517E+02  0.41800000000E+01 0. -1.
         -5    1    3    3    0  502 -0.25889521901E+02 -0.44719078461E+02  0.59556699464E+02  0.78959079109E+02  0.41800000000E+01 0. -1.
        -11    1    1    2    0    0 -0.14001822118E+02  0.39797928496E+02 -0.16108661170E+02  0.45159883746E+02  0.00000000000E+00 0.  1.
         11    1    1    2    0    0  0.11114394823E+01  0.68432295193E+02 -0.63013410256E+02  0.93031737570E+02  0.00000000000E+00 0. -1.
</event>
<event>
 8    1  0.3896452E-010  0.1194674E+03  0.7561462E-02  0.1243978E+00
          2   -1    0    0  501    0  0.00000000000E+00  0.00000000000E+00  0.54809004950E+03  0.54809004950E+03  0.00000000000E+00 0.  1.
         -2   -1    0    0    0  501 -0.00000000000E+00 -0.00000000000E+00 -0.36431371215E+02  0.36431371215E+02  0.00000000000E+00 0. -1.
         25    2    1    2    0    0 -0.44538513743E+02 -0.87514956937E+02  0.35541566942E+03  0.38937160940E+03  0.12508958885E+03 0.  0.
         23    2    1    2    0    0  0.44538513743E+02  0.87514956937E+02  0.15624300886E+03  0.19514981132E+03  0.63474594484E+02 0.  0.
          5    1    3    3  502    0  0.74512765503E+01  0.10374932602E+02 -0.33499262227E+01  0.13851178810E+02  0.41800000000E+01 0.  1.
         -5    1    3    3    0  502 -0.51989790294E+02 -0.97889889540E+02  0.35876559565E+03  0.37552043059E+03  0.41800000000E+01 0.  1.
        -11    1    4    4    0    0  0.51108926686E+02  0.35690429621E+02  0.10411976420E+03  0.12135425189E+03  0.00000000000E+00 0.  1.
         11    1    4    4    0    0 -0.65704129423E+01  0.51824527317E+02  0.52123244659E+02  0.73795559430E+02  0.00000000000E+00 0. -1.
</event>
<event>
 8    1  0.3896452E-010  0.6598334E+02  0.7561462E-02  0.1374310E+00
          1   -1    0    0  501    0  0.00000000000E+00  0.00000000000E+00  0.80976246062E+02  0.80976246062E+02  0.00000000000E+00 0. -1.
         -1   -1    0    0    0  501 -0.00000000000E+00 -0.00000000000E+00 -0.12719262526E+03  0.12719262526E+03  0.00000000000E+00 0.  1.
         25    2    1    2    0    0  0.72278262626E+01  0.16899113015E+02 -0.23435315314E+02  0.12858730100E+03  0.12509060110E+03 0.  0.
         23    2    1    2    0    0 -0.72278262626E+01 -0.16899113015E+02 -0.22781063882E+02  0.79581570316E+02  0.74002891627E+02 0.  0.
          5    1    3    3  502    0  0.25077932726E+02  0.37235176253E+02  0.39507503376E+02  0.59947279200E+02  0.41800000000E+01 0. -1.
         -5    1    3    3    0  502 -0.17850106464E+02 -0.20336063238E+02 -0.62942818690E+02  0.68640021805E+02  0.41800000000E+01 0. -1.
        -11    1    4    4    0    0  0.20891968459E+02 -0.22633062775E+02 -0.36510872441E+02  0.47767914787E+02  0.00000000000E+00 0.  1.
         11    1    4    4    0    0 -0.28119794722E+02  0.57339497599E+01  0.13729808559E+02  0.31813655529E+02  0.00000000000E+00 0. -1.
</event>
<event>
 7    1  0.3896452E-010  0.9878609E+02  0.7561462E-02  0.1282870E+00
         -1   -1    0    0    0  501 -0.00000000000E+00  0.00000000000E+00  0.51103499633E+02  0.51103499633E+02  0.00000000000E+00 0.  1.
          1   -1    0    0  501    0  0.00000000000E+00 -0.00000000000E+00 -0.33310158830E+03  0.33310158830E+03  0.00000000000E+00 0. -1.
         25    2    1    2    0    0  0.70931699509E+01  0.21218555927E+00 -0.12238140539E+03  0.17514274756E+03  0.12508963008E+03 0.  0.
          5    1    3    3  502    0  0.31080166484E+02 -0.44744113629E+02 -0.10956619434E+03  0.12243461846E+03  0.41800000000E+01 0. -1.
         -5    1    3    3    0  502 -0.23986996533E+02  0.44956299188E+02 -0.12815211047E+02  0.52708129103E+02  0.41800000000E+01 0. -1.
        -11    1    1    2    0    0 -0.32103732513E+02  0.35719872964E+02 -0.15812486430E+03  0.16525747086E+03  0.00000000000E+00 0. -1.
         11    1    1    2    0    0  0.25010562562E+02 -0.35932058523E+02 -0.14918189767E+01  0.43804869515E+02  0.00000000000E+00 0.  1.
</event>
<event>
 8    1  0.3896452E-010  0.1829686E+03  0.7561462E-02  0.1164961E+00
          2   -1    0    0  501    0  0.00000000000E+00  0.00000000000E+00  0.36139773520E+03  0.36139773520E+03  0.00000000000E+00 0. -1.
         -2   -1    0    0    0  501 -0.00000000000E+00 -0.00000000000E+00 -0.10866001352E+03  0.10866001352E+03  0.00000000000E+00 0.  1.
         25    2    1    2    0    0 -0.13189540239E+03  0.83668702167E+02  0.16434991357E+03  0.25895052673E+03  0.12509049648E+03 0.  0.
         23    2    1    2    0    0  0.13189540239E+03 -0.83668702167E+02  0.88387808113E+02  0.21110722199E+03  0.11116206933E+03 0.  0.
          5    1    3    3  502    0 -0.13943166337E+03  0.10363420418E+03  0.16109821227E+03  0.23696274691E+03  0.41800000000E+01 0.  1.
         -5    1    3    3    0  502  0.75362609736E+01 -0.19965502016E+02  0.32517013039E+01  0.21987779824E+02  0.41800000000E+01 0.  1.
        -11    1    4    4    0    0  0.72761407412E+02 -0.62994286423E+01 -0.87578566595E+01  0.73556816564E+02  0.00000000000E+00 0.  1.
         11    1    4    4    0    0  0.59133994982E+02 -0.77369273525E+02  0.97145664772E+02  0.13755040542E+03  0.00000000000E+00 0. -1.
</event>
<event>
 8    1  0.3896452E-010  0.1265469E+03  0.7561462E-02  0.1232671E+00
         -1   -1    0    0    0  501 -0.00000000000E+00  0.00000000000E+00  0.24377622502E+03  0.24377622502E+03  0.00000000000E+00 0.  1.
          1   -1    0    0  501    0  0.00000000000E+00 -0.00000000000E+00 -0.87031972064E+02  0.87031972064E+02  0.00000000000E+00 0. -1.
         25    2    1    2    0    0 -0.67327366821E+02 -0.11775295851E+02  0.14694332221E+03  0.20472353870E+03  0.12509098865E+03 0.  0.
         23    2    1    2    0    0  0.67327366821E+02  0.11775295851E+02  0.98009307441E+01  0.12608465838E+03  0.10549716072E+03 0.  0.
          5    1    3    3  502    0 -0.32754913976E+02  0.55860521152E+02  0.52613524114E+02  0.83540035508E+02  0.41800000000E+01 0. -1.
         -5    1    3    3    0  502 -0.34572452845E+02 -0.67635817003E+02  0.94329798094E+02  0.12118350319E+03  0.41800000000E+01 0. -1.
        -11    1    4    4    0    0 -0.13055826785E+02  0.27299107828E+02  0.29089181773E+02  0.41974711404E+02  0.00000000000E+00 0.  1.
         11    1    4    4    0    0  0.80383193606E+02 -0.15523811977E+02 -0.19288251029E+02  0.84109946976E+02  0.00000000000E+00 0. -1.
</event>
<event>
 8    1  0.3896452E-010  0.6332037E+02  0.7561462E-02  0.1384403E+00
          1   -1    0    0  501    0  0.00000000000E+00  0.00000000000E+00  0.39564027309E+03  0.39564027309E+03  0.00000000000E+00 0. -1.
         -1   -1    0    0    0  501 -0.00000000000E+00 -0.00000000000E+00 -0.30606893324E+02  0.30606893324E+02  0.00000000000E+00 0.  1.
         25    2    1    2    0    0  0.29973026209E+02  0.38410646664E+02  0.21399169593E+03  0.25261387987E+03  0.12509023262E+03 0.  0.
         23    2    1    2    0    0 -0.29973026209E+02 -0.38410646664E+02  0.15104168384E+03  0.17363328655E+03  0.70435558239E+02 0.  0.
          5    1    3    3  502    0  0.17966561919E+02  0.50029604270E+02  0.22561848268E+03  0.23183384304E+03  0.41800000000E+01 0.  1.
         -5    1    3    3    0  502  0.12006464290E+02 -0.11618957607E+02 -0.11626786748E+02  0.20780036831E+02  0.41800000000E+01 0.  1.
        -11    1    4    4    0    0 -0.97476612249E+01  0.28406724006E+01 -0.47494656723E+01  0.11209091989E+02  0.00000000000E+00 0.  1.
         11    1    4    4    0    0 -0.20225364984E+02 -0.41251319064E+02  0.15579114951E+03  0.16242419456E+03  0.00000000000E+00 0. -1.
</event>
<event>
 8    1  0.3896452E-010  0.1011678E+03  0.7561462E-02  0.1277859E+00
         -2   -1    0    0    0  501 -0.00000000000E+00  0.00000000000E+00  0.24458007524E+03  0.24458007524E+03  0.00000000000E+00 0.  1.
          2   -1    0    0  501    0  0.00000000000E+00 -0.00000000000E+00 -0.77362710934E+02  0.77362710934E+02  0.00000000000E+00 0. -1.
         25    2    1    2    0    0 -0.30881592314E+01  0.39129545606E+02  0.14891841468E+03  0.19840584007E+03  0.12509006785E+03 0.  0.
         23    2    1    2    0    0  0.30881592314E+01 -0.39129545606E+02  0.18298949627E+02  0.12353694611E+03  0.11569730952E+03 0.  0.
          5    1    3    3  502    0 -0.29309988424E+02  0.77072753524E+02  0.11220206018E+03  0.13930563329E+03  0.41800000000E+01 0.  1.
         -5    1    3    3    0  502  0.26221829193E+02 -0.37943207918E+02  0.36716354501E+02  0.59100206777E+02  0.41800000000E+01 0.  1.
        -11    1    4    4    0    0  0.16643471303E+02  0.12029795212E+02  0.55280595056E+02  0.58971733055E+02  0.00000000000E+00 0.  1.
         11    1    4    4    0    0 -0.13555312072E+02 -0.51159340818E+02 -0.36981645428E+02  0.64565213055E+02  0.00000000000E+00 0. -1.
</event>
<event>
 8    1  0.3896452E-010  0.8460550E+02  0.7561462E-02  0.1316467E+00
          1   -1    0    0  501    0  0.00000000000E+00  0.00000000000E+00  0.25039423020E+02  0.25039423020E+02  0.00000000000E+00 0. -1.
         -1   -1    0    0    0  501 -0.00000000000E+00 -0.00000000000E+00 -0.66416195020E+03  0.66416195020E+03  0.00000000000E+00 0.  1.
         25    2    1    2    0    0 -0.55365627790E+02 -0.53360032444E+01 -0.30297964922E+03  0.33247353064E+03  0.12509258598E+03 0.  0.
         23    2    1    2    0    0  0.55365627790E+02  0.53360032444E+01 -0.33614287796E+03  0.35672784258E+03  0.10568298631E+03 0.  0.
          5    1    3    3  502    0 -0.52329111306E+02 -0.15900286144E+02 -0.31254066842E+03  0.31731734400E+03  0.41800000000E+01 0.  1.
         -5    1    3    3    0  502 -0.30365164835E+01  0.10564282899E+02  0.95610191953E+01  0.15156186644E+02  0.41800000000E+01 0.  1.
        -11    1    4    4    0    0  0.59584787696E+02  0.37340752755E+02 -0.30059187891E+03  0.30870723414E+03  0.00000000000E+00 0.  1.
         11    1    4    4    0    0 -0.42191599060E+01 -0.32004749510E+02 -0.35550999052E+02  0.48020608442E+02  0.00000000000E+00 0. -1.
</event>
<event>
 8    1  0.3896452E-010  0.1190351E+03  0.7561462E-02  0.1244697E+00
         -1   -1    0    0    0  501 -0.00000000000E+00  0.00000000000E+00  0.14280833579E+02  0.14280833579E+02  0.00000000000E+00 0.  1.
          1   -1    0    0  501    0  0.00000000000E+00 -0.00000000000E+00 -0.12360898546E+04  0.12360898546E+04  0.00000000000E+00 0. -1.
         25    2    1    2    0    0 -0.27141531225E+02  0.41472691616E+02 -0.80674429252E+03  0.81788776511E+03  0.12508955166E+03 0.  0.
         23    2    1    2    0    0  0.27141531225E+02 -0.41472691616E+02 -0.41506472848E+03  0.43248292305E+03  0.11093287625E+03 0.  0.
          5    1    3    3  502    0 -0.72636386267E+02  0.37681512447E+02 -0.62953748248E+03  0.63484711170E+03  0.41800000000E+01 0.  1.
         -5    1    3    3    0  502  0.45494855042E+02  0.37911791690E+01 -0.17720681004E+03  0.18304065341E+03  0.41800000000E+01 0.  1.
        -11    1    4    4    0    0  0.60160752034E+02 -0.39227031808E+01 -0.13308113586E+03  0.14610028203E+03  0.00000000000E+00 0.  1.
         11    1    4    4    0    0 -0.33019220808E+02 -0.37549988436E+02 -0.28198359262E+03  0.28638264103E+03  0.00000000000E+00 0. -1.
</event>
<event>
 8    1  0.3896452E-010  0.9585159E+02  0.7561462E-02  0.1289270E+00
         -1   -1    0    0    0  501 -0.00000000000E+00  0.00000000000E+00  0.18301588833E+03  0.18301588833E+03  0.00000000000E+00 0.  1.
          1   -1    0    0  501    0  0.00000000000E+00 -0.00000000000E+00 -0.72281082340E+02  0.72281082340E+02  0.00000000000E+00 0. -1.
         25    2    1    2    0    0 -0.70072509010E+00 -0.48441037935E+01  0.45290736553E+01  0.12527592153E+03  0.12509831194E+03 0.  0.
         23    2    1    2    0    0  0.70072509010E+00  0.48441037935E+01  0.10620573233E+03  0.13002104914E+03  0.74845569548E+02 0.  0.
          5    1    3    3  502    0 -0.18062887050E+02 -0.57881031330E+02 -0.20263996449E+02  0.64067024501E+02  0.41800000000E+01 0. -1.
         -5    1    3    3    0  502  0.17362161960E+02  0.53036927536E+02  0.24793070104E+02  0.61208897030E+02  0.41800000000E+01 0. -1.
        -11    1    4    4    0    0  0.21833654790E+02  0.33115594276E+02  0.53997865749E+02  0.67000899779E+02  0.00000000000E+00 0.  1.
         11    1    4    4    0    0 -0.21132929700E+02 -0.28271490482E+02  0.52207866583E+02  0.63020149356E+02  0.00000000000E+00 0. -1.
</event>
<event>
 8    1  0.3896452E-010  0.8105807E+02  0.7561462E-02  0.1326075E+00
         -1   -1    0    0    0  501 -0.00000000000E+00  0.00000000000E+00  0.39690713564E+02  0.39690713564E+02  0.00000000000E+00 0.  1.
          1   -1    0    0  501    0  0.00000000000E+00 -0.00000000000E+00 -0.33426516040E+03  0.33426516040E+03  0.00000000000E+00 0. -1.
         25    2    1    2    0    0  0.31292292402E+01 -0.52060779018E+02 -0.15048370809E+03  0.20251676757E+03  0.12509027924E+03 0.  0.
         23    2    1    2    0    0 -0.31292292402E+01  0.52060779018E+02 -0.14409073875E+03  0.17143910639E+03  0.76870731884E+02 0.  0.
          5    1    3    3  502    0 -0.36422891485E+02 -0.57526172580E+02 -0.28205326655E+02  0.73816667546E+02  0.41800000000E+01 0.  1.
         -5    1    3    3    0  502  0.39552120725E+02  0.54653935619E+01 -0.12227838143E+03  0.12870010002E+03  0.41800000000E+01 0.  1.
        -11    1    4    4    0    0 -0.82376241720E+01  0.30049069806E+02 -0.14549980147E+03  0.14879851234E+03  0.00000000000E+00 0. -1.
         11    1    4    4    0    0  0.51083949318E+01  0.22011709212E+02  0.14090627198E+01  0.22640594051E+02  0.00000000000E+00 0.  1.
</event>
<event>
 8    1  0.3896452E-010  0.2085633E+03  0.7561462E-02  0.1142709E+00
          1   -1    0    0  501    0  0.00000000000E+00  0.00000000000E+00  0.60017647761E+03  0.60017647761E+03  0.00000000000E+00 0. -1.
         -1   -1    0    0    0  501 -0.00000000000E+00 -0.00000000000E+00 -0.11964290034E+03  0.11964290034E+03  0.00000000000E+00 0.  1.
         25    2    1    2    0    0 -0.20660581733E+02 -0.18387442822E+03  0.38532240665E+02  0.22664892324E+03  0.12509330856E+03 0.  0.
         23    2    1    2    0    0  0.20660581733E+02  0.18387442822E+03  0.44200133661E+03  0.49317045471E+03  0.11668440702E+03 0.  0.
          5    1    3    3  502    0 -0.45600098469E+02 -0.85696106856E+02 -0.32952091118E+02  0.10259875447E+03  0.41800000000E+01 0.  1.
         -5    1    3    3    0  502  0.24939516736E+02 -0.98178321363E+02  0.71484331783E+02  0.12405016877E+03  0.41800000000E+01 0.  1.
        -11    1    4    4    0    0  0.61128593075E+02  0.50776059793E+02  0.15143715374E+03  0.17102083110E+03  0.00000000000E+00 0. -1.
         11    1    4    4    0    0 -0.40468011343E+02  0.13309836843E+03  0.29056418287E+03  0.32214962360E+03  0.00000000000E+00 0.  1.
</event>
<event>
 8    1  0.4522565E-010  0.1340384E+03  0.7561462E-02  0.1221584E+00
         -3   -1    0    0    0  501 -0.00000000000E+00  0.00000000000E+00  0.19691163106E+02  0.19691163106E+02  0.00000000000E+00 0. -1.
          3   -1    0    0  501    0  0.00000000000E+00 -0.00000000000E+00 -0.12533193046E+04  0.12533193046E+04  0.00000000000E+00 0.  1.
         25    2    1    2    0    0 -0.46298810905E+02 -0.88459204968E+02 -0.93733365116E+03  0.95089961247E+03  0.12508832301E+03 0.  0.
         23    2    1    2    0    0  0.46298810905E+02  0.88459204968E+02 -0.29629449034E+03  0.32211085525E+03  0.77436213935E+02 0.  0.
          5    1    3    3  502    0 -0.64145816870E+02 -0.10615666049E+03 -0.87177091524E+03  0.88056000559E+03  0.41800000000E+01 0. -1.
         -5    1    3    3    0  502  0.17847005964E+02  0.17697455520E+02 -0.65562735921E+02  0.70339606874E+02  0.41800000000E+01 0. -1.
        -11    1    4    4    0    0  0.50833663488E+02  0.28329122294E+02 -0.20173147053E+03  0.20995758314E+03  0.00000000000E+00 0.  1.
         11    1    4    4    0    0 -0.45348525822E+01  0.60130082674E+02 -0.94563019809E+02  0.11215327211E+03  0.00000000000E+00 0. -1.
</event>
<event>
 8    1  0.3896452E-010  0.1567953E+03  0.7561462E-02  0.1192363E+00
          1   -1    0    0  501    0  0.00000000000E+00  0.00000000000E+00  0.49216978143E+03  0.49216978143E+03  0.00000000000E+00 0. -1.
         -1   -1    0    0    0  501 -0.00000000000E+00 -0.00000000000E+00 -0.62602396259E+02  0.62602396259E+02  0.00000000000E+00 0.  1.
         25    2    1    2    0    0 -0.71610547487E+02  0.97266872453E+02  0.24418931545E+03  0.29977444839E+03  0.12508950053E+03 0.  0.
         23    2    1    2    0    0  0.71610547487E+02 -0.97266872453E+02  0.18537806972E+03  0.25499772930E+03  0.12676710229E+03 0.  0.
          5    1    3    3  502    0  0.21541246302E+02  0.69164536005E+02  0.13644185938E+03  0.15453676496E+03  0.41800000000E+01 0.  1.
         -5    1    3    3    0  502 -0.93151793789E+02  0.28102336448E+02  0.10774745606E+03  0.14523768343E+03  0.41800000000E+01 0.  1.
        -11    1    4    4    0    0  0.63276291808E+02 -0.20633933030E+02  0.15336769439E+02  0.68299815476E+02  0.00000000000E+00 0.  1.
         11    1    4    4    0    0  0.83342556785E+01 -0.76632939423E+02  0.17004130029E+03  0.18669791382E+03  0.00000000000E+00 0. -1.
</event>
<event>
 8    1  0.3896452E-010  0.1095039E+03  0.7561462E-02  0.1261491E+00
         -1   -1    0    0    0  501 -0.00000000000E+00  0.00000000000E+00  0.18911832036E+03  0.18911832036E+03  0.00000000000E+00 0.  1.
          1   -1    0    0  501    0  0.00000000000E+00 -0.00000000000E+00 -0.10859373605E+03  0.10859373605E+03  0.00000000000E+00 0. -1.
         25    2    1    2    0    0  0.22189393368E+02 -0.21759295259E+02  0.11905936015E+03  0.17546614840E+03  0.12508957546E+03 0.  0.
         23    2    1    2    0    0 -0.22189393368E+02  0.21759295259E+02 -0.38534775833E+02  0.12224590800E+03  0.11177341798E+03 0.  0.
          5    1    3    3  502    0  0.37511725125E+02 -0.56654597088E+02  0.22702269013E+02  0.71761677178E+02  0.41800000000E+01 0.  1.
         -5    1    3    3    0  502 -0.15322331757E+02  0.34895301828E+02  0.96357091134E+02  0.10370447122E+03  0.41800000000E+01 0.  1.
        -11    1    4    4    0    0  0.35196426236E+02 -0.21038109583E+02 -0.12458234251E+00  0.41004950864E+02  0.00000000000E+00 0.  1.
         11    1    4    4    0    0 -0.57385819604E+02  0.42797404842E+02 -0.38410193491E+02  0.81240957139E+02  0.00000000000E+00 0. -1.
</event>
<event>
 7    1  0.3896452E-010  0.1480846E+03  0.7561462E-02  0.1202847E+00
         -2   -1    0    0    0  501 -0.00000000000E+00  0.00000000000E+00  0.26479540234E+02  0.26479540234E+02  0.00000000000E+00 0. -1.
          2   -1    0    0  501    0  0.00000000000E+00 -0.00000000000E+00 -0.98817002236E+03  0.98817002236E+03  0.00000000000E+00 0.  1.
         25    2    1    2    0    0  0.80885566960E+02  0.19049380284E+02 -0.32509334922E+03  0.35810432957E+03  0.12509065240E+03 0.  0.
          5    1    3    3  502    0  0.25566951143E+02  0.65209774200E+02 -0.21758431705E+03  0.22861843992E+03  0.41800000000E+01 0. -1.
         -5    1    3    3    0  502  0.55318615816E+02 -0.46160393916E+02 -0.10750903216E+03  0.12948588965E+03  0.41800000000E+01 0. -1.
        -11    1    1    2    0    0 -0.11667577524E+03 -0.17754941077E+02 -0.55540028876E+03  0.56780098205E+03  0.00000000000E+00 0.  1.
         11    1    1    2    0    0  0.35790208282E+02 -0.12944392072E+01 -0.81196844151E+02  0.88744250979E+02  0.00000000000E+00 0. -1.
</event>
<event>
 8    1  0.3896452E-010  0.8347538E+02  0.7561462E-02  0.1319468E+00
         -1   -1    0    0    0  501 -0.00000000000E+00  0.00000000000E+00  0.34284725904E+02  0.34284725904E+02  0.00000000000E+00 0.  1.
          1   -1    0    0  501    0  0.00000000000E+00 -0.00000000000E+00 -0.30736158496E+03  0.30736158496E+03  0.00000000000E+00 0. -1.
         25    2    1    2    0    0  0.19487889867E+01 -0.12969879911E+02 -0.14628141093E+03  0.19292276399E+03  0.12509566787E+03 0.  0.
         23    2    1    2    0    0 -0.19487889867E+01  0.12969879911E+02 -0.12679544812E+03  0.14872354687E+03  0.76613263631E+02 0.  0.
          5    1    3    3  502    0 -0.47910418758E+02  0.25570751392E+02 -0.10250511126E+03  0.11607774027E+03  0.41800000000E+01 0. -1.
         -5    1    3    3    0  502  0.49859207744E+02 -0.38540631303E+02 -0.43776299669E+02  0.76845023722E+02  0.41800000000E+01 0. -1.
        -11    1    4    4    0    0  0.17709167618E+02 -0.89836738761E+01 -0.11545182310E+03  0.11714710612E+03  0.00000000000E+00 0. -1.
         11    1    4    4    0    0 -0.19657956605E+02  0.21953553787E+02 -0.11343625021E+02  0.31576440749E+02  0.00000000000E+00 0.  1.
</event>
<event>
 7    1  0.3896452E-010  0.8265145E+02  0.7561462E-02  0.1321691E+00
          1   -1    0    0  501    0  0.00000000000E+00  0.00000000000E+00  0.36248467396E+03  0.36248467396E+03  0.00000000000E+00 0. -1.
         -1   -1    0    0    0  501 -0.00000000000E+00 -0.00000000000E+00 -0.58208604334E+02  0.58208604334E+02  0.00000000000E+00 0.  1.
         25    2    1    2    0    0 -0.40310012835E+02  0.22117465181E+02  0.12143336486E+03  0.18029972794E+03  0.12509136818E+03 0.  0.
          5    1    3    3  502    0 -0.29818892804E+01 -0.84122328317E+01 -0.24574823246E+02  0.26477380204E+02  0.41800000000E+01 0.  1.
         -5    1    3    3    0  502 -0.37328123555E+02  0.30529698012E+02  0.14600818811E+03  0.15382234774E+03  0.41800000000E+01 0.  1.
        -11    1    1    2    0    0  0.54248113114E+02 -0.51325520533E+02  0.19261600597E+03  0.20658676770E+03  0.00000000000E+00 0. -1.
         11    1    1    2    0    0 -0.13938100279E+02  0.29208055353E+02 -0.97733012034E+01  0.33806782652E+02  0.00000000000E+00 0.  1.
</event>
<event>
 7    1  0.3896452E-010  0.8281649E+02  0.7561462E-02  0.1321243E+00
         -3   -1    0    0    0  501 -0.00000000000E+00  0.00000000000E+00  0.27444955509E+03  0.27444955509E+03  0.00000000000E+00 0.  1.
          3   -1    0    0  501    0  0.00000000000E+00 -0.00000000000E+00 -0.39225075803E+02  0.39225075803E+02  0.00000000000E+00 0. -1.
         25    2    1    2    0    0 -0.29877668499E+02 -0.65359843213E+01  0.23608811184E+03  0.26891732149E+03  0.12507411834E+03 0.  0.
          5    1    3    3  502    0  0.44515606055E+01  0.52739175971E+02  0.61045010132E+02  0.80902427256E+02  0.41800000000E+01 0.  1.
         -5    1    3    3    0  502 -0.34329229104E+02 -0.59275160292E+02  0.17504310171E+03  0.18801489424E+03  0.41800000000E+01 0.  1.
        -11    1    1    2    0    0  0.13837129485E+02 -0.12760436824E+02  0.38840332225E+01  0.19219277156E+02  0.00000000000E+00 0.  1.
         11    1    1    2    0    0  0.16040539014E+02  0.19296421146E+02 -0.47476657716E+01  0.25538032249E+02  0.00000000000E+00 0. -1.
</event>
<event>
 8    1  0.3896452E-010  0.1677177E+03  0.7561462E-02  0.1180249E+00
         -2   -1    0    0    0  501 -0.00000000000E+00  0.00000000000E+00  0.30763821210E+03  0.30763821210E+03  0.00000000000E+00 0.  1.
          2   -1    0    0  501    0  0.00000000000E+00 -0.00000000000E+00 -0.13569963674E+03  0.13569963674E+03  0.00000000000E+00 0. -1.
         25    2    1    2    0    0 -0.96854551164E+02 -0.72431383164E+02 -0.33697953306E+02  0.17724086491E+03  0.12510660569E+03 0.  0.
         23    2    1    2    0    0  0.96854551164E+02  0.72431383164E+02  0.20563652867E+03  0.26609698393E+03  0.11787329462E+03 0.  0.
          5    1    3    3  502    0 -0.12431902555E+02  0.31574876622E+02  0.11072050565E+02  0.35938666343E+02  0.41800000000E+01 0.  1.
         -5    1    3    3    0  502 -0.84422648609E+02 -0.10400625979E+03 -0.44770003871E+02  0.14130219857E+03  0.41800000000E+01 0.  1.
        -11    1    4    4    0    0  0.11228626808E+03  0.21919151258E+02  0.12262023190E+03  0.16770323927E+03  0.00000000000E+00 0. -1.
         11    1    4    4    0    0 -0.15431716912E+02  0.50512231906E+02  0.83016296764E+02  0.98393744656E+02  0.00000000000E+00 0.  1.
</event>
<event>
 8    1  0.3896452E-010  0.1243573E+03  0.7561462E-02  0.1236077E+00
         -2   -1    0    0    0  501 -0.00000000000E+00  0.00000000000E+00  0.12855839852E+02  0.12855839852E+02  0.00000000000E+00 0.  1.
          2   -1    0    0  501    0  0.00000000000E+00 -0.00000000000E+00 -0.14743112964E+04  0.14743112964E+04  0.00000000000E+00 0. -1.
         25    2    1    2    0    0 -0.48728995819E+02 -0.38178065259E+02 -0.93966946995E+03  0.94998038339E+03  0.12510769910E+03 0.  0.
         23    2    1    2    0    0  0.48728995819E+02  0.38178065259E+02 -0.52178598656E+03  0.53718675282E+03  0.11170009819E+03 0.  0.
          5    1    3    3  502    0 -0.64138639034E+02 -0.67784228184E+02 -0.47518832785E+03  0.48428285736E+03  0.41800000000E+01 0.  1.
         -5    1    3    3    0  502  0.15409643214E+02  0.29606162925E+02 -0.46448114210E+03  0.46569752603E+03  0.41800000000E+01 0.  1.
        -11    1    4    4    0    0 -0.21043924795E+02  0.46845990358E+02 -0.14327086196E+03  0.15219702189E+03  0.00000000000E+00 0.  1.
         11    1    4    4    0    0  0.69772920614E+02 -0.86679250985E+01 -0.37851512460E+03  0.38498973094E+03  0.00000000000E+00 0. -1.
</event>
<event>
 7    1  0.3896452E-010  0.1768947E+03  0.7561462E-02  0.1170843E+00
         -1   -1    0    0    0  501 -0.00000000000E+00  0.00000000000E+00  0.11088946898E+03  0.11088946898E+03  0.00000000000E+00 0.  1.
          1   -1    0    0  501    0  0.00000000000E+00 -0.00000000000E+00 -0.44252361546E+03  0.44252361546E+03  0.00000000000E+00 0. -1.
         25    2    1    2    0    0  0.11497534095E+03 -0.10235443736E+03 -0.28420574204E+03  0.34657862950E+03  0.12509229691E+03 0.  0.
          5    1    3    3  502    0  0.77355910584E+02 -0.58318229435E+02 -0.57890156242E+02  0.11293226012E+03  0.41800000000E+01 0.  1.
         -5    1    3    3    0  502  0.37619430370E+02 -0.44036207928E+02 -0.22631558580E+03  0.23364636938E+03  0.41800000000E+01 0.  1.
        -11    1    1    2    0    0  0.34053013665E+01  0.77775553156E+02 -0.34791133452E+02  0.85270485591E+02  0.00000000000E+00 0. -1.
         11    1    1    2    0    0 -0.11838064232E+03  0.24578884208E+02 -0.12637270996E+02  0.12156396935E+03  0.00000000000E+00 0.  1.
</event>
<event>
 8    1  0.3896452E-010  0.2127803E+03  0.7561462E-02  0.1139383E+00
          2   -1    0    0  501    0  0.00000000000E+00  0.00000000000E+00  0.11287964696E+04  0.11287964696E+04  0.00000000000E+00 0. -1.
         -2   -1    0    0    0  501 -0.00000000000E+00 -0.00000000000E+00 -0.58091854204E+02  0.58091854204E+02  0.00000000000E+00 0.  1.
         25    2    1    2    0    0  0.63760077362E+02  0.19818839654E+03  0.81920134866E+03  0.85444954314E+03  0.12509669917E+03 0.  0.
         23    2    1    2    0    0 -0.63760077362E+02 -0.19818839654E+03  0.25150326672E+03  0.33243878065E+03  0.62591227180E+02 0.  0.
          5    1    3    3  502    0  0.17364583831E+02  0.66616783507E+02  0.51691547388E+03  0.52149631269E+03  0.41800000000E+01 0. -1.
         -5    1    3    3    0  502  0.46395493531E+02  0.13157161303E+03  0.30228587478E+03  0.33295323044E+03  0.41800000000E+01 0. -1.
        -11    1    4    4    0    0  0.30413899545E+01 -0.88741878548E+02  0.11265920301E+03  0.14344499672E+03  0.00000000000E+00 0.  1.
         11    1    4    4    0    0 -0.66801467317E+02 -0.10944651799E+03  0.13884406372E+03  0.18899378393E+03  0.00000000000E+00 0. -1.
</event>
<event>
 7    1  0.3896452E-010  0.1328509E+03  0.7561462E-02  0.1223286E+00
          1   -1    0    0  501    0  0.00000000000E+00  0.00000000000E+00  0.73725825558E+02  0.73725825558E+02  0.00000000000E+00 0. -1.
         -1   -1    0    0    0  501 -0.00000000000E+00 -0.00000000000E+00 -0.24812151441E+03  0.24812151441E+03  0.00000000000E+00 0.  1.
         25    2    1    2    0    0  0.30785113645E+02  0.28993500170E+02 -0.84323683758E+02  0.15665824270E+03  0.12507187969E+03 0.  0.
          5    1    3    3  502    0  0.65156180955E+02  0.54301953497E+02 -0.36533627093E+02  0.92445705032E+02  0.41800000000E+01 0.  1.
         -5    1    3    3    0  502 -0.34371067310E+02 -0.25308453328E+02 -0.47790056666E+02  0.64212537670E+02  0.41800000000E+01 0.  1.
        -11    1    1    2    0    0  0.14380969166E+02  0.47187249933E+02 -0.25096408769E+02  0.55346892989E+02  0.00000000000E+00 0.  1.
         11    1    1    2    0    0 -0.45166082811E+02 -0.76180750103E+02 -0.64975596321E+02  0.10984220427E+03  0.00000000000E+00 0. -1.
</event>
<event>
 8    1  0.3896452E-010  0.1781662E+03  0.7561462E-02  0.1169590E+00
          2   -1    0    0  501    0  0.00000000000E+00  0.00000000000E+00  0.96330983943E+03  0.96330983943E+03  0.00000000000E+00 0. -1.
         -2   -1    0    0    0  501 -0.00000000000E+00 -0.00000000000E+00 -0.56063090708E+02  0.56063090708E+02  0.00000000000E+00 0.  1.
         25    2    1    2    0    0 -0.29683657166E+02 -0.17483181454E+03  0.67407506242E+03  0.70814720964E+03  0.12509195765E+03 0.  0.
         23    2    1    2    0    0  0.29683657166E+02  0.17483181454E+03  0.23317168630E+03  0.31122572049E+03  0.10509581783E+03 0.  0.
          5    1    3    3  502    0 -0.58294234307E+01 -0.98290226363E+02  0.56029122654E+03  0.56889250453E+03  0.41800000000E+01 0. -1.
         -5    1    3    3    0  502 -0.23854233736E+02 -0.76541588177E+02  0.11378383589E+03  0.13925470511E+03  0.41800000000E+01 0. -1.
        -11    1    4    4    0    0  0.20598305058E+02  0.98638688493E+02  0.49704228118E+02  0.11235831670E+03  0.00000000000E+00 0.  1.
         11    1    4    4    0    0  0.90853521086E+01  0.76193126046E+02  0.18346745818E+03  0.19886740379E+03  0.00000000000E+00 0. -1.
</event>
<event>
 8    1  0.4101717E-010  0.1212280E+03  0.7561462E-02  0.1241085E+00
          2   -1    0    0  501    0  0.00000000000E+00  0.00000000000E+00  0.93090237687E+03  0.93090237687E+03  0.00000000000E+00 0.  1.
         -2   -1    0    0    0  501 -0.00000000000E+00 -0.00000000000E+00 -0.16831794252E+02  0.16831794252E+02  0.00000000000E+00 0. -1.
         25    2    1    2    0    0  0.44241864155E+02 -0.53567374091E+02  0.59954356292E+03  0.61638186868E+03  0.12508924050E+03 0.  0.
         23    2    1    2    0    0 -0.44241864155E+02  0.53567374091E+02  0.31452701970E+03  0.33135230244E+03  0.77719341877E+02 0.  0.
          5    1    3    3  502    0 -0.34066143011E+02 -0.49092634602E+02  0.33915971694E+03  0.34440873227E+03  0.41800000000E+01 0.  1.
         -5    1    3    3    0  502  0.78308007166E+02 -0.44747394887E+01  0.26038384598E+03  0.27197313641E+03  0.41800000000E+01 0.  1.
        -11    1    4    4    0    0 -0.25430020987E+02 -0.17254312424E+02  0.10341326665E+03  0.10788281134E+03  0.00000000000E+00 0. -1.
         11    1    4    4    0    0 -0.18811843168E+02  0.70821686515E+02  0.21111375305E+03  0.22346949110E+03  0.00000000000E+00 0.  1.
</event>
<event>
 8    1  0.3896452E-010  0.1148118E+03  0.7561462E-02  0.1251910E+00
          2   -1    0    0  501    0  0.00000000000E+00  0.00000000000E+00  0.11598813780E+03  0.11598813780E+03  0.00000000000E+00 0. -1.
         -2   -1    0    0    0  501 -0.00000000000E+00 -0.00000000000E+00 -0.18849357768E+03  0.18849357768E+03  0.00000000000E+00 0.  1.
         25    2    1    2    0    0  0.63454169325E+02  0.82102757365E+02 -0.62438413696E+02  0.17410607000E+03  0.12508826378E+03 0.  0.
         23    2    1    2    0    0 -0.63454169325E+02 -0.82102757365E+02 -0.10067026187E+02  0.13037564547E+03  0.78289012927E+02 0.  0.
          5    1    3    3  502    0  0.44813685407E+02  0.49805305603E+02  0.30608261879E+02  0.73777862270E+02  0.41800000000E+01 0. -1.
         -5    1    3    3    0  502  0.18640483918E+02  0.32297451762E+02 -0.93046675575E+02  0.10032820773E+03  0.41800000000E+01 0. -1.
        -11    1    4    4    0    0  0.10843777543E+02 -0.35844611486E+02  0.13380793824E+02  0.39767692004E+02  0.00000000000E+00 0. -1.
         11    1    4    4    0    0 -0.74297946868E+02 -0.46258145879E+02 -0.23447820011E+02  0.90607953471E+02  0.00000000000E+00 0.  1.
</event>
<event>
 8    1  0.4284613E-010  0.4039317E+02  0.7561462E-02  0.1505338E+00
         -2   -1    0    0    0  501 -0.00000000000E+00  0.00000000000E+00  0.28744107760E+02  0.28744107760E+02  0.00000000000E+00 0.  1.
          2   -1    0    0  501    0  0.00000000000E+00 -0.00000000000E+00 -0.36997390101E+03  0.36997390101E+03  0.00000000000E+00 0. -1.
         25    2    1    2    0    0 -0.35899727622E+01  0.46873632773E+00 -0.17327165318E+03  0.21373750003E+03  0.12509014952E+03 0.  0.
         23    2    1    2    0    0  0.35899727622E+01 -0.46873632773E+00 -0.16795814007E+03  0.18498050874E+03  0.77425733312E+02 0.  0.
          5    1    3    3  502    0  0.22016123926E+01 -0.30538429243E+01 -0.19267826606E+03  0.19276036851E+03  0.41800000000E+01 0. -1.
         -5    1    3    3    0  502 -0.57915851548E+01  0.35225792520E+01  0.19406612887E+02  0.20977131523E+02  0.41800000000E+01 0. -1.
        -11    1    4    4    0    0  0.54303545673E+01  0.33117828922E+02 -0.37809064601E+02  0.50554967206E+02  0.00000000000E+00 0.  1.
         11    1    4    4    0    0 -0.18403818051E+01 -0.33586565250E+02 -0.13014907547E+03  0.13442554153E+03  0.00000000000E+00 0. -1.
</event>
<event>
 8    1  0.3896452E-010  0.1313363E+03  0.7561462E-02  0.1225486E+00
         -2   -1    0    0    0  501 -0.00000000000E+00  0.00000000000E+00  0.23492845586E+03  0.23492845586E+03  0.00000000000E+00 0.  1.
          2   -1    0    0  501    0  0.00000000000E+00 -0.00000000000E+00 -0.10798303388E+03  0.10798303388E+03  0.00000000000E+00 0. -1.
         25    2    1    2    0    0  0.11476346858E+03 -0.50950386935E+02  0.78407753559E+02  0.19380583050E+03  0.12508528478E+03 0.  0.
         23    2    1    2    0    0 -0.11476346858E+03  0.50950386935E+02  0.48537668422E+02  0.14910565924E+03  0.64109256072E+02 0.  0.
          5    1    3    3  502    0  0.40168731753E+02 -0.15520027538E+02  0.99475563793E+02  0.10847699506E+03  0.41800000000E+01 0.  1.
         -5    1    3    3    0  502  0.74594736823E+02 -0.35430359397E+02 -0.21067810233E+02  0.85328835435E+02  0.41800000000E+01 0.  1.
        -11    1    4    4    0    0 -0.77746235804E+02  0.52702896559E+01  0.94338073685E+01  0.78493629399E+02  0.00000000000E+00 0.  1.
         11    1    4    4    0    0 -0.37017232773E+02  0.45680097279E+02  0.39103861053E+02  0.70612029845E+02  0.00000000000E+00 0. -1.
</event>
<event>
 7    1  0.3896452E-010  0.7608313E+02  0.7561462E-02  0.1340549E+00
          1   -1    0    0  501    0  0.00000000000E+00  0.00000000000E+00  0.20728571680E+03  0.20728571680E+03  0.00000000000E+00 0. -1.
         -1   -1    0    0    0  501 -0.00000000000E+00 -0.00000000000E+00 -0.43937826533E+02  0.43937826533E+02  0.00000000000E+00 0.  1.
         25    2    1    2    0    0 -0.21685478188E+01 -0.49416318377E+01  0.15569748180E+03  0.19979553622E+03  0.12508968034E+03 0.  0.
          5    1    3    3  502    0 -0.58952079241E+02 -0.25699515525E+02  0.85233636999E+02  0.10685531349E+03  0.41800000000E+01 0.  1.
         -5    1    3    3    0  502  0.56783531423E+02  0.20757883687E+02  0.70463844803E+02  0.92940222726E+02  0.41800000000E+01 0.  1.
        -11    1    1    2    0    0  0.12361590000E+02 -0.45663796467E+01 -0.17956368413E+02  0.22273120504E+02  0.00000000000E+00 0.  1.
         11    1    1    2    0    0 -0.10193042181E+02  0.95080114844E+01  0.25606776880E+02  0.29154886614E+02  0.00000000000E+00 0. -1.
</event>
<event>
 7    1  0.3896452E-010  0.1038728E+03  0.7561462E-02  0.1272357E+00
          2   -1    0    0  501    0  0.00000000000E+00  0.00000000000E+00  0.87571458124E+03  0.87571458124E+03  0.00000000000E+00 0. -1.
         -2   -1    0    0    0  501 -0.00000000000E+00 -0.00000000000E+00 -0.27854611854E+02  0.27854611854E+02  0.00000000000E+00 0.  1.
         25    2    1    2    0    0  0.61798260659E+02  0.51382803948E+02  0.50349610482E+03  0.52499102720E+03  0.12509210012E+03 0.  0.
          5    1    3    3  502    0  0.85750969260E+02  0.23263333763E+02  0.45642285943E+03  0.46500936597E+03  0.41800000000E+01 0. -1.
         -5    1    3    3    0  502 -0.23952708602E+02  0.28119470185E+02  0.47073245386E+02  0.59981661231E+02  0.41800000000E+01 0. -1.
        -11    1    1    2    0    0 -0.11514227890E+02 -0.17644406593E+02 -0.68714877272E+01  0.22161224504E+02  0.00000000000E+00 0.  1.
         11    1    1    2    0    0 -0.50284032769E+02 -0.33738397354E+02  0.35123535230E+03  0.35641694139E+03  0.00000000000E+00 0. -1.
</event>
<event>
 7    1  0.3896452E-010  0.1596759E+03  0.7561462E-02  0.1189063E+00
          1   -1    0    0  501    0  0.00000000000E+00  0.00000000000E+00  0.11128673312E+03  0.11128673312E+03  0.00000000000E+00 0. -1.
         -1   -1    0    0    0  501 -0.00000000000E+00 -0.00000000000E+00 -0.42039363669E+03  0.42039363669E+03  0.00000000000E+00 0.  1.
         25    2    1    2    0    0 -0.51954578322E+00  0.12628678316E+03 -0.87947193620E+02  0.19832285803E+03  0.12509446680E+03 0.  0.
          5    1    3    3  502    0  0.35316795290E+02  0.32400430126E+02  0.18802748299E+02  0.51653457246E+02  0.41800000000E+01 0.  1.
         -5    1    3    3    0  502 -0.35836341073E+02  0.93886353037E+02 -0.10674994192E+03  0.14666940079E+03  0.41800000000E+01 0.  1.
        -11    1    1    2    0    0 -0.53859491939E+02 -0.34455020882E+02  0.22153775121E+02  0.67666705905E+02  0.00000000000E+00 0. -1.
         11    1    1    2    0    0  0.54379037722E+02 -0.91831762280E+02 -0.24331348507E+03  0.26569080587E+03  0.00000000000E+00 0.  1.
</event>
<event>
 8    1  0.3896452E-010  0.9172848E+02  0.7561462E-02  0.1298719E+00
          1   -1    0    0  501    0  0.00000000000E+00  0.00000000000E+00  0.19475682607E+03  0.19475682607E+03  0.00000000000E+00 0. -1.
         -1   -1    0    0    0  501 -0.00000000000E+00 -0.00000000000E+00 -0.60894764421E+02  0.60894764421E+02  0.00000000000E+00 0.  1.
         25    2    1    2    0    0  0.45355217270E+02  0.80800385568E+01  0.54164143359E+02  0.14388535311E+03  0.12508740008E+03 0.  0.
         23    2    1    2    0    0 -0.45355217270E+02 -0.80800385568E+01  0.79697918293E+02  0.11176623738E+03  0.63384153238E+02 0.  0.
          5    1    3    3  502    0  0.21086611477E+02  0.56501474524E+02 -0.83937545870E+01  0.61032690610E+02  0.41800000000E+01 0. -1.
         -5    1    3    3    0  502  0.24268605793E+02 -0.48421435968E+02  0.62557897946E+02  0.82852662502E+02  0.41800000000E+01 0. -1.
        -11    1    4    4    0    0 -0.30110279402E+02  0.20404645216E+02  0.14794803859E+02  0.39266584946E+02  0.00000000000E+00 0.  1.
         11    1    4    4    0    0 -0.15244937868E+02 -0.28484683773E+02  0.64903114434E+02  0.72499652436E+02  0.00000000000E+00 0. -1.
</event>
<event>
 8    1  0.3896452E-010  0.9850041E+02  0.7561462E-02  0.1283481E+00
         -2   -1    0    0    0  501 -0.00000000000E+00  0.00000000000E+00  0.61341767121E+02  0.61341767121E+02  0.00000000000E+00 0.  1.
          2   -1    0    0  501    0  0.00000000000E+00 -0.00000000000E+00 -0.24268127957E+03  0.24268127957E+03  0.00000000000E+00 0. -1.
         25    2    1    2    0    0  0.48983988406E+02 -0.35501375210E+02 -0.15799953995E+03  0.21040630743E+03  0.12508869182E+03 0.  0.
         23    2    1    2    0    0 -0.48983988406E+02  0.35501375210E+02 -0.23339972491E+02  0.93616739254E+02  0.67524519922E+02 0.  0.
          5    1    3    3  502    0 -0.59786889513E+01  0.39557615291E+02 -0.22796139649E+02  0.46235116870E+02  0.41800000000E+01 0.  1.
         -5    1    3    3    0  502  0.54962677357E+02 -0.75058990500E+02 -0.13520340030E+03  0.16417119056E+03  0.41800000000E+01 0.  1.
        -11    1    4    4    0    0 -0.17880336607E+02  0.25174626291E+02  0.21825899770E+02  0.37813200696E+02  0.00000000000E+00 0.  1.
         11    1    4    4    0    0 -0.31103651798E+02  0.10326748919E+02 -0.45165872262E+02  0.55803538558E+02  0.00000000000E+00 0. -1.
</event>
<event>
 8    1  0.3896452E-010  0.1032034E+03  0.7561462E-02  0.1273700E+00
         -1   -1    0    0    0  501 -0.00000000000E+00  0.00000000000E+00  0.37470047116E+02  0.37470047116E+02  0.00000000000E+00 0.  1.
          1   -1    0    0  501    0  0.00000000000E+00 -0.00000000000E+00 -0.40690956594E+03  0.40690956594E+03  0.00000000000E+00 0. -1.
         25    2    1    2    0    0 -0.26653654466E+02 -0.34157760614E+02 -0.17416525865E+03  0.21876680958E+03  0.12509280453E+03 0.  0.
         23    2    1    2    0    0  0.26653654466E+02  0.34157760614E+02 -0.19527426017E+03  0.22561280348E+03  0.10436441204E+03 0.  0.
          5    1    3    3  502    0  0.27897422852E+02  0.13269663576E+02 -0.13059072574E+03  0.13426004701E+03  0.41800000000E+01 0.  1.
         -5    1    3    3    0  502 -0.54551077318E+02 -0.47427424190E+02 -0.43574532915E+02  0.84506762573E+02  0.41800000000E+01 0.  1.
        -11    1    4    4    0    0  0.26779059747E+02 -0.29112798741E+02 -0.33254442136E+02  0.51677180779E+02  0.00000000000E+00 0.  1.
         11    1    4    4    0    0 -0.12540528069E+00  0.63270559355E+02 -0.16201981804E+03  0.17393562270E+03  0.00000000000E+00 0. -1.
</event>
<event>
 8    1  0.3896452E-010  0.9930821E+02  0.7561462E-02  0.1281757E+00
          1   -1    0    0  501    0  0.00000000000E+00  0.00000000000E+00  0.12054131784E+02  0.12054131784E+02  0.00000000000E+00 0. -1.
         -1   -1    0    0    0  501 -0.00000000000E+00 -0.00000000000E+00 -0.10762767381E+04  0.10762767381E+04  0.00000000000E+00 0.  1.
         25    2    1    2    0    0  0.31885076787E+02  0.40824481604E+01 -0.81744971490E+03  0.82758996809E+03  0.12509114435E+03 0.  0.
         23    2    1    2    0    0 -0.31885076787E+02 -0.40824481604E+01 -0.24677289140E+03  0.26074090177E+03  0.77817950519E+02 0.  0.
          5    1    3    3  502    0  0.65995124266E+02 -0.23767274866E+02 -0.29426011557E+03  0.30253384571E+03  0.41800000000E+01 0.  1.
         -5    1    3    3    0  502 -0.34110047480E+02  0.27849723027E+02 -0.52318959933E+03  0.52505612239E+03  0.41800000000E+01 0.  1.
        -11    1    4    4    0    0  0.81018819282E+01  0.30308445502E+02 -0.86551304272E+02  0.92061776165E+02  0.00000000000E+00 0.  1.
         11    1    4    4    0    0 -0.39986958715E+02 -0.34390893662E+02 -0.16022158712E+03  0.16867912560E+03  0.00000000000E+00 0. -1.
</event>
<event>
 8    1  0.3896452E-010  0.1026144E+03  0.7561462E-02  0.1274892E+00
         -1   -1    0    0    0  501 -0.00000000000E+00  0.00000000000E+00  0.12831558625E+03  0.12831558625E+03  0.00000000000E+00 0.  1.
          1   -1    0    0  501    0  0.00000000000E+00 -0.00000000000E+00 -0.10337911842E+03  0.10337911842E+03  0.00000000000E+00 0. -1.
         25    2    1    2    0    0 -0.43710410334E+02 -0.37733120292E+02 -0.41417098367E+01  0.13783799020E+03  0.12509104462E+03 0.  0.
         23    2    1    2    0    0  0.43710410334E+02  0.37733120292E+02  0.29078177674E+02  0.93856714471E+02  0.68037887209E+02 0.  0.
          5    1    3    3  502    0  0.24195827881E+02  0.28208040812E+02  0.16487996211E+02  0.40871237715E+02  0.41800000000E+01 0.  1.
         -5    1    3    3    0  502 -0.67906238215E+02 -0.65941161104E+02 -0.20629706048E+02  0.96966752487E+02  0.41800000000E+01 0.  1.
        -11    1    4    4    0    0  0.34415137455E+02  0.19862170884E+00  0.40870075095E+02  0.53430367535E+02  0.00000000000E+00 0.  1.
         11    1    4    4    0    0  0.92952728792E+01  0.37534498583E+02 -0.11791897421E+02  0.40426346936E+02  0.00000000000E+00 0. -1.
</event>
<event>
 8    1  0.3896452E-010  0.1175233E+03  0.7561462E-02  0.1247240E+00
         -1   -1    0    0    0  501 -0.00000000000E+00  0.00000000000E+00  0.34705236091E+03  0.34705236091E+03  0.00000000000E+00 0.  1.
          1   -1    0    0  501    0  0.00000000000E+00 -0.00000000000E+00 -0.59356718789E+02  0.59356718789E+02  0.00000000000E+00 0. -1.
         25    2    1    2    0    0 -0.69043161957E+00 -0.30198102897E+02  0.42324701386E+02  0.13546275490E+03  0.12508547279E+03 0.  0.
         23    2    1    2    0    0  0.69043161957E+00  0.30198102897E+02  0.24537094073E+03  0.27094632480E+03  0.11087204449E+03 0.  0.
          5    1    3    3  502    0 -0.59135247028E+00 -0.75522896832E+02  0.36417244524E+01  0.75728410789E+02  0.41800000000E+01 0.  1.
         -5    1    3    3    0  502 -0.99079149296E-01  0.45324793935E+02  0.38682976934E+02  0.59734344111E+02  0.41800000000E+01 0.  1.
        -11    1    4    4    0    0 -0.51909615704E+02  0.32489405746E+02  0.14977257863E+03  0.16180851337E+03  0.00000000000E+00 0.  1.
         11    1    4    4    0    0  0.52600047323E+02 -0.22913028492E+01  0.95598362102E+02  0.10913781143E+03  0.00000000000E+00 0. -1.
</event>
<event>
 8    1  0.3896452E-010  0.1072866E+03  0.7561462E-02  0.1265679E+00
         -3   -1    0    0    0  501 -0.00000000000E+00  0.00000000000E+00  0.50065258868E+03  0.50065258868E+03  0.00000000000E+00 0.  1.
          3   -1    0    0  501    0  0.00000000000E+00 -0.00000000000E+00 -0.41253118220E+02  0.41253118220E+02  0.00000000000E+00 0. -1.
         25    2    1    2    0    0 -0.75548999912E+02  0.21820408551E+02  0.29413374264E+03  0.32915722826E+03  0.12508413463E+03 0.  0.
         23    2    1    2    0    0  0.75548999912E+02 -0.21820408551E+02  0.16526572781E+03  0.21274847864E+03  0.10846830300E+03 0.  0.
          5    1    3    3  502    0 -0.41655949338E+02  0.10288348876E+01  0.28511148301E+03  0.28817062092E+03  0.41800000000E+01 0. -1.
         -5    1    3    3    0  502 -0.33893050574E+02  0.20791573664E+02  0.90222596371E+01  0.40986607344E+02  0.41800000000E+01 0. -1.
        -11    1    4    4    0    0  0.27720239724E+01 -0.53334886104E+02  0.52526664930E+02  0.74908909492E+02  0.00000000000E+00 0.  1.
         11    1    4    4    0    0  0.72776975939E+02  0.31514477553E+02  0.11273906288E+03  0.13783956915E+03  0.00000000000E+00 0. -1.
</event>
<event>
 7    1  0.3896452E-010  0.1917842E+03  0.7561462E-02  0.1156862E+00
         -3   -1    0    0    0  501 -0.00000000000E+00  0.00000000000E+00  0.12522067858E+04  0.12522067858E+04  0.00000000000E+00 0.  1.
          3   -1    0    0  501    0  0.00000000000E+00 -0.00000000000E+00 -0.32291412433E+02  0.32291412433E+02  0.00000000000E+00 0. -1.
         25    2    1    2    0    0 -0.64438587284E+02  0.15863882144E+03  0.49451968561E+03  0.53806720689E+03  0.12509193613E+03 0.  0.
          5    1    3    3  502    0  0.26672047835E+02  0.99349121440E+02  0.25518342685E+03  0.27516849348E+03  0.41800000000E+01 0.  1.
         -5    1    3    3    0  502 -0.91110635119E+02  0.59289699997E+02  0.23933625876E+03  0.26289871341E+03  0.41800000000E+01 0.  1.
        -11    1    1    2    0    0  0.25260109196E+02 -0.44666154675E+02  0.29723321668E+03  0.30163011054E+03  0.00000000000E+00 0.  1.
         11    1    1    2    0    0  0.39178478088E+02 -0.11397266676E+03  0.42816247110E+03  0.44480088081E+03  0.00000000000E+00 0. -1.
</event>
<event>
 8    1  0.3896452E-010  0.7000391E+02  0.7561462E-02  0.1360080E+00
          1   -1    0    0  501    0  0.00000000000E+00  0.00000000000E+00  0.54502450808E+03  0.54502450808E+03  0.00000000000E+00 0. -1.
         -1   -1    0    0    0  501 -0.00000000000E+00 -0.00000000000E+00 -0.22788789811E+02  0.22788789811E+02  0.00000000000E+00 0.  1.
         25    2    1    2    0    0  0.43020515553E+02 -0.15483650870E+02  0.36823803733E+03  0.39158581981E+03  0.12509873674E+03 0.  0.
         23    2    1    2    0    0 -0.43020515553E+02  0.15483650870E+02  0.15399768094E+03  0.17622747809E+03  0.72459161565E+02 0.  0.
          5    1    3    3  502    0  0.26829541384E+02  0.56955645056E+01  0.60527791528E+01  0.28396694903E+02  0.41800000000E+01 0.  1.
         -5    1    3    3    0  502  0.16190974169E+02 -0.21179215375E+02  0.36218525818E+03  0.36318912490E+03  0.41800000000E+01 0.  1.
        -11    1    4    4    0    0 -0.12997787039E+02  0.42774721696E+02  0.89188062546E+02  0.99765373676E+02  0.00000000000E+00 0.  1.
         11    1    4    4    0    0 -0.30022728514E+02 -0.27291070826E+02  0.64809618396E+02  0.76462104410E+02  0.00000000000E+00 0. -1.
</event>
<event>
 8    1  0.3896452E-010  0.1123907E+03  0.7561462E-02  0.1256206E+00
         -1   -1    0    0    0  501 -0.00000000000E+00  0.00000000000E+00  0.46312576703E+02  0.46312576703E+02  0.00000000000E+00 0.  1.
          1   -1    0    0  501    0  0.00000000000E+00 -0.00000000000E+00 -0.34015982316E+03  0.34015982316E+03  0.00000000000E+00 0. -1.
         25    2    1    2    0    0  0.17316102225E+02  0.72348176685E+02 -0.17472800583E+03  0.22740246945E+03  0.12509157056E+03 0.  0.
         23    2    1    2    0    0 -0.17316102225E+02 -0.72348176685E+02 -0.11911924063E+03  0.15906993041E+03  0.74697678727E+02 0.  0.
          5    1    3    3  502    0 -0.34683794134E+02  0.55008577965E+02 -0.15643536383E+03  0.16946505445E+03  0.41800000000E+01 0.  1.
         -5    1    3    3    0  502  0.51999896359E+02  0.17339598720E+02 -0.18292642002E+02  0.57937414997E+02  0.41800000000E+01 0.  1.
        -11    1    4    4    0    0  0.22663229049E+02 -0.57825361610E+02 -0.61052885492E+02  0.87091039856E+02  0.00000000000E+00 0. -1.
         11    1    4    4    0    0 -0.39979331274E+02 -0.14522815075E+02 -0.58066355134E+02  0.71978890554E+02  0.00000000000E+00 0.  1.
</event>
<event>
 8    1  0.3896452E-010  0.1876164E+03  0.7561462E-02  0.1160629E+00
          2   -1    0    0  501    0  0.00000000000E+00  0.00000000000E+00  0.20074242658E+03  0.20074242658E+03  0.00000000000E+00 0. -1.
         -2   -1    0    0    0  501 -0.00000000000E+00 -0.00000000000E+00 -0.20856684607E+03  0.20856684607E+03  0.00000000000E+00 0.  1.
         25    2    1    2    0    0  0.13054040645E+03 -0.73632098545E+02  0.68261118069E+02  0.20680670395E+03  0.12508776482E+03 0.  0.
         23    2    1    2    0    0 -0.13054040645E+03  0.73632098545E+02 -0.76085537561E+02  0.20250256869E+03  0.11294156741E+03 0.  0.
          5    1    3    3  502    0  0.44573039709E+02  0.34680184695E+02  0.24528611253E+02  0.61713825431E+02  0.41800000000E+01 0.  1.
         -5    1    3    3    0  502  0.85967366743E+02 -0.10831228324E+03  0.43732506816E+02  0.14509287852E+03  0.41800000000E+01 0.  1.
        -11    1    4    4    0    0 -0.69176939127E+02  0.93002818935E+02 -0.20999599567E+02  0.11779624960E+03  0.00000000000E+00 0. -1.
         11    1    4    4    0    0 -0.61363467325E+02 -0.19370720390E+02 -0.55085937994E+02  0.84706319099E+02  0.00000000000E+00 0.  1.
</event>
<event>
 8    1  0.3896452E-010  0.1276038E+03  0.7561462E-02  0.1231055E+00
         -2   -1    0    0    0  501 -0.00000000000E+00  0.00000000000E+00  0.23768135889E+02  0.23768135889E+02  0.00000000000E+00 0.  1.
          2   -1    0    0  501    0  0.00000000000E+00 -0.00000000000E+00 -0.90065230457E+03  0.90065230457E+03  0.00000000000E+00 0. -1.
         25    2    1    2    0    0 -0.89820936025E+02 -0.29463549112E+02 -0.68581975491E+03  0.70351259333E+03  0.12508129944E+03 0.  0.
         23    2    1    2    0    0  0.89820936025E+02  0.29463549112E+02 -0.19106441377E+03  0.22090784713E+03  0.57954856912E+02 0.  0.
          5    1    3    3  502    0  0.14803300097E+02  0.22956405938E+02 -0.51208405477E+02  0.58188550926E+02  0.41800000000E+01 0. -1.
         -5    1    3    3    0  502 -0.10462423612E+03 -0.52419955050E+02 -0.63461134944E+03  0.64532404241E+03  0.41800000000E+01 0. -1.
        -11    1    4    4    0    0  0.80125543800E+02  0.70470321129E+00 -0.14667716648E+03  0.16713704120E+03  0.00000000000E+00 0.  1.
         11    1    4    4    0    0  0.96953922251E+01  0.28758845901E+02 -0.44387247288E+02  0.53770805924E+02  0.00000000000E+00 0. -1.
</event>
<event>
 8    1  0.3896452E-010  0.1990691E+03  0.7561462E-02  0.1150527E+00
         -1   -1    0    0    0  501 -0.00000000000E+00  0.00000000000E+00  0.34199125247E+02  0.34199125247E+02  0.00000000000E+00 0.  1.
          1   -1    0    0  501    0  0.00000000000E+00 -0.00000000000E+00 -0.12840692421E+04  0.12840692421E+04  0.00000000000E+00 0. -1.
         25    2    1    2    0    0  0.17745545682E+03  0.19305150997E+02 -0.78305254708E+03  0.81282374888E+03  0.12509207508E+03 0.  0.
         23    2    1    2    0    0 -0.17745545682E+03 -0.19305150997E+02 -0.46681756977E+03  0.50544461846E+03  0.75448597573E+02 0.  0.
          5    1    3    3  502    0  0.16767056619E+03 -0.15078877863E+02 -0.72670777472E+03  0.74596411010E+03  0.41800000000E+01 0.  1.
         -5    1    3    3    0  502  0.97848906320E+01  0.34384028860E+02 -0.56344772362E+02  0.66859638780E+02  0.41800000000E+01 0.  1.
        -11    1    4    4    0    0 -0.71532340434E+02  0.29178234235E+02 -0.19158164235E+03  0.20657146649E+03  0.00000000000E+00 0. -1.
         11    1    4    4    0    0 -0.10592311639E+03 -0.48483385232E+02 -0.27523592741E+03  0.29887315197E+03  0.00000000000E+00 0.  1.
</event>
<event>
 7    1  0.3896452E-010  0.2754234E+03  0.7561462E-02  0.1098215E+00
          2   -1    0    0  501    0  0.00000000000E+00  0.00000000000E+00  0.19850301779E+03  0.19850301779E+03  0.00000000000E+00 0. -1.
         -2   -1    0    0    0  501 -0.00000000000E+00 -0.00000000000E+00 -0.58638670362E+03  0.58638670362E+03  0.00000000000E+00 0.  1.
         25    2    1    2    0    0 -0.27378447137E+02  0.20704398626E+03 -0.27596240207E+03  0.36799375004E+03  0.12508941243E+03 0.  0.
          5    1    3    3  502    0  0.74349607265E+01  0.12533206116E+03 -0.24227920555E+03  0.27291040662E+03  0.41800000000E+01 0. -1.
         -5    1    3    3    0  502 -0.34813407864E+02  0.81711925093E+02 -0.33683196519E+02  0.95083343427E+02  0.41800000000E+01 0. -1.
        -11    1    1    2    0    0  0.61156571444E+02  0.48801798957E+02  0.66888393241E+02  0.10293589735E+03  0.00000000000E+00 0. -1.
         11    1    1    2    0    0 -0.33778124307E+02 -0.25584578521E+03 -0.17880967699E+03  0.31396007402E+03  0.00000000000E+00 0.  1.
</event>
<event>
 7    1  0.3896452E-010  0.1929137E+03  0.7561462E-02  0.1155859E+00
          1   -1    0    0  501    0  0.00000000000E+00  0.00000000000E+00  0.88643171829E+03  0.88643171829E+03  0.00000000000E+00 0. -1.
         -1   -1    0    0    0  501 -0.00000000000E+00 -0.00000000000E+00 -0.52871395419E+02  0.52871395419E+02  0.00000000000E+00 0.  1.
         25    2    1    2    0    0 -0.12084413170E+03  0.11909776708E+03  0.50965481395E+03  0.55152827307E+03  0.12509126399E+03 0.  0.
          5    1    3    3  502    0 -0.73506420498E+02  0.11380531116E+03  0.47077837888E+03  0.48990264045E+03  0.41800000000E+01 0. -1.
         -5    1    3    3    0  502 -0.47337711206E+02  0.52924559188E+01  0.38876435068E+02  0.61625632618E+02  0.41800000000E+01 0. -1.
        -11    1    1    2    0    0  0.12465100528E+03 -0.51675979878E+02  0.26820839923E+03  0.30023994642E+03  0.00000000000E+00 0. -1.
         11    1    1    2    0    0 -0.38068735757E+01 -0.67421787203E+02  0.55697109693E+02  0.87534894209E+02  0.00000000000E+00 0.  1.
</event>
<event>
 8    1  0.3896452E-010  0.1174357E+03  0.7561462E-02  0.1247388E+00
          2   -1    0    0  501    0  0.00000000000E+00  0.00000000000E+00  0.10402971839E+03  0.10402971839E+03  0.00000000000E+00 0. -1.
         -2   -1    0    0    0  501 -0.00000000000E+00 -0.00000000000E+00 -0.15799312787E+03  0.15799312787E+03  0.00000000000E+00 0.  1.
         25    2    1    2    0    0  0.33016425795E+02  0.41104373398E+02 -0.40628882167E+02  0.14168683232E+03  0.12507916894E+03 0.  0.
         23    2    1    2    0    0 -0.33016425795E+02 -0.41104373398E+02 -0.13334527312E+02  0.12033601395E+03  0.10734660101E+03 0.  0.
          5    1    3    3  502    0  0.27190432986E+02  0.76443584867E+02 -0.59771407317E+02  0.10086146363E+03  0.41800000000E+01 0. -1.
         -5    1    3    3    0  502  0.58259928091E+01 -0.35339211468E+02  0.19142525151E+02  0.40825368689E+02  0.41800000000E+01 0. -1.
        -11    1    4    4    0    0  0.30352865437E+02  0.14154168353E+02 -0.13886961547E+02  0.36255821919E+02  0.00000000000E+00 0.  1.
         11    1    4    4    0    0 -0.63369291232E+02 -0.55258541751E+02  0.55243423547E+00  0.84080192027E+02  0.00000000000E+00 0. -1.
</event>
<event>
 8    1  0.3896452E-010  0.6736322E+02  0.7561462E-02  0.1369296E+00
         -2   -1    0    0    0  501 -0.00000000000E+00  0.00000000000E+00  0.10226681682E+03  0.10226681682E+03  0.00000000000E+00 0.  1.
          2   -1    0    0  501    0  0.00000000000E+00 -0.00000000000E+00 -0.12593013633E+03  0.12593013633E+03  0.00000000000E+00 0. -1.
         25    2    1    2    0    0 -0.29639454415E+02  0.17368029027E+02 -0.66989220702E+02  0.14599689940E+03  0.12508954094E+03 0.  0.
         23    2    1    2    0    0  0.29639454415E+02 -0.17368029027E+02  0.43325901193E+02  0.82200053746E+02  0.60824085947E+02 0.  0.
          5    1    3    3  502    0 -0.52156526606E+02  0.97056112571E+01 -0.95075618732E+02  0.10895571502E+03  0.41800000000E+01 0.  1.
         -5    1    3    3    0  502  0.22517072191E+02  0.76624177697E+01  0.28086398030E+02  0.37041184382E+02  0.41800000000E+01 0.  1.
        -11    1    4    4    0    0 -0.22681491953E+01 -0.24550071514E+02  0.42913421697E+02  0.49491537396E+02  0.00000000000E+00 0.  1.
         11    1    4    4    0    0  0.31907603610E+02  0.71820424872E+01  0.41247949657E+00  0.32708516349E+02  0.00000000000E+00 0. -1.
</event>
<event>
 7    1  0.3896452E-010  0.1575502E+03  0.7561462E-02  0.1191491E+00
          1   -1    0    0  501    0  0.00000000000E+00  0.00000000000E+00  0.32139378458E+03  0.32139378458E+03  0.00000000000E+00 0. -1.
         -1   -1    0    0    0  501 -0.00000000000E+00 -0.00000000000E+00 -0.93835475542E+02  0.93835475542E+02  0.00000000000E+00 0.  1.
         25    2    1    2    0    0  0.23767824407E+02  0.10921183613E+03  0.73542400106E+02  0.18316145752E+03  0.12508996875E+03 0.  0.
          5    1    3    3  502    0 -0.16284771623E+02  0.98878802769E+02  0.93432223926E+02  0.13707393732E+03  0.41800000000E+01 0. -1.
         -5    1    3    3    0  502  0.40052596029E+02  0.10333033358E+02 -0.19889823819E+02  0.46087520205E+02  0.41800000000E+01 0. -1.
        -11    1    1    2    0    0  0.27789065752E+02  0.19915214716E+02  0.24595349690E+02  0.42116257894E+02  0.00000000000E+00 0. -1.
         11    1    1    2    0    0 -0.51556890159E+02 -0.12912705084E+03  0.12942055924E+03  0.18995154471E+03  0.00000000000E+00 0.  1.
</event>
<event>
 8    1  0.3896452E-010  0.7136247E+02  0.7561462E-02  0.1355520E+00
         -1   -1    0    0    0  501 -0.00000000000E+00  0.00000000000E+00  0.54356829021E+02  0.54356829021E+02  0.00000000000E+00 0.  1.
          1   -1    0    0  501    0  0.00000000000E+00 -0.00000000000E+00 -0.15963473988E+03  0.15963473988E+03  0.00000000000E+00 0. -1.
         25    2    1    2    0    0 -0.11513111807E+02  0.61670306624E+01 -0.69224052959E+02  0.14356803333E+03  0.12509686917E+03 0.  0.
         23    2    1    2    0    0  0.11513111807E+02 -0.61670306624E+01 -0.36053857902E+02  0.70423535574E+02  0.59067839663E+02 0.  0.
          5    1    3    3  502    0  0.38294628456E+02 -0.31992215604E+02 -0.62853910536E+02  0.80362098638E+02  0.41800000000E+01 0.  1.
         -5    1    3    3    0  502 -0.49807740263E+02  0.38159246266E+02 -0.63701424224E+01  0.63205934691E+02  0.41800000000E+01 0.  1.
        -11    1    4    4    0    0  0.81241883069E+01 -0.16770384504E+02 -0.49544574179E+02  0.52933099877E+02  0.00000000000E+00 0. -1.
         11    1    4    4    0    0  0.33889235001E+01  0.10603353841E+02  0.13490716277E+02  0.17490435696E+02  0.00000000000E+00 0.  1.
</event>
<event>
 8    1  0.3896452E-010  0.1140149E+03  0.7561462E-02  0.1253310E+00
         -1   -1    0    0    0  501 -0.00000000000E+00  0.00000000000E+00  0.24185055872E+03  0.24185055872E+03  0.00000000000E+00 0.  1.
          1   -1    0    0  501    0  0.00000000000E+00 -0.00000000000E+00 -0.73117962637E+02  0.73117962637E+02  0.00000000000E+00 0. -1.
         25    2    1    2    0    0 -0.60527309615E+02  0.55450589469E+02  0.68959328877E+02  0.16474671055E+03  0.12509103292E+03 0.  0.
         23    2    1    2    0    0  0.60527309615E+02 -0.55450589469E+02  0.99773267204E+02  0.15022181080E+03  0.76639183908E+02 0.  0.
          5    1    3    3  502    0 -0.46735572158E+02  0.88788798081E+02  0.78187463965E+02  0.12727299906E+03  0.41800000000E+01 0. -1.
         -5    1    3    3    0  502 -0.13791737457E+02 -0.33338208612E+02 -0.92281350878E+01  0.37473711489E+02  0.41800000000E+01 0. -1.
        -11    1    4    4    0    0  0.60193469690E+02 -0.32642236807E+02  0.10634492858E+03  0.12648325285E+03  0.00000000000E+00 0.  1.
         11    1    4    4    0    0  0.33383992546E+00 -0.22808352662E+02 -0.65716613773E+01  0.23738557949E+02  0.00000000000E+00 0. -1.
</event>
<event>
 7    1  0.3896452E-010  0.1265987E+03  0.7561462E-02  0.1232592E+00
         -2   -1    0    0    0  501 -0.00000000000E+00  0.00000000000E+00  0.19675400320E+02  0.19675400320E+02  0.00000000000E+00 0. -1.
          2   -1    0    0  501    0  0.00000000000E+00 -0.00000000000E+00 -0.12323354953E+04  0.12323354953E+04  0.00000000000E+00 0.  1.
         25    2    1    2    0    0 -0.61898029606E+01  0.27605067070E+02 -0.35297265704E+03  0.37554952087E+03  0.12508953840E+03 0.  0.
          5    1    3    3  502    0  0.17266228943E+02  0.48602848351E+02 -0.33517180965E+03  0.33914299921E+03  0.41800000000E+01 0.  1.
         -5    1    3    3    0  502 -0.23456031903E+02 -0.20997781281E+02 -0.17800847392E+02  0.36406521658E+02  0.41800000000E+01 0.  1.
        -11    1    1    2    0    0 -0.58795883425E+02  0.43669065831E+02 -0.32571194736E+03  0.33384459839E+03  0.00000000000E+00 0.  1.
         11    1    1    2    0    0  0.64985686386E+02 -0.71274132900E+02 -0.53397549060E+03  0.54261677639E+03  0.00000000000E+00 0. -1.
</event>
<event>
 7    1  0.3896452E-010  0.1493654E+03  0.7561462E-02  0.1201255E+00
          1   -1    0    0  501    0  0.00000000000E+00  0.00000000000E+00  0.52488105424E+03  0.52488105424E+03  0.00000000000E+00 0. -1.
         -1   -1    0    0    0  501 -0.00000000000E+00 -0.00000000000E+00 -0.63560423240E+02  0.63560423240E+02  0.00000000000E+00 0.  1.
         25    2    1    2    0    0 -0.11389089805E+03 -0.61060450885E+02  0.24499456003E+03  0.30392422153E+03  0.12509229659E+03 0.  0.
          5    1    3    3  502    0 -0.63756475136E+01  0.12940184567E+02  0.12712318372E+03  0.12800731814E+03  0.41800000000E+01 0.  1.
         -5    1    3    3    0  502 -0.10751525053E+03 -0.74000635452E+02  0.11787137631E+03  0.17591690339E+03  0.41800000000E+01 0.  1.
        -11    1    1    2    0    0  0.66719575916E+02  0.78327883551E+02  0.21004659434E+03  0.23389384546E+03  0.00000000000E+00 0. -1.
         11    1    1    2    0    0  0.47171322131E+02 -0.17267432666E+02  0.62794766274E+01  0.50623410485E+02  0.00000000000E+00 0.  1.
</event>
<event>
 7    1  0.3896452E-010  0.1522824E+03  0.7561462E-02  0.1197696E+00
          1   -1    0    0  501    0  0.00000000000E+00  0.00000000000E+00  0.10816587528E+03  0.10816587528E+03  0.00000000000E+00 0. -1.
         -1   -1    0    0    0  501 -0.00000000000E+00 -0.00000000000E+00 -0.30090076037E+03  0.30090076037E+03  0.00000000000E+00 0.  1.
         25    2    1    2    0    0 -0.84178925225E+02 -0.12272232167E+03 -0.50551091970E+02  0.20086803617E+03  0.12508275408E+03 0.  0.
          5    1    3    3  502    0 -0.52018449497E+02 -0.47481656876E+02 -0.86305123213E+02  0.11147409350E+03  0.41800000000E+01 0.  1.
         -5    1    3    3    0  502 -0.32160475728E+02 -0.75240664792E+02  0.35754031243E+02  0.89393942678E+02  0.41800000000E+01 0.  1.
        -11    1    1    2    0    0  0.27323396552E+02  0.67491972147E+02 -0.69199877643E+02  0.10045077087E+03  0.00000000000E+00 0.  1.
         11    1    1    2    0    0  0.56855528673E+02  0.55230349521E+02 -0.72983915478E+02  0.10774782860E+03  0.00000000000E+00 0. -1.
</event>
<event>
 8    1  0.3896452E-010  0.1088429E+03  0.7561462E-02  0.1262728E+00
          1   -1    0    0  501    0  0.00000000000E+00  0.00000000000E+00  0.90018386850E+02  0.90018386850E+02  0.00000000000E+00 0. -1.
         -1   -1    0    0    0  501 -0.00000000000E+00 -0.00000000000E+00 -0.15978425208E+03  0.15978425208E+03  0.00000000000E+00 0.  1.
         25    2    1    2    0    0 -0.36911187084E+02 -0.47517677099E+02 -0.76046982166E+02  0.15827633434E+03  0.12509152309E+03 0.  0.
         23    2    1    2    0    0  0.36911187084E+02  0.47517677099E+02  0.62811169399E+01  0.91526304581E+02  0.68682214812E+02 0.  0.
          5    1    3    3  502    0  0.16244916620E+01  0.39742372995E+02 -0.38991601496E+02  0.55856177561E+02  0.41800000000E+01 0. -1.
         -5    1    3    3    0  502 -0.38535678746E+02 -0.87260050094E+02 -0.37055380670E+02  0.10242015678E+03  0.41800000000E+01 0. -1.
        -11    1    4    4    0    0 -0.14791916236E+02  0.15344645354E+02  0.19863006088E+02  0.29134136984E+02  0.00000000000E+00 0. -1.
         11    1    4    4    0    0  0.51703103320E+02  0.32173031746E+02 -0.13581889148E+02  0.62392167597E+02  0.00000000000E+00 0.  1.
</event>
<event>
 8    1  0.3896452E-010  0.1469026E+03  0.7561462E-02  0.1204332E+00
          1   -1    0    0  501    0  0.00000000000E+00  0.00000000000E+00  0.28390198998E+03  0.28390198998E+03  0.00000000000E+00 0. -1.
         -1   -1    0    0    0  501 -0.00000000000E+00 -0.00000000000E+00 -0.12371662230E+03  0.12371662230E+03  0.00000000000E+00 0.  1.
         25    2    1    2    0    0  0.64638252835E+02 -0.13136228469E+03  0.19859284842E+02  0.19358759240E+03  0.12509041197E+03 0.  0.
         23    2    1    2    0    0 -0.64638252835E+02  0.13136228469E+03  0.14032608283E+03  0.21403101988E+03  0.68437667842E+02 0.  0.
          5    1    3    3  502    0  0.12071488308E+02 -0.36882848921E+02 -0.51020654545E+02  0.64238967650E+02  0.41800000000E+01 0.  1.
         -5    1    3    3    0  502  0.52566764527E+02 -0.94479435772E+02  0.70879939387E+02  0.12934862475E+03  0.41800000000E+01 0.  1.
        -11    1    4    4    0    0 -0.48266438595E+02  0.90795890176E+02  0.51469456211E+02  0.11498977211E+03  0.00000000000E+00 0.  1.
         11    1    4    4    0    0 -0.16371814240E+02  0.40566394517E+02  0.88856626623E+02  0.99041247773E+02  0.00000000000E+00 0. -1.
</event>
<event>
 8    1  0.3896452E-010  0.9086747E+02  0.7561462E-02  0.1300764E+00
          2   -1    0    0  501    0  0.00000000000E+00  0.00000000000E+00  0.10451958225E+03  0.10451958225E+03  0.00000000000E+00 0. -1.
         -2   -1    0    0    0  501 -0.00000000000E+00 -0.00000000000E+00 -0.13011001626E+03  0.13011001626E+03  0.00000000000E+00 0.  1.
         25    2    1    2    0    0  0.21181381111E+02 -0.13843901612E+02  0.44169819734E+02  0.13506595891E+03  0.12510609802E+03 0.  0.
         23    2    1    2    0    0 -0.21181381111E+02  0.13843901612E+02 -0.69760253745E+02  0.99563639609E+02  0.66378617130E+02 0.  0.
          5    1    3    3  502    0  0.10876753814E+02 -0.66331966006E+02  0.45703193676E+02  0.81390956500E+02  0.41800000000E+01 0. -1.
         -5    1    3    3    0  502  0.10304627297E+02  0.52488064395E+02 -0.15333739419E+01  0.53675002406E+02  0.41800000000E+01 0. -1.
        -11    1    4    4    0    0 -0.31718798229E+02 -0.11140678243E+02 -0.11895992421E+02  0.35661064321E+02  0.00000000000E+00 0.  1.
         11    1    4    4    0    0  0.10537417118E+02  0.24984579855E+02 -0.57864261324E+02  0.63902575289E+02  0.00000000000E+00 0. -1.
</event>
<event>
 8    1  0.3896452E-010  0.2667083E+03  0.7561462E-02  0.1103178E+00
         -1   -1    0    0    0  501 -0.00000000000E+00  0.00000000000E+00  0.23592220387E+03  0.23592220387E+03  0.00000000000E+00 0.  1.
          1   -1    0    0  501    0  0.00000000000E+00 -0.00000000000E+00 -0.33512337635E+03  0.33512337635E+03  0.00000000000E+00 0. -1.
         25    2    1    2    0    0  0.25178731251E+03  0.18788661999E+02  0.26236956270E+02  0.28299647306E+03  0.12509500922E+03 0.  0.
         23    2    1    2    0    0 -0.25178731251E+03 -0.18788661999E+02 -0.12543812875E+03  0.28804910716E+03  0.59056747556E+02 0.  0.
          5    1    3    3  502    0  0.25919044102E+03  0.26698617733E+01  0.36949024249E+02  0.26185781575E+03  0.41800000000E+01 0. -1.
         -5    1    3    3    0  502 -0.74031285116E+01  0.16118800225E+02 -0.10712067979E+02  0.21138657310E+02  0.41800000000E+01 0. -1.
        -11    1    4    4    0    0 -0.11928284380E+03  0.12109420313E+02 -0.81880577106E+02  0.14518768471E+03  0.00000000000E+00 0. -1.
         11    1    4    4    0    0 -0.13250446871E+03 -0.30898082311E+02 -0.43557551640E+02  0.14286142244E+03  0.00000000000E+00 0.  1.
</event>
<event>
 7    1  0.3896452E-010  0.9119126E+02  0.7561462E-02  0.1299992E+00
         -1   -1    0    0    0  501 -0.00000000000E+00  0.00000000000E+00  0.20733270126E+02  0.20733270126E+02  0.00000000000E+00 0.  1.
          1   -1    0    0  501    0  0.00000000000E+00 -0.00000000000E+00 -0.53084708258E+03  0.53084708258E+03  0.00000000000E+00 0. -1.
         25    2    1    2    0    0 -0.38523151754E+02  0.43734816755E+02 -0.35914979683E+03  0.38474999259E+03  0.12508881973E+03 0.  0.
          5    1    3    3  502    0 -0.75106553858E+02  0.43356416129E+02 -0.15824604175E+03  0.18049946089E+03  0.41800000000E+01 0. -1.
         -5    1    3    3    0  502  0.36583402104E+02  0.37840062594E+00 -0.20090375508E+03  0.20425053170E+03  0.41800000000E+01 0. -1.
        -11    1    1    2    0    0  0.19885963022E+02 -0.28010330626E+02 -0.37834240289E+02  0.51102445003E+02  0.00000000000E+00 0.  1.
         11    1    1    2    0    0  0.18637188732E+02 -0.15724486129E+02 -0.11312977534E+03  0.11572791511E+03  0.00000000000E+00 0. -1.
</event>
<event>
 7    1  0.3896452E-010  0.9499245E+02  0.7561462E-02  0.1291193E+00
          1   -1    0    0  501    0  0.00000000000E+00  0.00000000000E+00  0.74082722030E+02  0.74082722030E+02  0.00000000000E+00 0. -1.
         -1   -1    0    0    0  501 -0.00000000000E+00 -0.00000000000E+00 -0.15705191342E+03  0.15705191342E+03  0.00000000000E+00 0.  1.
         25    2    1    2    0    0  0.53078920757E+02  0.72294466847E+01 -0.23132194299E+02  0.13802560147E+03  0.12508529698E+03 0.  0.
          5    1    3    3  502    0 -0.28850821702E+02  0.22040715000E+02 -0.38692099165E+02  0.53223246504E+02  0.41800000000E+01 0. -1.
         -5    1    3    3    0  502  0.81929742459E+02 -0.14811268315E+02  0.15559904867E+02  0.84802354967E+02  0.41800000000E+01 0. -1.
        -11    1    1    2    0    0 -0.35784255535E+02 -0.26241208276E+02 -0.29204044826E+02  0.53122407610E+02  0.00000000000E+00 0.  1.
         11    1    1    2    0    0 -0.17294665222E+02  0.19011761592E+02 -0.30632952264E+02  0.39986626369E+02  0.00000000000E+00 0. -1.
</event>
<event>
 8    1  0.3896452E-010  0.1516722E+03  0.7561462E-02  0.1198433E+00
          1   -1    0    0  501    0  0.00000000000E+00  0.00000000000E+00  0.28691028115E+03  0.28691028115E+03  0.00000000000E+00 0. -1.
         -1   -1    0    0    0  501 -0.00000000000E+00 -0.00000000000E+00 -0.87377716260E+02  0.87377716260E+02  0.00000000000E+00 0.  1.
         25    2    1    2    0    0  0.19434435846E+02  0.10266427079E+03  0.12659530765E+03  0.20638045611E+03  0.12509544736E+03 0.  0.
         23    2    1    2    0    0 -0.19434435846E+02 -0.10266427079E+03  0.72937257239E+02  0.16790754130E+03  0.10934097649E+03 0.  0.
          5    1    3    3  502    0  0.25555781775E+02 -0.19726740020E+02  0.56328066839E+02  0.65058172182E+02  0.41800000000E+01 0. -1.
         -5    1    3    3    0  502 -0.61213459293E+01  0.12239101081E+03  0.70267240814E+02  0.14132228393E+03  0.41800000000E+01 0. -1.
        -11    1    4    4    0    0  0.43002792140E+02 -0.53899741966E+02  0.17271215750E+02  0.71082467665E+02  0.00000000000E+00 0.  1.
         11    1    4    4    0    0 -0.62437227986E+02 -0.48764528823E+02  0.55666041489E+02  0.96825073637E+02  0.00000000000E+00 0. -1.
</event>
<event>
 8    1  0.3896452E-010  0.9592122E+02  0.7561462E-02  0.1289115E+00
          2   -1    0    0  501    0  0.00000000000E+00  0.00000000000E+00  0.12766468917E+03  0.12766468917E+03  0.00000000000E+00 0. -1.
         -2   -1    0    0    0  501 -0.00000000000E+00 -0.00000000000E+00 -0.14010343748E+03  0.14010343748E+03  0.00000000000E+00 0.  1.
         25    2    1    2    0    0 -0.47712864959E+02  0.47083993473E+02 -0.70886325020E+02  0.15863906359E+03  0.12509221197E+03 0.  0.
         23    2    1    2    0    0  0.47712864959E+02 -0.47083993473E+02  0.58447576701E+02  0.10912906306E+03  0.63242495673E+02 0.  0.
          5    1    3    3  502    0  0.54423393216E+01  0.66221970670E+02  0.16567399770E+01  0.66597189461E+02  0.41800000000E+01 0.  1.
         -5    1    3    3    0  502 -0.53155204281E+02 -0.19137977197E+02 -0.72543064997E+02  0.92041874125E+02  0.41800000000E+01 0.  1.
        -11    1    4    4    0    0  0.35130595979E+02 -0.24722605491E+02 -0.24697291778E+01  0.43028659731E+02  0.00000000000E+00 0.  1.
         11    1    4    4    0    0  0.12582268980E+02 -0.22361387982E+02  0.60917305878E+02  0.66100403332E+02  0.00000000000E+00 0. -1.
</event>
<event>
 7    1  0.3896452E-010  0.1782456E+03  0.7561462E-02  0.1169512E+00
          2   -1    0    0  501    0  0.00000000000E+00  0.00000000000E+00  0.17687679396E+04  0.17687679396E+04  0.00000000000E+00 0.  1.
         -2   -1    0    0    0  501 -0.00000000000E+00 -0.00000000000E+00 -0.18178979036E+02  0.18178979036E+02  0.00000000000E+00 0. -1.
         25    2    1    2    0    0 -0.23267074074E+02 -0.67949514575E+02  0.66612305871E+03  0.68156093228E+03  0.12508749658E+03 0.  0.
          5    1    3    3  502    0 -0.74684963312E+02 -0.38619592850E+02  0.42352461677E+03  0.43181001622E+03  0.41800000000E+01 0.  1.
         -5    1    3    3    0  502  0.51417889238E+02 -0.29329921725E+02  0.24259844194E+03  0.24975091606E+03  0.41800000000E+01 0.  1.
        -11    1    1    2    0    0 -0.11282972193E+02 -0.69924365380E+02  0.31041339465E+03  0.31839157953E+03  0.00000000000E+00 0.  1.
         11    1    1    2    0    0  0.34550046267E+02  0.13787387996E+03  0.77405250720E+03  0.78699440682E+03  0.00000000000E+00 0. -1.
</event>
<event>
 7    1  0.3896452E-010  0.1271941E+03  0.7561462E-02  0.1231680E+00
         -3   -1    0    0    0  501 -0.00000000000E+00  0.00000000000E+00  0.11981823384E+03  0.11981823384E+03  0.00000000000E+00 0.  1.
          3   -1    0    0  501    0  0.00000000000E+00 -0.00000000000E+00 -0.20117694706E+03  0.20117694706E+03  0.00000000000E+00 0. -1.
         25    2    1    2    0    0  0.60064822369E+02 -0.10153083491E+03 -0.62445662723E+01  0.17205895735E+03  0.12509595067E+03 0.  0.
          5    1    3    3  502    0  0.30698066493E+02 -0.95183835285E+02  0.47151201841E+02  0.11064828070E+03  0.41800000000E+01 0.  1.
         -5    1    3    3    0  502  0.29366755877E+02 -0.63469996244E+01 -0.53395768113E+02  0.61410676656E+02  0.41800000000E+01 0.  1.
        -11    1    1    2    0    0 -0.21419930468E+01  0.37700645972E+02 -0.42312137382E+02  0.56711937110E+02  0.00000000000E+00 0. -1.
         11    1    1    2    0    0 -0.57922829323E+02  0.63830188937E+02 -0.32802009566E+02  0.92224286433E+02  0.00000000000E+00 0.  1.
</event>
<event>
 7    1  0.3896452E-010  0.1004948E+03  0.7561462E-02  0.1279259E+00
          1   -1    0    0  501    0  0.00000000000E+00  0.00000000000E+00  0.15384436176E+03  0.15384436176E+03  0.00000000000E+00 0. -1.
         -1   -1    0    0    0  501 -0.00000000000E+00 -0.00000000000E+00 -0.17902192074E+03  0.17902192074E+03  0.00000000000E+00 0.  1.
         25    2    1    2    0    0  0.80579650587E+01  0.26023232376E+02 -0.68543128158E+02  0.14521730053E+03  0.12509102498E+03 0.  0.
          5    1    3    3  502    0 -0.30659754587E+02  0.65550913602E+02 -0.36865786971E+02  0.81323437423E+02  0.41800000000E+01 0. -1.
         -5    1    3    3    0  502  0.38717719645E+02 -0.39527681226E+02 -0.31677341187E+02  0.63893863104E+02  0.41800000000E+01 0. -1.
        -11    1    1    2    0    0 -0.13412723093E+02 -0.48286969308E+02  0.10800925479E+03  0.11906944052E+03  0.00000000000E+00 0. -1.
         11    1    1    2    0    0  0.53547580345E+01  0.22263736932E+02 -0.64643685611E+02  0.68579541447E+02  0.00000000000E+00 0.  1.
</event>
<event>
 7    1  0.3896452E-010  0.8548606E+02  0.7561462E-02  0.1314166E+00
         -3   -1    0    0    0  501 -0.00000000000E+00  0.00000000000E+00  0.72729558901E+02  0.72729558901E+02  0.00000000000E+00 0.  1.
          3   -1    0    0  501    0  0.00000000000E+00 -0.00000000000E+00 -0.11023900171E+03  0.11023900171E+03  0.00000000000E+00 0. -1.
         25    2    1    2    0    0 -0.90265784700E+01 -0.19167025573E+02 -0.64449020856E+01  0.12703541829E+03  0.12509039431E+03 0.  0.
          5    1    3    3  502    0 -0.66760963342E+02 -0.10219738306E+02 -0.97632901177E+01  0.68368585705E+02  0.41800000000E+01 0. -1.
         -5    1    3    3    0  502  0.57734384872E+02 -0.89472872667E+01  0.33183880320E+01  0.58666832581E+02  0.41800000000E+01 0. -1.
        -11    1    1    2    0    0  0.13348893855E+02  0.30125871109E+02 -0.29157986016E+02  0.43999423016E+02  0.00000000000E+00 0. -1.
         11    1    1    2    0    0 -0.43223153845E+01 -0.10958845536E+02 -0.19065547100E+01  0.11933719313E+02  0.00000000000E+00 0.  1.
</event>
<event>
 8    1  0.3896452E-010  0.1528322E+03  0.7561462E-02  0.1197035E+00
         -1   -1    0    0    0  501 -0.00000000000E+00  0.00000000000E+00  0.64731469276E+02  0.64731469276E+02  0.00000000000E+00 0.  1.
          1   -1    0    0  501    0  0.00000000000E+00 -0.00000000000E+00 -0.56029116781E+03  0.56029116781E+03  0.00000000000E+00 0. -1.
         25    2    1    2    0    0  0.44361074941E+02  0.12525953026E+03 -0.13894926627E+03  0.22937230857E+03  0.12508757912E+03 0.  0.
         23    2    1    2    0    0 -0.44361074941E+02 -0.12525953026E+03 -0.35661043226E+03  0.39565032851E+03  0.10821426508E+03 0.  0.
          5    1    3    3  502    0  0.60141593113E+02  0.29437776006E+02 -0.99082325345E+01  0.67817692016E+02  0.41800000000E+01 0.  1.
         -5    1    3    3    0  502 -0.15780518173E+02  0.95821754251E+02 -0.12904103374E+03  0.16155461656E+03  0.41800000000E+01 0.  1.
        -11    1    4    4    0    0 -0.47240501755E+02 -0.61509729252E+02 -0.78647158156E+02  0.11045581598E+03  0.00000000000E+00 0.  1.
         11    1    4    4    0    0  0.28794268143E+01 -0.63749801005E+02 -0.27796327410E+03  0.28519451253E+03  0.00000000000E+00 0. -1.
</event>
<event>
 8    1  0.3896452E-010  0.9722762E+02  0.7561462E-02  0.1286236E+00
         -1   -1    0    0    0  501 -0.00000000000E+00  0.00000000000E+00  0.39705845382E+02  0.39705845382E+02  0.00000000000E+00 0.  1.
          1   -1    0    0  501    0  0.00000000000E+00 -0.00000000000E+00 -0.39885839740E+03  0.39885839740E+03  0.00000000000E+00 0. -1.
         25    2    1    2    0    0  0.46049556995E+02  0.10399343653E+02 -0.16733543092E+03  0.21418837298E+03  0.12508718812E+03 0.  0.
         23    2    1    2    0    0 -0.46049556995E+02 -0.10399343653E+02 -0.19181712110E+03  0.22437586980E+03  0.10640495738E+03 0.  0.
          5    1    3    3  502    0 -0.29952755502E+02 -0.78892430799E+01 -0.20746252324E+01  0.31323859730E+02  0.41800000000E+01 0. -1.
         -5    1    3    3    0  502  0.76002312497E+02  0.18288586732E+02 -0.16526080569E+03  0.18286451325E+03  0.41800000000E+01 0. -1.
        -11    1    4    4    0    0 -0.51423250306E+02 -0.33385879450E+02 -0.19116979197E+03  0.20076069581E+03  0.00000000000E+00 0.  1.
         11    1    4    4    0    0  0.53736933114E+01  0.22986535798E+02 -0.64732912724E+00  0.23615173995E+02  0.00000000000E+00 0. -1.
</event>
<event>
 8    1  0.3896452E-010  0.1117207E+03  0.7561462E-02  0.1257416E+00
         -2   -1    0    0    0  501 -0.00000000000E+00  0.00000000000E+00  0.27657435867E+03  0.27657435867E+03  0.00000000000E+00 0. -1.
          2   -1    0    0  501    0  0.00000000000E+00 -0.00000000000E+00 -0.63011705329E+02  0.63011705329E+02  0.00000000000E+00 0.  1.
         25    2    1    2    0    0 -0.79775628534E+02  0.21931253817E+02  0.12086591089E+03  0.19261592855E+03  0.12508875535E+03 0.  0.
         23    2    1    2    0    0  0.79775628534E+02 -0.21931253817E+02  0.92696742455E+02  0.14697013545E+03  0.78500979932E+02 0.  0.
          5    1    3    3  502    0 -0.56630256139E+02 -0.23167013441E+02 -0.16849822099E+00  0.61328600292E+02  0.41800000000E+01 0. -1.
         -5    1    3    3    0  502 -0.23145372395E+02  0.45098267258E+02  0.12103440911E+03  0.13128732826E+03  0.41800000000E+01 0. -1.
        -11    1    4    4    0    0  0.39810910553E+02  0.26976839108E+02  0.24331914875E+02  0.53895273715E+02  0.00000000000E+00 0.  1.
         11    1    4    4    0    0  0.39964717982E+02 -0.48908092925E+02  0.68364827580E+02  0.93074861735E+02  0.00000000000E+00 0. -1.
</event>
<event>
 8    1  0.3896452E-010  0.1780384E+03  0.7561462E-02  0.1169715E+00
         -2   -1    0    0    0  501 -0.00000000000E+00  0.00000000000E+00  0.33631575506E+03  0.33631575506E+03  0.00000000000E+00 0.  1.
          2   -1    0    0  501    0  0.00000000000E+00 -0.00000000000E+00 -0.11451743380E+03  0.11451743380E+03  0.00000000000E+00 0. -1.
         25    2    1    2    0    0  0.37018333428E+02 -0.14953091553E+03  0.13238102348E+03  0.23854141772E+03  0.12508965138E+03 0.  0.
         23    2    1    2    0    0 -0.37018333428E+02  0.14953091553E+03  0.89417297781E+02  0.21229177115E+03  0.11550970195E+03 0.  0.
          5    1    3    3  502    0  0.74280058283E+02 -0.13710844961E+03  0.12104344729E+03  0.19744680941E+03  0.41800000000E+01 0.  1.
         -5    1    3    3    0  502 -0.37261724855E+02 -0.12422465920E+02  0.11337576188E+02  0.41094608315E+02  0.41800000000E+01 0.  1.
        -11    1    4    4    0    0  0.15908176661E+01  0.87532288585E+02 -0.10878729959E+02  0.88220060141E+02  0.00000000000E+00 0. -1.
         11    1    4    4    0    0 -0.38609151094E+02  0.61998626945E+02  0.10029602774E+03  0.12407171101E+03  0.00000000000E+00 0.  1.
</event>
<event>
 8    1  0.3896452E-010  0.9092057E+02  0.7561462E-02  0.1300638E+00
         -2   -1    0    0    0  501 -0.00000000000E+00  0.00000000000E+00  0.21228332674E+02  0.21228332674E+02  0.00000000000E+00 0. -1.
          2   -1    0    0  501    0  0.00000000000E+00 -0.00000000000E+00 -0.88729477612E+03  0.88729477612E+03  0.00000000000E+00 0.  1.
         25    2    1    2    0    0 -0.37576041336E+01  0.11438075091E+02 -0.78531485928E+03  0.79530611037E+03  0.12508969519E+03 0.  0.
         23    2    1    2    0    0  0.37576041336E+01 -0.11438075091E+02 -0.80751584173E+02  0.11321699843E+03  0.78436733970E+02 0.  0.
          5    1    3    3  502    0 -0.55628648282E+02 -0.75634102843E+01 -0.57737078909E+03  0.58010882788E+03  0.41800000000E+01 0. -1.
         -5    1    3    3    0  502  0.51871044148E+02  0.19001485375E+02 -0.20794407018E+03  0.21519728249E+03  0.41800000000E+01 0. -1.
        -11    1    4    4    0    0 -0.32029153684E+02  0.15708443969E+01 -0.64066625675E+02  0.71644028106E+02  0.00000000000E+00 0.  1.
         11    1    4    4    0    0  0.35786757818E+02 -0.13008919487E+02 -0.16684958498E+02  0.41572970322E+02  0.00000000000E+00 0. -1.
</event>
<event>
 8    1  0.3896452E-010  0.9757056E+02  0.7561462E-02  0.1285489E+00
          3   -1    0    0  501    0  0.00000000000E+00  0.00000000000E+00  0.52025696202E+03  0.52025696202E+03  0.00000000000E+00 0. -1.
         -3   -1    0    0    0  501 -0.00000000000E+00 -0.00000000000E+00 -0.21777189334E+02  0.21777189334E+02  0.00000000000E+00 0.  1.
         25    2    1    2    0    0 -0.54812918536E+01 -0.22760145107E+02  0.35964132022E+03  0.38149305039E+03  0.12508796711E+03 0.  0.
         23    2    1    2    0    0  0.54812918536E+01  0.22760145107E+02  0.13883845246E+03  0.16054110096E+03  0.77131449175E+02 0.  0.
          5    1    3    3  502    0 -0.41529476872E+02 -0.55053352843E+02  0.13490463215E+03  0.15156616141E+03  0.41800000000E+01 0.  1.
         -5    1    3    3    0  502  0.36048185019E+02  0.32293207736E+02  0.22473668808E+03  0.22992688898E+03  0.41800000000E+01 0.  1.
        -11    1    4    4    0    0  0.17462431332E+02  0.47162329007E+02  0.67325059068E+02  0.84035024626E+02  0.00000000000E+00 0. -1.
         11    1    4    4    0    0 -0.11981139479E+02 -0.24402183900E+02  0.71513393391E+02  0.76506076338E+02  0.00000000000E+00 0.  1.
</event>
<event>
 8    1  0.3896452E-010  0.2735216E+03  0.7561462E-02  0.1099281E+00
         -2   -1    0    0    0  501 -0.00000000000E+00  0.00000000000E+00  0.19229640835E+04  0.19229640835E+04  0.00000000000E+00 0.  1.
          2   -1    0    0  501    0  0.00000000000E+00 -0.00000000000E+00 -0.40275276058E+02  0.40275276058E+02  0.00000000000E+00 0. -1.
         25    2    1    2    0    0 -0.15614426734E+03  0.20752774351E+03  0.10218188751E+04  0.10617031537E+04  0.12510386294E+03 0.  0.
         23    2    1    2    0    0  0.15614426734E+03 -0.20752774351E+03  0.86086993232E+03  0.90153620583E+03  0.64974560428E+02 0.  0.
          5    1    3    3  502    0 -0.15861553174E+03  0.13926203480E+03  0.86870282391E+03  0.89398818220E+03  0.41800000000E+01 0. -1.
         -5    1    3    3    0  502  0.24712643962E+01  0.68265708713E+02  0.15311605117E+03  0.16771497148E+03  0.41800000000E+01 0. -1.
        -11    1    4    4    0    0  0.10988543067E+03 -0.18696357950E+03  0.68300425313E+03  0.71660658504E+03  0.00000000000E+00 0. -1.
         11    1    4    4    0    0  0.46258836673E+02 -0.20564164016E+02  0.17786567919E+03  0.18492962079E+03  0.00000000000E+00 0.  1.
</event>
<event>
 8    1  0.3896452E-010  0.9440633E+02  0.7561462E-02  0.1292519E+00
         -2   -1    0    0    0  501 -0.00000000000E+00  0.00000000000E+00  0.10337193477E+03  0.10337193477E+03  0.00000000000E+00 0.  1.
          2   -1    0    0  501    0  0.00000000000E+00 -0.00000000000E+00 -0.14065365496E+03  0.14065365496E+03  0.00000000000E+00 0. -1.
         25    2    1    2    0    0  0.64597639015E+02 -0.29350830297E+01 -0.43648314641E+01  0.14087641303E+03  0.12508254201E+03 0.  0.
         23    2    1    2    0    0 -0.64597639015E+02  0.29350830297E+01 -0.32916888729E+02  0.10314917670E+03  0.73312764313E+02 0.  0.
          5    1    3    3  502    0 -0.26038283687E+02  0.29003415171E+01  0.33203127997E+02  0.42500874192E+02  0.41800000000E+01 0. -1.
         -5    1    3    3    0  502  0.90635922702E+02 -0.58354245469E+01 -0.37567959461E+02  0.98375538839E+02  0.41800000000E+01 0. -1.
        -11    1    4    4    0    0 -0.59376108206E+02 -0.73483745250E+01  0.82518473438E+01  0.60395478460E+02  0.00000000000E+00 0.  1.
         11    1    4    4    0    0 -0.52215308096E+01  0.10283457555E+02 -0.41168736073E+02  0.42753698239E+02  0.00000000000E+00 0. -1.
</event>
<event>
 8    1  0.3896452E-010  0.1194672E+03  0.7561462E-02  0.1243979E+00
          1   -1    0    0  501    0  0.00000000000E+00  0.00000000000E+00  0.21081272785E+03  0.21081272785E+03  0.00000000000E+00 0. -1.
         -1   -1    0    0    0  501 -0.00000000000E+00 -0.00000000000E+00 -0.99270219017E+02  0.99270219017E+02  0.00000000000E+00 0.  1.
         25    2    1    2    0    0  0.79252231283E+02 -0.65995904374E+02  0.61388939249E+02  0.17335628209E+03  0.12508966032E+03 0.  0.
         23    2    1    2    0    0 -0.79252231283E+02  0.65995904374E+02  0.50153569584E+02  0.13672666478E+03  0.74447463101E+02 0.  0.
          5    1    3    3  502    0  0.20112987049E+02  0.45550905469E+01  0.77058364980E+02  0.79879566294E+02  0.41800000000E+01 0. -1.
         -5    1    3    3    0  502  0.59139244233E+02 -0.70550994921E+02 -0.15669425731E+02  0.93476715794E+02  0.41800000000E+01 0. -1.
        -11    1    4    4    0    0 -0.13939548402E+02 -0.15797421715E+02  0.10066028367E+01  0.21092244825E+02  0.00000000000E+00 0. -1.
         11    1    4    4    0    0 -0.65312682881E+02  0.81793326089E+02  0.49146966747E+02  0.11563441995E+03  0.00000000000E+00 0.  1.
</event>
<event>
 8    1  0.3896452E-010  0.9303142E+02  0.7561462E-02  0.1295672E+00
          2   -1    0    0  501    0  0.00000000000E+00  0.00000000000E+00  0.83819407456E+03  0.83819407456E+03  0.00000000000E+00 0. -1.
         -2   -1    0    0    0  501 -0.00000000000E+00 -0.00000000000E+00 -0.18910133875E+02  0.18910133875E+02  0.00000000000E+00 0.  1.
         25    2    1    2    0    0 -0.16050254349E+02  0.11558049144E+02  0.34198075051E+03  0.36467739079E+03  0.12509023330E+03 0.  0.
         23    2    1    2    0    0  0.16050254349E+02 -0.11558049144E+02  0.47730319018E+03  0.49242681765E+03  0.11947650908E+03 0.  0.
          5    1    3    3  502    0 -0.39379679419E+02 -0.11713187155E+02  0.30271637087E+02  0.51203538124E+02  0.41800000000E+01 0. -1.
         -5    1    3    3    0  502  0.23329425071E+02  0.23271236299E+02  0.31170911342E+03  0.31347385266E+03  0.41800000000E+01 0. -1.
        -11    1    4    4    0    0 -0.71866742434E+00 -0.60145850873E+02  0.35012876453E+03  0.35525792266E+03  0.00000000000E+00 0. -1.
         11    1    4    4    0    0  0.16768921773E+02  0.48587801729E+02  0.12717442564E+03  0.13716889499E+03  0.00000000000E+00 0.  1.
</event>
<event>
 8    1  0.3896452E-010  0.9711916E+02  0.7561462E-02  0.1286473E+00
         -1   -1    0    0    0  501 -0.00000000000E+00  0.00000000000E+00  0.76895897998E+03  0.76895897998E+03  0.00000000000E+00 0.  1.
          1   -1    0    0  501    0  0.00000000000E+00 -0.00000000000E+00 -0.29062555796E+02  0.29062555796E+02  0.00000000000E+00 0. -1.
         25    2    1    2    0    0 -0.17268908930E+02 -0.93262693930E+02  0.56079039061E+03  0.58235244159E+03  0.12510938708E+03 0.  0.
         23    2    1    2    0    0  0.17268908930E+02  0.93262693930E+02  0.17910603358E+03  0.21566909419E+03  0.73743078507E+02 0.  0.
          5    1    3    3  502    0 -0.17023081304E+02 -0.49972153214E+02  0.52011280225E+03  0.52280187534E+03  0.41800000000E+01 0.  1.
         -5    1    3    3    0  502 -0.24582762582E+00 -0.43290540716E+02  0.40677588362E+02  0.59550566258E+02  0.41800000000E+01 0.  1.
        -11    1    4    4    0    0  0.22351403086E+01  0.70340767630E+02  0.17412327927E+03  0.18780770971E+03  0.00000000000E+00 0.  1.
         11    1    4    4    0    0  0.15033768621E+02  0.22921926300E+02  0.49827543069E+01  0.27861384473E+02  0.00000000000E+00 0. -1.
</event>
<event>
 8    1  0.3896452E-010  0.1190133E+03  0.7561462E-02  0.1244734E+00
         -2   -1    0    0    0  501 -0.00000000000E+00  0.00000000000E+00  0.22287621971E+02  0.22287621971E+02  0.00000000000E+00 0.  1.
          2   -1    0    0  501    0  0.00000000000E+00 -0.00000000000E+00 -0.77832309066E+03  0.77832309066E+03  0.00000000000E+00 0. -1.
         25    2    1    2    0    0  0.37010037841E+02  0.79006243609E+01 -0.54710109189E+03  0.56249395034E+03  0.12509067372E+03 0.  0.
         23    2    1    2    0    0 -0.37010037841E+02 -0.79006243609E+01 -0.20893437679E+03  0.23811676229E+03  0.10776760140E+03 0.  0.
          5    1    3    3  502    0  0.29819143969E+02 -0.53767613351E+02 -0.36214095079E+03  0.36734680920E+03  0.41800000000E+01 0.  1.
         -5    1    3    3    0  502  0.71908938716E+01  0.61668237712E+02 -0.18496014111E+03  0.19514714114E+03  0.41800000000E+01 0.  1.
        -11    1    4    4    0    0  0.21030163535E+02  0.35801735148E+02 -0.79183147511E+02  0.89409187826E+02  0.00000000000E+00 0.  1.
         11    1    4    4    0    0 -0.58040201375E+02 -0.43702359509E+02 -0.12975122928E+03  0.14870757446E+03  0.00000000000E+00 0. -1.
</event>
<event>
 8    1  0.3896452E-010  0.1002126E+03  0.7561462E-02  0.1279850E+00
         -2   -1    0    0    0  501 -0.00000000000E+00  0.00000000000E+00  0.16244379364E+03  0.16244379364E+03  0.00000000000E+00 0.  1.
          2   -1    0    0  501    0  0.00000000000E+00 -0.00000000000E+00 -0.10222166367E+03  0.10222166367E+03  0.00000000000E+00 0. -1.
         25    2    1    2    0    0  0.15542731150E+02 -0.26463266112E+02  0.50483210350E+02  0.13833617806E+03  0.12508582130E+03 0.  0.
         23    2    1    2    0    0 -0.15542731150E+02  0.26463266112E+02  0.97389196189E+01  0.12632927924E+03  0.12215710906E+03 0.  0.
          5    1    3    3  502    0 -0.41160580465E+01  0.37252891523E+02 -0.18756255754E+02  0.42118753431E+02  0.41800000000E+01 0.  1.
         -5    1    3    3    0  502  0.19658789196E+02 -0.63716157636E+02  0.69239466104E+02  0.96217424632E+02  0.41800000000E+01 0.  1.
        -11    1    4    4    0    0  0.75581562812E+01  0.57063259411E+02  0.45903310645E+02  0.73623740934E+02  0.00000000000E+00 0.  1.
         11    1    4    4    0    0 -0.23100887431E+02 -0.30599993298E+02 -0.36164391026E+02  0.52705538307E+02  0.00000000000E+00 0. -1.
</event>
<event>
 7    1  0.3896452E-010  0.1258097E+03  0.7561462E-02  0.1233809E+00
          1   -1    0    0  501    0  0.00000000000E+00  0.00000000000E+00  0.43844921927E+03  0.43844921927E+03  0.00000000000E+00 0. -1.
         -1   -1    0    0    0  501 -0.00000000000E+00 -0.00000000000E+00 -0.71421165535E+02  0.71421165535E+02  0.00000000000E+00 0.  1.
         25    2    1    2    0    0  0.21328752026E+02  0.32989916393E+02  0.34360559010E+03  0.36776668926E+03  0.12507711998E+03 0.  0.
          5    1    3    3  502    0 -0.26716605861E+02  0.66731900777E+02  0.17793607374E+03  0.19195218766E+03  0.41800000000E+01 0. -1.
         -5    1    3    3    0  502  0.48045357887E+02 -0.33741984383E+02  0.16566951636E+03  0.17581450161E+03  0.41800000000E+01 0. -1.
        -11    1    1    2    0    0 -0.61755667503E+02 -0.47389625916E+02  0.49156289072E+02  0.92064541863E+02  0.00000000000E+00 0. -1.
         11    1    1    2    0    0  0.40426915477E+02  0.14399709522E+02 -0.25733825433E+02  0.50039153677E+02  0.00000000000E+00 0.  1.
</event>
<event>
 8    1  0.3896452E-010  0.1132289E+03  0.7561462E-02  0.1254705E+00
          2   -1    0    0  501    0  0.00000000000E+00  0.00000000000E+00  0.10996430672E+04  0.10996430672E+04  0.00000000000E+00 0. -1.
         -2   -1    0    0    0  501 -0.00000000000E+00 -0.00000000000E+00 -0.19364740550E+02  0.19364740550E+02  0.00000000000E+00 0.  1.
         25    2    1    2    0    0 -0.49148891382E+02 -0.73293634501E+02  0.51353862113E+03  0.53586736102E+03  0.12507734738E+03 0.  0.
         23    2    1    2    0    0  0.49148891382E+02  0.73293634501E+02  0.56673970551E+03  0.58314044672E+03  0.10522032324E+03 0.  0.
          5    1    3    3  502    0 -0.65439450081E+01 -0.16348623598E+02  0.70888608554E+00  0.18112858120E+02  0.41800000000E+01 0.  1.
         -5    1    3    3    0  502 -0.42604946374E+02 -0.56945010903E+02  0.51282973505E+03  0.51775450290E+03  0.41800000000E+01 0.  1.
        -11    1    4    4    0    0  0.82447810941E+02  0.49148264118E+02  0.38158747900E+03  0.39347451953E+03  0.00000000000E+00 0.  1.
         11    1    4    4    0    0 -0.33298919559E+02  0.24145370383E+02  0.18515222651E+03  0.18966592719E+03  0.00000000000E+00 0. -1.
</event>
<event>
 8    1  0.3896452E-010  0.1263355E+03  0.7561462E-02  0.1232997E+00
         -2   -1    0    0    0  501 -0.00000000000E+00  0.00000000000E+00  0.28837480402E+02  0.28837480402E+02  0.00000000000E+00 0.  1.
          2   -1    0    0  501    0  0.00000000000E+00 -0.00000000000E+00 -0.70009978600E+03  0.70009978600E+03  0.00000000000E+00 0. -1.
         25    2    1    2    0    0  0.25508735955E+02 -0.84545435092E+02 -0.23673847770E+03  0.28194200122E+03  0.12509020356E+03 0.  0.
         23    2    1    2    0    0 -0.25508735955E+02  0.84545435092E+02 -0.43452382790E+03  0.44699526518E+03  0.56525957513E+02 0.  0.
          5    1    3    3  502    0  0.18363023225E+02 -0.11741749406E+03 -0.17656825538E+03  0.21287998906E+03  0.41800000000E+01 0. -1.
         -5    1    3    3    0  502  0.71457127302E+01  0.32872058965E+02 -0.60170222318E+02  0.69062012168E+02  0.41800000000E+01 0. -1.
        -11    1    4    4    0    0  0.12490946718E+01  0.68792242460E+02 -0.35536337485E+03  0.36196278959E+03  0.00000000000E+00 0. -1.
         11    1    4    4    0    0 -0.26757830627E+02  0.15753192633E+02 -0.79160453046E+02  0.85032475587E+02  0.00000000000E+00 0.  1.
</event>
<event>
 7    1  0.3896452E-010  0.1523164E+03  0.7561462E-02  0.1197655E+00
          1   -1    0    0  501    0  0.00000000000E+00  0.00000000000E+00  0.30210611901E+03  0.30210611901E+03  0.00000000000E+00 0. -1.
         -1   -1    0    0    0  501 -0.00000000000E+00 -0.00000000000E+00 -0.11787116983E+03  0.11787116983E+03  0.00000000000E+00 0.  1.
         25    2    1    2    0    0 -0.32781421101E+02 -0.10258376539E+03  0.18374002117E+03  0.24699349426E+03  0.12508932943E+03 0.  0.
          5    1    3    3  502    0 -0.81691022039E+01 -0.12119198940E+03  0.99139442821E+02  0.15684493632E+03  0.41800000000E+01 0.  1.
         -5    1    3    3    0  502 -0.24612318897E+02  0.18608224012E+02  0.84600578345E+02  0.90148557940E+02  0.41800000000E+01 0.  1.
        -11    1    1    2    0    0 -0.37803176197E+02  0.18236011625E+02 -0.37838308539E+02  0.56509909252E+02  0.00000000000E+00 0.  1.
         11    1    1    2    0    0  0.70584597298E+02  0.84347753763E+02  0.38333236547E+02  0.11647388533E+03  0.00000000000E+00 0. -1.
</event>
<event>
 7    1  0.3896452E-010  0.2846798E+03  0.7561462E-02  0.1093160E+00
          1   -1    0    0  501    0  0.00000000000E+00  0.00000000000E+00  0.76665843578E+03  0.76665843578E+03  0.00000000000E+00 0. -1.
         -1   -1    0    0    0  501 -0.00000000000E+00 -0.00000000000E+00 -0.11575341825E+03  0.11575341825E+03  0.00000000000E+00 0.  1.
         25    2    1    2    0    0 -0.26565039396E+02  0.18433430697E+03  0.29298858449E+03  0.36901682574E+03  0.12508504704E+03 0.  0.
          5    1    3    3  502    0 -0.41398573329E+02  0.33791093498E+02  0.15578408627E+03  0.16474778848E+03  0.41800000000E+01 0. -1.
         -5    1    3    3    0  502  0.14833533934E+02  0.15054321348E+03  0.13720449822E+03  0.20426903726E+03  0.41800000000E+01 0. -1.
        -11    1    1    2    0    0  0.16429252364E+03 -0.49259513831E+02  0.20458748392E+03  0.26697297917E+03  0.00000000000E+00 0. -1.
         11    1    1    2    0    0 -0.13772748424E+03 -0.13507479314E+03  0.15332894911E+03  0.24642204912E+03  0.00000000000E+00 0.  1.
</event>
<event>
 7    1  0.3896452E-010  0.1237317E+03  0.7561462E-02  0.1237065E+00
         -1   -1    0    0    0  501 -0.00000000000E+00  0.00000000000E+00  0.11566831209E+03  0.11566831209E+03  0.00000000000E+00 0.  1.
          1   -1    0    0  501    0  0.00000000000E+00 -0.00000000000E+00 -0.16629965468E+03  0.16629965468E+03  0.00000000000E+00 0. -1.
         25    2    1    2    0    0  0.19474661927E+02  0.13566588650E+02 -0.33943017980E+02  0.13177324627E+03  0.12509494466E+03 0.  0.
          5    1    3    3  502    0  0.41996899643E+02  0.56309607366E+02 -0.42960876164E+02  0.82447684880E+02  0.41800000000E+01 0.  1.
         -5    1    3    3    0  502 -0.22522237716E+02 -0.42743018715E+02  0.90178581843E+01  0.49325561394E+02  0.41800000000E+01 0.  1.
        -11    1    1    2    0    0  0.89633280867E+01  0.54289537318E+02  0.30378776016E+02  0.62853521340E+02  0.00000000000E+00 0.  1.
         11    1    1    2    0    0 -0.28437990014E+02 -0.67856125968E+02 -0.47067100625E+02  0.87341199149E+02  0.00000000000E+00 0. -1.
</event>
<event>
 8    1  0.3896452E-010  0.6532458E+02  0.7561462E-02  0.1376755E+00
          1   -1    0    0  501    0  0.00000000000E+00  0.00000000000E+00  0.49149920698E+02  0.49149920698E+02  0.00000000000E+00 0. -1.
         -1   -1    0    0    0  501 -0.00000000000E+00 -0.00000000000E+00 -0.26869824515E+03  0.26869824515E+03  0.00000000000E+00 0.  1.
         25    2    1    2    0    0 -0.12400165688E+02  0.11624215355E+02 -0.20622916808E+03  0.24179781411E+03  0.12508727612E+03 0.  0.
         23    2    1    2    0    0  0.12400165688E+02 -0.11624215355E+02 -0.13319156374E+02  0.76050351744E+02  0.72920296092E+02 0.  0.
          5    1    3    3  502    0  0.51693566759E+01 -0.22324242637E+02  0.76285942544E+01  0.24510444877E+02  0.41800000000E+01 0. -1.
         -5    1    3    3    0  502 -0.17569522364E+02  0.33948457992E+02 -0.21385776234E+03  0.21728736923E+03  0.41800000000E+01 0. -1.
        -11    1    4    4    0    0 -0.67290572065E+01  0.25912973123E+02 -0.19967618935E+02  0.33398625614E+02  0.00000000000E+00 0.  1.
         11    1    4    4    0    0  0.19129222894E+02 -0.37537188479E+02  0.66484625617E+01  0.42651726130E+02  0.00000000000E+00 0. -1.
</event>
<event>
 8    1  0.3896452E-010  0.1232667E+03  0.7561462E-02  0.1237803E+00
          1   -1    0    0  501    0  0.00000000000E+00  0.00000000000E+00  0.51463665176E+02  0.51463665176E+02  0.00000000000E+00 0. -1.
         -1   -1    0    0    0  501 -0.00000000000E+00 -0.00000000000E+00 -0.33612696457E+03  0.33612696457E+03  0.00000000000E+00 0.  1.
         25    2    1    2    0    0  0.69907565405E+02 -0.47333761233E+02 -0.18201238250E+03  0.23644308192E+03  0.12509704613E+03 0.  0.
         23    2    1    2    0    0 -0.69907565405E+02  0.47333761233E+02 -0.10265091689E+03  0.15114754783E+03  0.71977898150E+02 0.  0.
          5    1    3    3  502    0 -0.21981821775E+02 -0.54099464165E+02 -0.75723005374E+02  0.95715194480E+02  0.41800000000E+01 0.  1.
         -5    1    3    3    0  502  0.91889387180E+02  0.67657029321E+01 -0.10628937713E+03  0.14072788744E+03  0.41800000000E+01 0.  1.
        -11    1    4    4    0    0 -0.51905611321E+02  0.55499134098E+02 -0.40872835151E+02  0.86284036910E+02  0.00000000000E+00 0. -1.
         11    1    4    4    0    0 -0.18001954084E+02 -0.81653728653E+01 -0.61778081741E+02  0.64863510916E+02  0.00000000000E+00 0.  1.
</event>
<event>
 8    1  0.3896452E-010  0.1485751E+03  0.7561462E-02  0.1202235E+00
         -3   -1    0    0    0  501 -0.00000000000E+00  0.00000000000E+00  0.46497779204E+03  0.46497779204E+03  0.00000000000E+00 0.  1.
          3   -1    0    0  501    0  0.00000000000E+00 -0.00000000000E+00 -0.54253882367E+02  0.54253882367E+02  0.00000000000E+00 0. -1.
         25    2    1    2    0    0  0.64466330845E+02  0.78848855909E+02  0.27792400937E+03  0.32134451506E+03  0.12508993760E+03 0.  0.
         23    2    1    2    0    0 -0.64466330845E+02 -0.78848855909E+02  0.13279990031E+03  0.19788715935E+03  0.10559575948E+03 0.  0.
          5    1    3    3  502    0  0.82177750958E+02  0.95457669497E+02  0.17589947852E+03  0.21638726479E+03  0.41800000000E+01 0.  1.
         -5    1    3    3    0  502 -0.17711420114E+02 -0.16608813588E+02  0.10202453085E+03  0.10495725028E+03  0.41800000000E+01 0.  1.
        -11    1    4    4    0    0  0.31160203269E+00 -0.81646550567E+02  0.68572742608E+02  0.10662306197E+03  0.00000000000E+00 0.  1.
         11    1    4    4    0    0 -0.64777932877E+02  0.27976946574E+01  0.64227157701E+02  0.91264097375E+02  0.00000000000E+00 0. -1.
</event>
<event>
 8    1  0.3896452E-010  0.6884150E+02  0.7561462E-02  0.1364077E+00
         -2   -1    0    0    0  501 -0.00000000000E+00  0.00000000000E+00  0.23802506258E+02  0.23802506258E+02  0.00000000000E+00 0.  1.
          2   -1    0    0  501    0  0.00000000000E+00 -0.00000000000E+00 -0.53320925820E+03  0.53320925820E+03  0.00000000000E+00 0. -1.
         25    2    1    2    0    0  0.44384150392E+02  0.26231518281E+02 -0.34533168930E+03  0.37088897065E+03  0.12508640038E+03 0.  0.
         23    2    1    2    0    0 -0.44384150392E+02 -0.26231518281E+02 -0.16407506264E+03  0.18612279380E+03  0.71154921374E+02 0.  0.
          5    1    3    3  502    0  0.29375313780E+02 -0.44726881857E+01 -0.33295009503E+03  0.33429949474E+03  0.41800000000E+01 0.  1.
         -5    1    3    3    0  502  0.15008836612E+02  0.30704206467E+02 -0.12381594269E+02  0.36589475916E+02  0.41800000000E+01 0.  1.
        -11    1    4    4    0    0  0.25786368985E+01 -0.26156026919E+02 -0.11590744703E+03  0.11885000374E+03  0.00000000000E+00 0. -1.
         11    1    4    4    0    0 -0.46962787290E+02 -0.75491362248E-01 -0.48167615605E+02  0.67272790057E+02  0.00000000000E+00 0.  1.
</event>
<event>
 8    1  0.3896452E-010  0.1479375E+03  0.7561462E-02  0.1203031E+00
          2   -1    0    0  501    0  0.00000000000E+00  0.00000000000E+00  0.12159531352E+03  0.12159531352E+03  0.00000000000E+00 0. -1.
         -2   -1    0    0    0  501 -0.00000000000E+00 -0.00000000000E+00 -0.20950876012E+03  0.20950876012E+03  0.00000000000E+00 0.  1.
         25    2    1    2    0    0 -0.57344328723E+02  0.10676653118E+03 -0.67765007832E+02  0.18688983704E+03  0.12509296818E+03 0.  0.
         23    2    1    2    0    0  0.57344328723E+02 -0.10676653118E+03 -0.20148438763E+02  0.14421423660E+03  0.75526963635E+02 0.  0.
          5    1    3    3  502    0  0.19515885204E+02  0.67850848552E+02 -0.71482830227E+02  0.10055781840E+03  0.41800000000E+01 0. -1.
         -5    1    3    3    0  502 -0.76860213927E+02  0.38915682627E+02  0.37178223954E+01  0.86332018641E+02  0.41800000000E+01 0. -1.
        -11    1    4    4    0    0  0.40977583265E+02 -0.11957850494E+02 -0.21922333683E+02  0.47986886050E+02  0.00000000000E+00 0. -1.
         11    1    4    4    0    0  0.16366745458E+02 -0.94808680686E+02  0.17738949191E+01  0.96227350548E+02  0.00000000000E+00 0.  1.
</event>
<event>
 8    1  0.3896452E-010  0.1219131E+03  0.7561462E-02  0.1239974E+00
         -2   -1    0    0    0  501 -0.00000000000E+00  0.00000000000E+00  0.42713598032E+02  0.42713598032E+02  0.00000000000E+00 0.  1.
          2   -1    0    0  501    0  0.00000000000E+00 -0.00000000000E+00 -0.56199374353E+03  0.56199374353E+03  0.00000000000E+00 0. -1.
         25    2    1    2    0    0  0.98035564041E+02  0.28042587751E+02 -0.29212685460E+03  0.33374075963E+03  0.12508971547E+03 0.  0.
         23    2    1    2    0    0 -0.98035564041E+02 -0.28042587751E+02 -0.22715329090E+03  0.27096658193E+03  0.10689673714E+03 0.  0.
          5    1    3    3  502    0  0.90335581987E+02  0.58833863172E+02 -0.13216912565E+03  0.17061093459E+03  0.41800000000E+01 0.  1.
         -5    1    3    3    0  502  0.76999820544E+01 -0.30791275421E+02 -0.15995772895E+03  0.16312982504E+03  0.41800000000E+01 0.  1.
        -11    1    4    4    0    0 -0.81352218014E+02 -0.30856534863E+02 -0.23624618606E+03  0.25175895127E+03  0.00000000000E+00 0. -1.
         11    1    4    4    0    0 -0.16683346027E+02  0.28139471120E+01  0.90928951600E+01  0.19207630655E+02  0.00000000000E+00 0.  1.
</event>
<event>
 8    1  0.3896452E-010  0.9200846E+02  0.7561462E-02  0.1298060E+00
         -2   -1    0    0    0  501 -0.00000000000E+00  0.00000000000E+00  0.89269359141E+02  0.89269359141E+02  0.00000000000E+00 0.  1.
          2   -1    0    0  501    0  0.00000000000E+00 -0.00000000000E+00 -0.12733665078E+03  0.12733665078E+03  0.00000000000E+00 0. -1.
         25    2    1    2    0    0  0.40603094587E+02 -0.19416471772E+01 -0.18782194600E+02  0.13288131454E+03  0.12510911891E+03 0.  0.
         23    2    1    2    0    0 -0.40603094587E+02  0.19416471772E+01 -0.19285097043E+02  0.83724695387E+02  0.70608274062E+02 0.  0.
          5    1    3    3  502    0 -0.34272443413E+02  0.30414046200E+02  0.84606498202E+01  0.46783218990E+02  0.41800000000E+01 0. -1.
         -5    1    3    3    0  502  0.74875537999E+02 -0.32355693377E+02 -0.27242844420E+02  0.86098095546E+02  0.41800000000E+01 0. -1.
        -11    1    4    4    0    0 -0.18298813217E+02  0.20381649926E+02  0.20723118418E+02  0.34346846374E+02  0.00000000000E+00 0.  1.
         11    1    4    4    0    0 -0.22304281370E+02 -0.18440002749E+02 -0.40008215461E+02  0.49377849013E+02  0.00000000000E+00 0. -1.
</event>
<event>
 8    1  0.3896452E-010  0.1249868E+03  0.7561462E-02  0.1235090E+00
         -2   -1    0    0    0  501 -0.00000000000E+00  0.00000000000E+00  0.13798379780E+02  0.13798379780E+02  0.00000000000E+00 0. -1.
          2   -1    0    0  501    0  0.00000000000E+00 -0.00000000000E+00 -0.13273140829E+04  0.13273140829E+04  0.00000000000E+00 0.  1.
         25    2    1    2    0    0 -0.50163240159E+02  0.64957430232E+02 -0.90993297858E+03  0.92215044782E+03  0.12509038528E+03 0.  0.
         23    2    1    2    0    0  0.50163240159E+02 -0.64957430232E+02 -0.40358272455E+03  0.41896201488E+03  0.76904719931E+02 0.  0.
          5    1    3    3  502    0  0.29576086952E+02 -0.70725230701E+01 -0.87734665318E+02  0.92949499194E+02  0.41800000000E+01 0.  1.
         -5    1    3    3    0  502 -0.79739327111E+02  0.72029953302E+02 -0.82219831326E+03  0.82920094862E+03  0.41800000000E+01 0.  1.
        -11    1    4    4    0    0  0.28324869210E+02 -0.80235829543E+02 -0.28556538815E+03  0.29797261194E+03  0.00000000000E+00 0. -1.
         11    1    4    4    0    0  0.21838370949E+02  0.15278399311E+02 -0.11801733641E+03  0.12098940294E+03  0.00000000000E+00 0.  1.
</event>
<event>
 7    1  0.3896452E-010  0.2559613E+03  0.7561462E-02  0.1109594E+00
         -2   -1    0    0    0  501 -0.00000000000E+00  0.00000000000E+00  0.98441130969E+03  0.98441130969E+03  0.00000000000E+00 0.  1.
          2   -1    0    0  501    0  0.00000000000E+00 -0.00000000000E+00 -0.10532403270E+03  0.10532403270E+03  0.00000000000E+00 0. -1.
         25    2    1    2    0    0  0.15990790758E+02  0.20956804798E+03  0.54650689746E+03  0.59874127996E+03  0.12508740641E+03 0.  0.
          5    1    3    3  502    0 -0.48709661573E+02  0.41185745946E+02  0.13189867887E+03  0.14657295347E+03  0.41800000000E+01 0. -1.
         -5    1    3    3    0  502  0.64700452331E+02  0.16838230203E+03  0.41460821859E+03  0.45216832650E+03  0.41800000000E+01 0. -1.
        -11    1    1    2    0    0 -0.89633093844E+02 -0.89190817799E+02 -0.34922659781E+01  0.12649620316E+03  0.00000000000E+00 0. -1.
         11    1    1    2    0    0  0.73642303086E+02 -0.12037723018E+03  0.33607264551E+03  0.36449785926E+03  0.00000000000E+00 0.  1.
</event>
<event>
 8    1  0.3896452E-010  0.1011779E+03  0.7561462E-02  0.1277838E+00
         -2   -1    0    0    0  501 -0.00000000000E+00  0.00000000000E+00  0.23243721137E+02  0.23243721137E+02  0.00000000000E+00 0.  1.
          2   -1    0    0  501    0  0.00000000000E+00 -0.00000000000E+00 -0.10308682280E+04  0.10308682280E+04  0.00000000000E+00 0. -1.
         25    2    1    2    0    0 -0.94517123329E+01 -0.30739778334E+02 -0.79268085224E+03  0.80313397818E+03  0.12508790730E+03 0.  0.
         23    2    1    2    0    0  0.94517123329E+01  0.30739778334E+02 -0.21494365462E+03  0.25097797096E+03  0.12551851818E+03 0.  0.
          5    1    3    3  502    0 -0.46452489902E+02 -0.40414821333E+02 -0.20237534378E+03  0.21157609452E+03  0.41800000000E+01 0. -1.
         -5    1    3    3    0  502  0.37000777569E+02  0.96750429992E+01 -0.59030550846E+03  0.59155788366E+03  0.41800000000E+01 0. -1.
        -11    1    4    4    0    0 -0.43018590256E+02  0.37978388885E+01 -0.20536772206E+02  0.47820306362E+02  0.00000000000E+00 0.  1.
         11    1    4    4    0    0  0.52470302589E+02  0.26941939446E+02 -0.19440688241E+03  0.20315766460E+03  0.00000000000E+00 0. -1.
</event>
<event>
 8    1  0.3896452E-010  0.1201028E+03  0.7561462E-02  0.1242928E+00
          1   -1    0    0  501    0  0.00000000000E+00  0.00000000000E+00  0.39001382165E+03  0.39001382165E+03  0.00000000000E+00 0. -1.
         -1   -1    0    0    0  501 -0.00000000000E+00 -0.00000000000E+00 -0.50829509905E+02  0.50829509905E+02  0.00000000000E+00 0.  1.
         25    2    1    2    0    0 -0.45936045928E+02 -0.57267060603E+02  0.22410500086E+03  0.26694452111E+03  0.12508672749E+03 0.  0.
         23    2    1    2    0    0  0.45936045928E+02  0.57267060603E+02  0.11507931088E+03  0.17389881045E+03  0.10774002012E+03 0.  0.
          5    1    3    3  502    0 -0.47468421937E+02  0.47198880526E+01  0.19023163981E+03  0.19616594406E+03  0.41800000000E+01 0.  1.
         -5    1    3    3    0  502  0.15323760083E+01 -0.61986948655E+02  0.33873361046E+02  0.70778577044E+02  0.41800000000E+01 0.  1.
        -11    1    4    4    0    0  0.73035879034E+02  0.69154555679E+02  0.84774329843E+02  0.13154192943E+03  0.00000000000E+00 0. -1.
         11    1    4    4    0    0 -0.27099833106E+02 -0.11887495077E+02  0.30304981041E+02  0.42356881017E+02  0.00000000000E+00 0.  1.
</event>
<event>
 7    1  0.3896452E-010  0.1240613E+03  0.7561462E-02  0.1236544E+00
         -1   -1    0    0    0  501 -0.00000000000E+00  0.00000000000E+00  0.12818031997E+03  0.12818031997E+03  0.00000000000E+00 0.  1.
          1   -1    0    0  501    0  0.00000000000E+00 -0.00000000000E+00 -0.20234435086E+03  0.20234435086E+03  0.00000000000E+00 0. -1.
         25    2    1    2    0    0 -0.65024906205E+02  0.43864818688E+02  0.13764502502E+02  0.14828944764E+03  0.12509171838E+03 0.  0.
          5    1    3    3  502    0 -0.43003548911E+01 -0.23968912436E+02  0.45506010205E+02  0.51780992462E+02  0.41800000000E+01 0. -1.
         -5    1    3    3    0  502 -0.60724551314E+02  0.67833731124E+02 -0.31741507703E+02  0.96508455183E+02  0.41800000000E+01 0. -1.
        -11    1    1    2    0    0  0.62258010895E+02  0.22241299499E+02  0.70462697799E+01  0.66485977784E+02  0.00000000000E+00 0.  1.
         11    1    1    2    0    0  0.27668953096E+01 -0.66106118187E+02 -0.94974803176E+02  0.11574924540E+03  0.00000000000E+00 0. -1.
</event>
<event>
 8    1  0.3896452E-010  0.1333157E+03  0.7561462E-02  0.1222617E+00
         -2   -1    0    0    0  501 -0.00000000000E+00  0.00000000000E+00  0.28969169036E+02  0.28969169036E+02  0.00000000000E+00 0.  1.
          2   -1    0    0  501    0  0.00000000000E+00 -0.00000000000E+00 -0.88454758294E+03  0.88454758294E+03  0.00000000000E+00 0. -1.
         25    2    1    2    0    0 -0.89003411349E+02  0.52791492160E+02 -0.33227095413E+03  0.36980858406E+03  0.12508338423E+03 0.  0.
         23    2    1    2    0    0  0.89003411349E+02 -0.52791492160E+02 -0.52330745977E+03  0.54370816792E+03  0.10516332786E+03 0.  0.
          5    1    3    3  502    0  0.52988875959E+01  0.16778508673E+02  0.41411133356E+01  0.18553107090E+02  0.41800000000E+01 0. -1.
         -5    1    3    3    0  502 -0.94302298945E+02  0.36012983488E+02 -0.33641206747E+03  0.35125547697E+03  0.41800000000E+01 0. -1.
        -11    1    4    4    0    0  0.10850803381E+03 -0.21462126050E+02 -0.39663350364E+03  0.41176783806E+03  0.00000000000E+00 0.  1.
         11    1    4    4    0    0 -0.19504622459E+02 -0.31329366111E+02 -0.12667395614E+03  0.13194032985E+03  0.00000000000E+00 0. -1.
</event>
<event>
 8    1  0.3896452E-010  0.2101243E+03  0.7561462E-02  0.1141468E+00
          2   -1    0    0  501    0  0.00000000000E+00  0.00000000000E+00  0.22572170411E+04  0.22572170411E+04  0.00000000000E+00 0.  1.
         -2   -1    0    0    0  501 -0.00000000000E+00 -0.00000000000E+00 -0.31350814144E+02  0.31350814144E+02  0.00000000000E+00 0. -1.
         25    2    1    2    0    0  0.46708535884E+02  0.18913908894E+03  0.17225962673E+04  0.17380858894E+04  0.12509746760E+03 0.  0.
         23    2    1    2    0    0 -0.46708535884E+02 -0.18913908894E+03  0.50326995960E+03  0.55048196582E+03  0.10860230279E+03 0.  0.
          5    1    3    3  502    0  0.47474263521E+02  0.20444917199E+02  0.21929690544E+03  0.22534508087E+03  0.41800000000E+01 0. -1.
         -5    1    3    3    0  502 -0.76572763777E+00  0.16869417174E+03  0.15032993619E+04  0.15127408085E+04  0.41800000000E+01 0. -1.
        -11    1    4    4    0    0 -0.54252815544E+02 -0.14406879913E+03  0.46825607607E+03  0.49291270997E+03  0.00000000000E+00 0.  1.
         11    1    4    4    0    0  0.75442796607E+01 -0.45070289813E+02  0.35013883530E+02  0.57569255851E+02  0.00000000000E+00 0. -1.
</event>
<event>
 8    1  0.3896452E-010  0.7205558E+02  0.7561462E-02  0.1353239E+00
          3   -1    0    0  501    0  0.00000000000E+00  0.00000000000E+00  0.38142752804E+03  0.38142752804E+03  0.00000000000E+00 0. -1.
         -3   -1    0    0    0  501 -0.00000000000E+00 -0.00000000000E+00 -0.88491131993E+02  0.88491131993E+02  0.00000000000E+00 0.  1.
         25    2    1    2    0    0 -0.24005596243E+02 -0.49201153790E+02  0.34269812067E+03  0.36889984453E+03  0.12509225075E+03 0.  0.
         23    2    1    2    0    0  0.24005596243E+02  0.49201153790E+02 -0.49761724622E+02  0.10101881551E+03  0.68786260717E+02 0.  0.
          5    1    3    3  502    0 -0.13512535459E+02 -0.39595729780E+02  0.21251894420E+02  0.47111844029E+02  0.41800000000E+01 0.  1.
         -5    1    3    3    0  502 -0.10493060784E+02 -0.96054240103E+01  0.32144622625E+03  0.32178800050E+03  0.41800000000E+01 0.  1.
        -11    1    4    4    0    0  0.39649990087E+02  0.45316431113E+01 -0.16574625425E+02  0.43213142806E+02  0.00000000000E+00 0.  1.
         11    1    4    4    0    0 -0.15644393844E+02  0.44669510679E+02 -0.33187099198E+02  0.57805672699E+02  0.00000000000E+00 0. -1.
</event>
<event>
 8    1  0.3896452E-010  0.1006418E+03  0.7561462E-02  0.1278952E+00
          2   -1    0    0  501    0  0.00000000000E+00  0.00000000000E+00  0.20462470192E+03  0.20462470192E+03  0.00000000000E+00 0. -1.
         -2   -1    0    0    0  501 -0.00000000000E+00 -0.00000000000E+00 -0.78573851499E+02  0.78573851499E+02  0.00000000000E+00 0.  1.
         25    2    1    2    0    0 -0.95453390402E+01  0.73387001278E+02  0.27397182982E+02  0.14789840232E+03  0.12508623553E+03 0.  0.
         23    2    1    2    0    0  0.95453390402E+01 -0.73387001278E+02  0.98653667443E+02  0.13530015110E+03  0.55649073072E+02 0.  0.
          5    1    3    3  502    0 -0.25985951371E+02 -0.19547516688E+02  0.40954359395E+02  0.52460528312E+02  0.41800000000E+01 0. -1.
         -5    1    3    3    0  502  0.16440612331E+02  0.92934517966E+02 -0.13557176413E+02  0.95437874011E+02  0.41800000000E+01 0. -1.
        -11    1    4    4    0    0  0.67801861299E+01 -0.58029965153E+02  0.10359341435E+03  0.11893293604E+03  0.00000000000E+00 0. -1.
         11    1    4    4    0    0  0.27651529103E+01 -0.15357036125E+02 -0.49397469066E+01  0.16367215055E+02  0.00000000000E+00 0.  1.
</event>
<event>
 7    1  0.3896452E-010  0.7939461E+02  0.7561462E-02  0.1330778E+00
          1   -1    0    0  501    0  0.00000000000E+00  0.00000000000E+00  0.80696572959E+02  0.80696572959E+02  0.00000000000E+00 0. -1.
         -1   -1    0    0    0  501 -0.00000000000E+00 -0.00000000000E+00 -0.10741491033E+03  0.10741491033E+03  0.00000000000E+00 0.  1.
         25    2    1    2    0    0  0.25962890889E+02 -0.20228398265E+01 -0.38763878445E+01  0.12782720050E+03  0.12508638304E+03 0.  0.
          5    1    3    3  502    0 -0.38061937440E+02 -0.34283314575E+02 -0.18340413080E+02  0.54570137364E+02  0.41800000000E+01 0. -1.
         -5    1    3    3    0  502  0.64024828329E+02  0.32260474749E+02  0.14464025235E+02  0.73257063138E+02  0.41800000000E+01 0. -1.
        -11    1    1    2    0    0 -0.24222144950E+02 -0.79202158272E+01 -0.35746617763E+02  0.43900601434E+02  0.00000000000E+00 0.  1.
         11    1    1    2    0    0 -0.17407459392E+01  0.99430556537E+01  0.12904668241E+02  0.16383681350E+02  0.00000000000E+00 0. -1.
</event>
<event>
 7    1  0.3896452E-010  0.1595864E+03  0.7561462E-02  0.1189165E+00
          1   -1    0    0  501    0  0.00000000000E+00  0.00000000000E+00  0.48491576220E+02  0.48491576220E+02  0.00000000000E+00 0. -1.
         -1   -1    0    0    0  501 -0.00000000000E+00 -0.00000000000E+00 -0.89599807421E+03  0.89599807421E+03  0.00000000000E+00 0.  1.
         25    2    1    2    0    0  0.59974983854E+02  0.20160900038E+02 -0.56725533775E+03  0.58432017967E+03  0.12509194053E+03 0.  0.
          5    1    3    3  502    0  0.46321549879E+02 -0.50129906739E+02 -0.26733307247E+03  0.27594046019E+03  0.41800000000E+01 0.  1.
         -5    1    3    3    0  502  0.13653433975E+02  0.70290806777E+02 -0.29992226528E+03  0.30837971948E+03  0.41800000000E+01 0.  1.
        -11    1    1    2    0    0  0.58470270077E+02  0.22654477013E+01 -0.21555602366E+03  0.22335689842E+03  0.00000000000E+00 0.  1.
         11    1    1    2    0    0 -0.11844525393E+03 -0.22426347739E+02 -0.64695136574E+02  0.13681257233E+03  0.00000000000E+00 0. -1.
</event>
<event>
 8    1  0.3896452E-010  0.1150584E+03  0.7561462E-02  0.1251479E+00
         -3   -1    0    0    0  501 -0.00000000000E+00  0.00000000000E+00  0.40444777989E+02  0.40444777989E+02  0.00000000000E+00 0.  1.
          3   -1    0    0  501    0  0.00000000000E+00 -0.00000000000E+00 -0.44532407588E+03  0.44532407588E+03  0.00000000000E+00 0. -1.
         25    2    1    2    0    0  0.17094722763E+02  0.54401828423E+02 -0.15085094891E+03  0.20409539132E+03  0.12508849463E+03 0.  0.
         23    2    1    2    0    0 -0.17094722763E+02 -0.54401828423E+02 -0.25402834898E+03  0.28167346255E+03  0.10750697157E+03 0.  0.
          5    1    3    3  502    0 -0.49848940098E+02  0.34000497914E+02 -0.38608586958E+02  0.71756853849E+02  0.41800000000E+01 0. -1.
         -5    1    3    3    0  502  0.66943662861E+02  0.20401330508E+02 -0.11224236195E+03  0.13233853747E+03  0.41800000000E+01 0. -1.
        -11    1    4    4    0    0 -0.48791654742E+02 -0.19960121932E+02 -0.21301082826E+03  0.21943710944E+03  0.00000000000E+00 0. -1.
         11    1    4    4    0    0  0.31696931979E+02 -0.34441706491E+02 -0.41017520719E+02  0.62236353113E+02  0.00000000000E+00 0.  1.
</event>
<event>
 8    1  0.3896452E-010  0.1393377E+03  0.7561462E-02  0.1214223E+00
         -2   -1    0    0    0  501 -0.00000000000E+00  0.00000000000E+00  0.36003796751E+03  0.36003796751E+03  0.00000000000E+00 0.  1.
          2   -1    0    0  501    0  0.00000000000E+00 -0.00000000000E+00 -0.55990512170E+02  0.55990512170E+02  0.00000000000E+00 0. -1.
         25    2    1    2    0    0  0.35227700696E+02  0.74676672877E+02  0.14069030595E+03  0.20556929566E+03  0.12508947503E+03 0.  0.
         23    2    1    2    0    0 -0.35227700696E+02 -0.74676672877E+02  0.16335714939E+03  0.21045918402E+03  0.10387450848E+03 0.  0.
          5    1    3    3  502    0  0.64441529379E+02 -0.48414460617E+01  0.54430986679E+02  0.84595242299E+02  0.41800000000E+01 0. -1.
         -5    1    3    3    0  502 -0.29213828684E+02  0.79518118939E+02  0.86259319272E+02  0.12097405336E+03  0.41800000000E+01 0. -1.
        -11    1    4    4    0    0 -0.45092114495E+02 -0.95747340082E+02  0.15016837781E+03  0.18371552361E+03  0.00000000000E+00 0.  1.
         11    1    4    4    0    0  0.98644137989E+01  0.21070667205E+02  0.13188771578E+02  0.26743660404E+02  0.00000000000E+00 0. -1.
</event>
<event>
 7    1  0.3896452E-010  0.1235804E+03  0.7561462E-02  0.1237305E+00
          1   -1    0    0  501    0  0.00000000000E+00  0.00000000000E+00  0.35364712644E+03  0.35364712644E+03  0.00000000000E+00 0. -1.
         -1   -1    0    0    0  501 -0.00000000000E+00 -0.00000000000E+00 -0.53569029352E+02  0.53569029352E+02  0.00000000000E+00 0.  1.
         25    2    1    2    0    0 -0.86902757415E+01  0.12565447688E+02  0.20904437695E+03  0.24409183891E+03  0.12509141826E+03 0.  0.
          5    1    3    3  502    0 -0.22344985941E+02  0.61492899520E+02  0.69557070058E+02  0.95584169626E+02  0.41800000000E+01 0. -1.
         -5    1    3    3    0  502  0.13654710200E+02 -0.48927451832E+02  0.13948730689E+03  0.14850766929E+03  0.41800000000E+01 0. -1.
        -11    1    1    2    0    0  0.67861708245E+02  0.72090832521E+01  0.68766476775E+02  0.96881425750E+02  0.00000000000E+00 0. -1.
         11    1    1    2    0    0 -0.59171432503E+02 -0.19774530940E+02  0.22267243368E+02  0.66242891132E+02  0.00000000000E+00 0.  1.
</event>
<event>
 7    1  0.3896452E-010  0.2012497E+03  0.7561462E-02  0.1148689E+00
         -2   -1    0    0    0  501 -0.00000000000E+00  0.00000000000E+00  0.71853213216E+02  0.71853213216E+02  0.00000000000E+00 0. -1.
          2   -1    0    0  501    0  0.00000000000E+00 -0.00000000000E+00 -0.73917572421E+03  0.73917572421E+03  0.00000000000E+00 0.  1.
         25    2    1    2    0    0 -0.54431639959E+02  0.93643533351E+02 -0.10416268302E+03  0.19552234698E+03  0.12508880393E+03 0.  0.
          5    1    3    3  502    0 -0.29752099463E+02 -0.27070377486E+02 -0.38534975924E+02  0.55860625929E+02  0.41800000000E+01 0. -1.
         -5    1    3    3    0  502 -0.24679540497E+02  0.12071391084E+03 -0.65627707098E+02  0.13966172105E+03  0.41800000000E+01 0. -1.
        -11    1    1    2    0    0  0.11946803005E+03  0.61894044498E+01 -0.36690740592E+03  0.38591704219E+03  0.00000000000E+00 0. -1.
         11    1    1    2    0    0 -0.65036390095E+02 -0.99832937801E+02 -0.19625242205E+03  0.22958954826E+03  0.00000000000E+00 0.  1.
</event>
<event>
 8    1  0.3896452E-010  0.9516242E+02  0.7561462E-02  0.1290811E+00
         -2   -1    0    0    0  501 -0.00000000000E+00  0.00000000000E+00  0.33905244448E+03  0.33905244448E+03  0.00000000000E+00 0.  1.
          2   -1    0    0  501    0  0.00000000000E+00 -0.00000000000E+00 -0.66837622772E+02  0.66837622772E+02  0.00000000000E+00 0. -1.
         25    2    1    2    0    0 -0.10574644762E+02 -0.72552350094E+02  0.19843125018E+03  0.24576062767E+03  0.12509060097E+03 0.  0.
         23    2    1    2    0    0  0.10574644762E+02  0.72552350094E+02  0.73783571526E+02  0.16012943958E+03  0.12174463182E+03 0.  0.
          5    1    3    3  502    0  0.71201446646E+00 -0.52967552557E+02  0.77505228969E+01  0.53699269955E+02  0.41800000000E+01 0.  1.
         -5    1    3    3    0  502 -0.11286659228E+02 -0.19584797537E+02  0.19068072728E+03  0.19206135772E+03  0.41800000000E+01 0.  1.
        -11    1    4    4    0    0 -0.36890698485E+02  0.48653151726E+02  0.86125089766E+02  0.10557264747E+03  0.00000000000E+00 0.  1.
         11    1    4    4    0    0  0.47465343246E+02  0.23899198368E+02 -0.12341518240E+02  0.54556792103E+02  0.00000000000E+00 0. -1.
</event>
<event>
 8    1  0.3896452E-010  0.1648759E+03  0.7561462E-02  0.1183299E+00
          1   -1    0    0  501    0  0.00000000000E+00  0.00000000000E+00  0.33807624827E+03  0.33807624827E+03  0.00000000000E+00 0. -1.
         -1   -1    0    0    0  501 -0.00000000000E+00 -0.00000000000E+00 -0.86752765055E+02  0.86752765055E+02  0.00000000000E+00 0.  1.
         25    2    1    2    0    0 -0.10726107477E+03 -0.47219952914E+02  0.94540207086E+02  0.19574646787E+03  0.12507664376E+03 0.  0.
         23    2    1    2    0    0  0.10726107477E+03  0.47219952914E+02  0.15678327613E+03  0.22908254545E+03  0.11900905362E+03 0.  0.
          5    1    3    3  502    0  0.27509119701E+02 -0.29719694580E+01  0.64437044226E+01  0.28715466144E+02  0.41800000000E+01 0.  1.
         -5    1    3    3    0  502 -0.13477019447E+03 -0.44247983456E+02  0.88096502663E+02  0.16703100173E+03  0.41800000000E+01 0.  1.
        -11    1    4    4    0    0  0.11669775038E+03  0.69386258434E+02  0.10387287389E+03  0.17094558121E+03  0.00000000000E+00 0.  1.
         11    1    4    4    0    0 -0.94366756099E+01 -0.22166305520E+02  0.52910402232E+02  0.58136964243E+02  0.00000000000E+00 0. -1.
</event>
<event>
 8    1  0.3896452E-010  0.1158237E+03  0.7561462E-02  0.1250150E+00
          1   -1    0    0  501    0  0.00000000000E+00  0.00000000000E+00  0.18696467012E+03  0.18696467012E+03  0.00000000000E+00 0. -1.
         -1   -1    0    0    0  501 -0.00000000000E+00 -0.00000000000E+00 -0.14993899692E+03  0.14993899692E+03  0.00000000000E+00 0.  1.
         25    2    1    2    0    0 -0.93719655022E+02 -0.53486105019E+02 -0.58128537149E+02  0.17513091028E+03  0.12509105379E+03 0.  0.
         23    2    1    2    0    0  0.93719655022E+02  0.53486105019E+02  0.95154210355E+02  0.16177275676E+03  0.73972724116E+02 0.  0.
          5    1    3    3  502    0 -0.93762457834E+02 -0.61661924341E+02  0.39582798648E+01  0.11236873138E+03  0.41800000000E+01 0.  1.
         -5    1    3    3    0  502  0.42802812173E-01  0.81758193215E+01 -0.62086817014E+02  0.62762178902E+02  0.41800000000E+01 0.  1.
        -11    1    4    4    0    0  0.55114730213E+02  0.18700775946E+02  0.59079709422E+01  0.58500056650E+02  0.00000000000E+00 0.  1.
         11    1    4    4    0    0  0.38604924809E+02  0.34785329073E+02  0.89246239413E+02  0.10327270011E+03  0.00000000000E+00 0. -1.
</event>
<event>
 8    1  0.3896452E-010  0.2271560E+03  0.7561462E-02  0.1128658E+00
          2   -1    0    0  501    0  0.00000000000E+00  0.00000000000E+00  0.17184000723E+03  0.17184000723E+03  0.00000000000E+00 0.  1.
         -2   -1    0    0    0  501 -0.00000000000E+00 -0.00000000000E+00 -0.42087910726E+03  0.42087910726E+03  0.00000000000E+00 0. -1.
         25    2    1    2    0    0 -0.12122273156E+03  0.15308463516E+03  0.29595931328E+02  0.23377999210E+03  0.12508920571E+03 0.  0.
         23    2    1    2    0    0  0.12122273156E+03 -0.15308463516E+03 -0.27863503136E+03  0.35893912240E+03  0.11432391140E+03 0.  0.
          5    1    3    3  502    0  0.12877936930E+02 -0.10765955555E+02  0.12454586677E+02  0.21315163332E+02  0.41800000000E+01 0.  1.
         -5    1    3    3    0  502 -0.13410066849E+03  0.16385059071E+03  0.17141344651E+02  0.21246482876E+03  0.41800000000E+01 0.  1.
        -11    1    4    4    0    0 -0.11093413128E+02 -0.65802116429E+02 -0.98714248402E+02  0.11915320046E+03  0.00000000000E+00 0.  1.
         11    1    4    4    0    0  0.13231614469E+03 -0.87282518729E+02 -0.17992078296E+03  0.23978592194E+03  0.00000000000E+00 0. -1.
</event>
<event>
 8    1  0.3896452E-010  0.1218762E+03  0.7561462E-02  0.1240034E+00
          2   -1    0    0  501    0  0.00000000000E+00  0.00000000000E+00  0.12683865770E+04  0.12683865770E+04  0.00000000000E+00 0. -1.
         -2   -1    0    0    0  501 -0.00000000000E+00 -0.00000000000E+00 -0.13198933259E+02  0.13198933259E+02  0.00000000000E+00 0.  1.
         25    2    1    2    0    0 -0.19841086882E+02  0.54147059186E+02  0.62391535003E+03  0.63893984878E+03  0.12509274006E+03 0.  0.
         23    2    1    2    0    0  0.19841086882E+02 -0.54147059186E+02  0.63127229372E+03  0.64264566148E+03  0.10565587848E+03 0.  0.
          5    1    3    3  502    0 -0.57416259741E+02 -0.11386497067E+01  0.42881028252E+03  0.43265881962E+03  0.41800000000E+01 0.  1.
         -5    1    3    3    0  502  0.37575172859E+02  0.55285708892E+02  0.19510506751E+03  0.20628102916E+03  0.41800000000E+01 0.  1.
        -11    1    4    4    0    0 -0.18511553419E+02 -0.73810705945E+02  0.44435095592E+03  0.45081977547E+03  0.00000000000E+00 0.  1.
         11    1    4    4    0    0  0.38352640300E+02  0.19663646760E+02  0.18692133780E+03  0.19182588601E+03  0.00000000000E+00 0. -1.
</event>
<event>
 8    1  0.3896452E-010  0.9073982E+02  0.7561462E-02  0.1301070E+00
          2   -1    0    0  501    0  0.00000000000E+00  0.00000000000E+00  0.61235570946E+03  0.61235570946E+03  0.00000000000E+00 0. -1.
         -2   -1    0    0    0  501 -0.00000000000E+00 -0.00000000000E+00 -0.20790190402E+02  0.20790190402E+02  0.00000000000E+00 0.  1.
         25    2    1    2    0    0  0.33121570047E+02  0.31054513286E+02  0.38902893729E+03  0.41115975213E+03  0.12508959399E+03 0.  0.
         23    2    1    2    0    0 -0.33121570047E+02 -0.31054513286E+02  0.20253658177E+03  0.22198614773E+03  0.78710619567E+02 0.  0.
          5    1    3    3  502    0 -0.19906016869E+02 -0.18019704259E+02  0.16772444536E+02  0.31933470605E+02  0.41800000000E+01 0.  1.
         -5    1    3    3    0  502  0.53027586917E+02  0.49074217545E+02  0.37225649276E+03  0.37922628153E+03  0.41800000000E+01 0.  1.
        -11    1    4    4    0    0  0.49409423670E+01  0.18670499368E+02  0.99938696926E+02  0.10178773797E+03  0.00000000000E+00 0. -1.
         11    1    4    4    0    0 -0.38062512414E+02 -0.49725012654E+02  0.10259788484E+03  0.12019840976E+03  0.00000000000E+00 0.  1.
</event>
<event>
 8    1  0.3896452E-010  0.2251834E+03  0.7561462E-02  0.1130077E+00
         -1   -1    0    0    0  501 -0.00000000000E+00  0.00000000000E+00  0.66671418070E+03  0.66671418070E+03  0.00000000000E+00 0.  1.
          1   -1    0    0  501    0  0.00000000000E+00 -0.00000000000E+00 -0.89836687294E+02  0.89836687294E+02  0.00000000000E+00 0. -1.
         25    2    1    2    0    0  0.20282974253E+03  0.59450573297E+02  0.19681169743E+03  0.31473220218E+03  0.12508892727E+03 0.  0.
         23    2    1    2    0    0 -0.20282974253E+03 -0.59450573297E+02  0.38006579597E+03  0.44181866581E+03  0.77970821932E+02 0.  0.
          5    1    3    3  502    0  0.93376419506E+02  0.67494902814E+02  0.37510482140E+02  0.12124036579E+03  0.41800000000E+01 0. -1.
         -5    1    3    3    0  502  0.10945332302E+03 -0.80443295168E+01  0.15930121529E+03  0.19349183639E+03  0.41800000000E+01 0. -1.
        -11    1    4    4    0    0 -0.90875014531E+02 -0.67202625420E+02  0.18660284739E+03  0.21816297528E+03  0.00000000000E+00 0. -1.
         11    1    4    4    0    0 -0.11195472799E+03  0.77520521226E+01  0.19346294858E+03  0.22365569053E+03  0.00000000000E+00 0.  1.
</event>
<event>
 8    1  0.3896452E-010  0.1423497E+03  0.7561462E-02  0.1210202E+00
          2   -1    0    0  501    0  0.00000000000E+00  0.00000000000E+00  0.74028913108E+02  0.74028913108E+02  0.00000000000E+00 0.  1.
         -2   -1    0    0    0  501 -0.00000000000E+00 -0.00000000000E+00 -0.47247076262E+03  0.47247076262E+03  0.00000000000E+00 0. -1.
         25    2    1    2    0    0 -0.10065459080E+03 -0.50271719894E+02 -0.69213204864E+02  0.18192491057E+03  0.12509041885E+03 0.  0.
         23    2    1    2    0    0  0.10065459080E+03  0.50271719894E+02 -0.32922864465E+03  0.36457476516E+03  0.10892504974E+03 0.  0.
          5    1    3    3  502    0 -0.74855190235E+01 -0.70421947711E+02 -0.16185558627E+02  0.72764884543E+02  0.41800000000E+01 0.  1.
         -5    1    3    3    0  502 -0.93169071779E+02  0.20150227817E+02 -0.53027646237E+02  0.10916002603E+03  0.41800000000E+01 0.  1.
        -11    1    4    4    0    0  0.44804083898E+02  0.25426383495E+01 -0.25927806215E+03  0.26313301666E+03  0.00000000000E+00 0. -1.
         11    1    4    4    0    0  0.55850506904E+02  0.47729081545E+02 -0.69950582502E+02  0.10144174850E+03  0.00000000000E+00 0.  1.
</event>
<event>
 8    1  0.3896452E-010  0.1714756E+03  0.7561462E-02  0.1176318E+00
         -4   -1    0    0    0  501 -0.00000000000E+00  0.00000000000E+00  0.50411795601E+03  0.50411795601E+03  0.00000000000E+00 0.  1.
          4   -1    0    0  501    0  0.00000000000E+00 -0.00000000000E+00 -0.98075832406E+02  0.98075832406E+02  0.00000000000E+00 0. -1.
         25    2    1    2    0    0  0.21385535760E+02 -0.16835249903E+03  0.70819329753E+02  0.22240363543E+03  0.12509234396E+03 0.  0.
         23    2    1    2    0    0 -0.21385535760E+02  0.16835249903E+03  0.33522279385E+03  0.37979015298E+03  0.55374486152E+02 0.  0.
          5    1    3    3  502    0  0.28716190902E+02 -0.14253773875E+03  0.10452197344E+03  0.17911990934E+03  0.41800000000E+01 0.  1.
         -5    1    3    3    0  502 -0.73306551420E+01 -0.25814760276E+02 -0.33702643689E+02  0.43283726094E+02  0.41800000000E+01 0.  1.
        -11    1    4    4    0    0 -0.22946347574E+02  0.13459530456E+03  0.30613189527E+03  0.33520019120E+03  0.00000000000E+00 0.  1.
         11    1    4    4    0    0  0.15608118139E+01  0.33757194467E+02  0.29090898580E+02  0.44589961785E+02  0.00000000000E+00 0. -1.
</event>
<event>
 8    1  0.3896452E-010  0.1735956E+03  0.7561462E-02  0.1174149E+00
          2   -1    0    0  501    0  0.00000000000E+00  0.00000000000E+00  0.48102756973E+03  0.48102756973E+03  0.00000000000E+00 0. -1.
         -2   -1    0    0    0  501 -0.00000000000E+00 -0.00000000000E+00 -0.67144241706E+02  0.67144241706E+02  0.00000000000E+00 0.  1.
         25    2    1    2    0    0  0.40198979779E+01  0.14670131491E+03  0.20290912990E+03  0.27992301427E+03  0.12508934226E+03 0.  0.
         23    2    1    2    0    0 -0.40198979779E+01 -0.14670131491E+03  0.21097419812E+03  0.26824879716E+03  0.76875675798E+02 0.  0.
          5    1    3    3  502    0 -0.35355372762E+01  0.16560187386E+03  0.19870394607E+03  0.25872226660E+03  0.41800000000E+01 0.  1.
         -5    1    3    3    0  502  0.75554352541E+01 -0.18900558953E+02  0.42051838224E+01  0.21200747666E+02  0.41800000000E+01 0.  1.
        -11    1    4    4    0    0 -0.22464568224E+02 -0.13419749579E+02  0.13921447410E+02  0.29640398146E+02  0.00000000000E+00 0.  1.
         11    1    4    4    0    0  0.18444670246E+02 -0.13328156533E+03  0.19705275071E+03  0.23860839902E+03  0.00000000000E+00 0. -1.
</event>
<event>
 8    1  0.3896452E-010  0.2023869E+03  0.7561462E-02  0.1147741E+00
         -1   -1    0    0    0  501 -0.00000000000E+00  0.00000000000E+00  0.38332727958E+02  0.38332727958E+02  0.00000000000E+00 0.  1.
          1   -1    0    0  501    0  0.00000000000E+00 -0.00000000000E+00 -0.10942017850E+04  0.10942017850E+04  0.00000000000E+00 0. -1.
         25    2    1    2    0    0  0.14837781591E+03 -0.74230941808E+02 -0.47670644007E+03  0.52002137927E+03  0.12508795276E+03 0.  0.
         23    2    1    2    0    0 -0.14837781591E+03  0.74230941808E+02 -0.57916261702E+03  0.61251313373E+03  0.11052960266E+03 0.  0.
          5    1    3    3  502    0  0.61546828398E+02  0.32277517000E+02 -0.18059321265E+03  0.19354904041E+03  0.41800000000E+01 0.  1.
         -5    1    3    3    0  502  0.86830987510E+02 -0.10650845881E+03 -0.29611322742E+03  0.32647233886E+03  0.41800000000E+01 0.  1.
        -11    1    4    4    0    0 -0.37922036574E+02  0.78448402820E+02 -0.21639406359E+03  0.23327799622E+03  0.00000000000E+00 0.  1.
         11    1    4    4    0    0 -0.11045577933E+03 -0.42174610120E+01 -0.36276855343E+03  0.37923513751E+03  0.00000000000E+00 0. -1.
</event>
<event>
 8    1  0.3896452E-010  0.1553030E+03  0.7561462E-02  0.1194104E+00
          1   -1    0    0  501    0  0.00000000000E+00  0.00000000000E+00  0.10860292427E+03  0.10860292427E+03  0.00000000000E+00 0. -1.
         -1   -1    0    0    0  501 -0.00000000000E+00 -0.00000000000E+00 -0.25877722226E+03  0.25877722226E+03  0.00000000000E+00 0.  1.
         25    2    1    2    0    0  0.63188610958E+02  0.98780515197E+02 -0.14190829690E+02  0.17205111094E+03  0.12509921818E+03 0.  0.
         23    2    1    2    0    0 -0.63188610958E+02 -0.98780515197E+02 -0.13598346830E+03  0.19532903559E+03  0.76886525198E+02 0.  0.
          5    1    3    3  502    0  0.58230751170E+02  0.12821014024E+03 -0.68951581279E+01  0.14104494336E+03  0.41800000000E+01 0.  1.
         -5    1    3    3    0  502  0.49578597890E+01 -0.29429625045E+02 -0.72956715617E+01  0.31006167572E+02  0.41800000000E+01 0.  1.
        -11    1    4    4    0    0 -0.25678924823E+02  0.76116209107E+01 -0.33749584751E+02  0.43085710204E+02  0.00000000000E+00 0.  1.
         11    1    4    4    0    0 -0.37509686135E+02 -0.10639213611E+03 -0.10223388355E+03  0.15224332539E+03  0.00000000000E+00 0. -1.
</event>
<event>
 7    1  0.3896452E-010  0.1967078E+03  0.7561462E-02  0.1152547E+00
         -1   -1    0    0    0  501 -0.00000000000E+00  0.00000000000E+00  0.93143543895E+02  0.93143543895E+02  0.00000000000E+00 0.  1.
          1   -1    0    0  501    0  0.00000000000E+00 -0.00000000000E+00 -0.61142913117E+03  0.61142913117E+03  0.00000000000E+00 0. -1.
         25    2    1    2    0    0  0.69806043186E+02  0.62795257443E+02 -0.37326178502E+03  0.40470722378E+03  0.12508976297E+03 0.  0.
          5    1    3    3  502    0  0.95078188852E+01 -0.28126426678E+02 -0.18220489727E+03  0.18465533159E+03  0.41800000000E+01 0.  1.
         -5    1    3    3    0  502  0.60298224301E+02  0.90921684120E+02 -0.19105688775E+03  0.22005189219E+03  0.41800000000E+01 0.  1.
        -11    1    1    2    0    0 -0.12329054746E+02  0.90085492257E+02 -0.88899065345E+02  0.12716306588E+03  0.00000000000E+00 0. -1.
         11    1    1    2    0    0 -0.57476988440E+02 -0.15288074970E+03 -0.56124736907E+02  0.17270238540E+03  0.00000000000E+00 0.  1.
</event>
<event>
 8    1  0.4422948E-010  0.9622349E+02  0.7561462E-02  0.1288444E+00
         -2   -1    0    0    0  501 -0.00000000000E+00  0.00000000000E+00  0.51228068124E+02  0.51228068124E+02  0.00000000000E+00 0.  1.
          2   -1    0    0  501    0  0.00000000000E+00 -0.00000000000E+00 -0.24035653037E+03  0.24035653037E+03  0.00000000000E+00 0. -1.
         25    2    1    2    0    0 -0.36980600160E+02  0.39930183492E+00 -0.79737968787E+02  0.15288423529E+03  0.12509085299E+03 0.  0.
         23    2    1    2    0    0  0.36980600160E+02 -0.39930183492E+00 -0.10939049346E+03  0.13870036321E+03  0.76836101312E+02 0.  0.
          5    1    3    3  502    0 -0.21538850323E+02 -0.57344950305E+02 -0.12203346372E+02  0.62599995698E+02  0.41800000000E+01 0. -1.
         -5    1    3    3    0  502 -0.15441749837E+02  0.57744252140E+02 -0.67534622415E+02  0.90284239588E+02  0.41800000000E+01 0. -1.
        -11    1    4    4    0    0  0.10241488025E+02  0.29375560788E+02 -0.87970788767E+02  0.93309545733E+02  0.00000000000E+00 0. -1.
         11    1    4    4    0    0  0.26739112135E+02 -0.29774862623E+02 -0.21419704689E+02  0.45390817473E+02  0.00000000000E+00 0.  1.
</event>
<event>
 8    1  0.3896452E-010  0.9956574E+02  0.7561462E-02  0.1281212E+00
          1   -1    0    0  501    0  0.00000000000E+00  0.00000000000E+00  0.47832503564E+03  0.47832503564E+03  0.00000000000E+00 0. -1.
         -1   -1    0    0    0  501 -0.00000000000E+00 -0.00000000000E+00 -0.57574987345E+02  0.57574987345E+02  0.00000000000E+00 0.  1.
         25    2    1    2    0    0  0.85526285418E+02  0.77794056669E+01  0.39289609557E+03  0.42117660314E+03  0.12508846655E+03 0.  0.
         23    2    1    2    0    0 -0.85526285418E+02 -0.77794056669E+01  0.27853952721E+02  0.11472341985E+03  0.70783866307E+02 0.  0.
          5    1    3    3  502    0  0.51989923349E+02 -0.40629581523E+01  0.38448833064E+02  0.64924917580E+02  0.41800000000E+01 0.  1.
         -5    1    3    3    0  502  0.33536362069E+02  0.11842363819E+02  0.35444726251E+03  0.35625168556E+03  0.41800000000E+01 0.  1.
        -11    1    4    4    0    0 -0.30847691327E+02  0.31184472798E+02  0.15037217967E+02  0.46369918353E+02  0.00000000000E+00 0.  1.
         11    1    4    4    0    0 -0.54678594091E+02 -0.38963878465E+02  0.12816734754E+02  0.68353501495E+02  0.00000000000E+00 0. -1.
</event>
<event>
 8    1  0.3896452E-010  0.1449088E+03  0.7561462E-02  0.1206872E+00
          2   -1    0    0  501    0  0.00000000000E+00  0.00000000000E+00  0.14782042536E+02  0.14782042536E+02  0.00000000000E+00 0.  1.
         -2   -1    0    0    0  501 -0.00000000000E+00 -0.00000000000E+00 -0.15701054176E+04  0.15701054176E+04  0.00000000000E+00 0. -1.
         25    2    1    2    0    0  0.59353826991E+02 -0.70088880949E+02 -0.10292187072E+04  0.10408524134E+04  0.12508905264E+03 0.  0.
         23    2    1    2    0    0 -0.59353826991E+02  0.70088880949E+02 -0.52610466781E+03  0.54403504675E+03  0.10369514253E+03 0.  0.
          5    1    3    3  502    0 -0.34009948839E+02  0.33611522807E+01 -0.17009563783E+03  0.17354530352E+03  0.41800000000E+01 0. -1.
         -5    1    3    3    0  502  0.93363775830E+02 -0.73450033230E+02 -0.85912306941E+03  0.86730710986E+03  0.41800000000E+01 0. -1.
        -11    1    4    4    0    0 -0.17196356476E+02  0.88762488359E+02 -0.30233746700E+03  0.31556685182E+03  0.00000000000E+00 0.  1.
         11    1    4    4    0    0 -0.42157470515E+02 -0.18673607411E+02 -0.22376720081E+03  0.22846819493E+03  0.00000000000E+00 0. -1.
</event>
<event>
 7    1  0.3896452E-010  0.1244870E+03  0.7561462E-02  0.1235873E+00
         -2   -1    0    0    0  501 -0.00000000000E+00  0.00000000000E+00  0.22257523648E+02  0.22257523648E+02  0.00000000000E+00 0.  1.
          2   -1    0    0  501    0  0.00000000000E+00 -0.00000000000E+00 -0.82547243466E+03  0.82547243466E+03  0.00000000000E+00 0. -1.
         25    2    1    2    0    0  0.79499762565E+02  0.43633064036E+02 -0.60384992630E+03  0.62330204768E+03  0.12508658048E+03 0.  0.
          5    1    3    3  502    0  0.11523658852E+02  0.76658276316E+02 -0.26725378692E+03  0.27830081758E+03  0.41800000000E+01 0. -1.
         -5    1    3    3    0  502  0.67976103713E+02 -0.33025212279E+02 -0.33659613939E+03  0.34500123010E+03  0.41800000000E+01 0. -1.
        -11    1    1    2    0    0 -0.29519937907E+02 -0.32855668755E+00 -0.27767604543E+02  0.40528687933E+02  0.00000000000E+00 0.  1.
         11    1    1    2    0    0 -0.49979824658E+02 -0.43304507349E+02 -0.17159738016E+03  0.18389922269E+03  0.00000000000E+00 0. -1.
</event>
<event>
 8    1  0.3896452E-010  0.7481984E+02  0.7561462E-02  0.1344430E+00
         -3   -1    0    0    0  501 -0.00000000000E+00  0.00000000000E+00  0.14932936278E+03  0.14932936278E+03  0.00000000000E+00 0.  1.
          3   -1    0    0  501    0  0.00000000000E+00 -0.00000000000E+00 -0.87757786927E+02  0.87757786927E+02  0.00000000000E+00 0. -1.
         25    2    1    2    0    0 -0.26133067647E+01 -0.60257299746E+02  0.62260191837E+02  0.15219070126E+03  0.12509159252E+03 0.  0.
         23    2    1    2    0    0  0.26133067647E+01  0.60257299746E+02 -0.68861597976E+00  0.84896448447E+02  0.59742457448E+02 0.  0.
          5    1    3    3  502    0  0.17074111496E+02 -0.64536914398E+02  0.93391605688E+02  0.11487385698E+03  0.41800000000E+01 0. -1.
         -5    1    3    3    0  502 -0.19687418260E+02  0.42796146517E+01 -0.31131413851E+02  0.37316844289E+02  0.41800000000E+01 0. -1.
        -11    1    4    4    0    0  0.63352997094E+01  0.10388433605E+02  0.25640482544E+02  0.28381154315E+02  0.00000000000E+00 0.  1.
         11    1    4    4    0    0 -0.37219929447E+01  0.49868866141E+02 -0.26329098524E+02  0.56515294131E+02  0.00000000000E+00 0. -1.
</event>
<event>
 7    1  0.3896452E-010  0.9592681E+02  0.7561462E-02  0.1289102E+00
          2   -1    0    0  501    0  0.00000000000E+00  0.00000000000E+00  0.20911286272E+03  0.20911286272E+03  0.00000000000E+00 0. -1.
         -2   -1    0    0    0  501 -0.00000000000E+00 -0.00000000000E+00 -0.11913590463E+03  0.11913590463E+03  0.00000000000E+00 0.  1.
         25    2    1    2    0    0 -0.24707238394E+02 -0.16903544808E+02  0.97996633259E+02  0.16170107884E+03  0.12509085224E+03 0.  0.
          5    1    3    3  502    0 -0.80506288393E+01  0.44485799952E+02  0.73038825499E+00  0.45407101747E+02  0.41800000000E+01 0. -1.
         -5    1    3    3    0  502 -0.16656609555E+02 -0.61389344760E+02  0.97266245004E+02  0.11629397710E+03  0.41800000000E+01 0. -1.
        -11    1    1    2    0    0  0.34076353430E+02  0.43065889798E+02 -0.75620643642E+02  0.93457746988E+02  0.00000000000E+00 0.  1.
         11    1    1    2    0    0 -0.93691150362E+01 -0.26162344990E+02  0.67600968478E+02  0.73089941518E+02  0.00000000000E+00 0. -1.
</event>
<event>
 8    1  0.3896452E-010  0.1108904E+03  0.7561462E-02  0.1258930E+00
         -1   -1    0    0    0  501 -0.00000000000E+00  0.00000000000E+00  0.87654578766E+01  0.87654578766E+01  0.00000000000E+00 0.  1.
          1   -1    0    0  501    0  0.00000000000E+00 -0.00000000000E+00 -0.16766255617E+04  0.16766255617E+04  0.00000000000E+00 0. -1.
         25    2    1    2    0    0  0.54929909992E+02  0.16811062562E+02 -0.12707073060E+04  0.12781413842E+04  0.12509369949E+03 0.  0.
         23    2    1    2    0    0 -0.54929909992E+02 -0.16811062562E+02 -0.39715279779E+03  0.40724963534E+03  0.69440721889E+02 0.  0.
          5    1    3    3  502    0  0.77752454861E+02 -0.26735026813E+02 -0.96193791692E+03  0.96545441856E+03  0.41800000000E+01 0. -1.
         -5    1    3    3    0  502 -0.22822544869E+02  0.43546089375E+02 -0.30876938908E+03  0.31268696565E+03  0.41800000000E+01 0. -1.
        -11    1    4    4    0    0 -0.14075722895E+02 -0.40507454030E+02 -0.19192643963E+03  0.19665893836E+03  0.00000000000E+00 0.  1.
         11    1    4    4    0    0 -0.40854187098E+02  0.23696391469E+02 -0.20522635815E+03  0.21059069698E+03  0.00000000000E+00 0. -1.
</event>
<event>
 7    1  0.3896452E-010  0.1551184E+03  0.7561462E-02  0.1194321E+00
         -1   -1    0    0    0  501 -0.00000000000E+00  0.00000000000E+00  0.32871073563E+02  0.32871073563E+02  0.00000000000E+00 0.  1.
          1   -1    0    0  501    0  0.00000000000E+00 -0.00000000000E+00 -0.83546597216E+03  0.83546597216E+03  0.00000000000E+00 0. -1.
         25    2    1    2    0    0 -0.63112916187E+02  0.12251500111E+03 -0.40151247112E+03  0.44255312309E+03  0.12509131307E+03 0.  0.
          5    1    3    3  502    0 -0.86850097063E+02  0.60704512201E+02 -0.32191960244E+03  0.33893610017E+03  0.41800000000E+01 0. -1.
         -5    1    3    3    0  502  0.23737180875E+02  0.61810488906E+02 -0.79592868680E+02  0.10361702292E+03  0.41800000000E+01 0. -1.
        -11    1    1    2    0    0  0.38412260095E+02 -0.77752996783E+02 -0.19431021293E+03  0.21278507721E+03  0.00000000000E+00 0.  1.
         11    1    1    2    0    0  0.24700656092E+02 -0.44762004324E+02 -0.20677221454E+03  0.21299884542E+03  0.00000000000E+00 0. -1.
</event>
<event>
 7    1  0.3896452E-010  0.1436276E+03  0.7561462E-02  0.1208529E+00
         -2   -1    0    0    0  501 -0.00000000000E+00  0.00000000000E+00  0.50744764219E+02  0.50744764219E+02  0.00000000000E+00 0.  1.
          2   -1    0    0  501    0  0.00000000000E+00 -0.00000000000E+00 -0.97096179022E+03  0.97096179022E+03  0.00000000000E+00 0. -1.
         25    2    1    2    0    0  0.43126349416E+02 -0.96715465634E+02 -0.12324391632E+03  0.20506034530E+03  0.12508764526E+03 0.  0.
          5    1    3    3  502    0  0.94992907857E+01 -0.51911799588E+02  0.15677079375E+02  0.55211544803E+02  0.41800000000E+01 0.  1.
         -5    1    3    3    0  502  0.33627058630E+02 -0.44803666047E+02 -0.13892099570E+03  0.14984880049E+03  0.41800000000E+01 0.  1.
        -11    1    1    2    0    0 -0.36738250856E+02  0.13470160548E+03 -0.61842691879E+03  0.63399217305E+03  0.00000000000E+00 0.  1.
         11    1    1    2    0    0 -0.63880985596E+01 -0.37986139844E+02 -0.17854619089E+03  0.18265403610E+03  0.00000000000E+00 0. -1.
</event>
<event>
 8    1  0.3896452E-010  0.9210895E+02  0.7561462E-02  0.1297823E+00
          2   -1    0    0  501    0  0.00000000000E+00  0.00000000000E+00  0.47550145677E+03  0.47550145677E+03  0.00000000000E+00 0. -1.
         -2   -1    0    0    0  501 -0.00000000000E+00 -0.00000000000E+00 -0.22560976024E+02  0.22560976024E+02  0.00000000000E+00 0.  1.
         25    2    1    2    0    0  0.16865042060E+02 -0.18148865348E+02  0.25507394549E+03  0.28517351358E+03  0.12508958479E+03 0.  0.
         23    2    1    2    0    0 -0.16865042060E+02  0.18148865348E+02  0.19786653526E+03  0.21288891922E+03  0.74543377925E+02 0.  0.
          5    1    3    3  502    0 -0.29941209672E+02  0.37339236316E+02  0.59220142869E+02  0.76257408340E+02  0.41800000000E+01 0. -1.
         -5    1    3    3    0  502  0.46806251732E+02 -0.55488101664E+02  0.19585380262E+03  0.20891610524E+03  0.41800000000E+01 0. -1.
        -11    1    4    4    0    0  0.58849061734E+01  0.34783858879E+02  0.43676242311E+02  0.56144127935E+02  0.00000000000E+00 0. -1.
         11    1    4    4    0    0 -0.22749948234E+02 -0.16634993531E+02  0.15419029295E+03  0.15674479128E+03  0.00000000000E+00 0.  1.
</event>
<event>
 8    1  0.3896452E-010  0.9794964E+02  0.7561462E-02  0.1284668E+00
          1   -1    0    0  501    0  0.00000000000E+00  0.00000000000E+00  0.20792793444E+03  0.20792793444E+03  0.00000000000E+00 0. -1.
         -1   -1    0    0    0  501 -0.00000000000E+00 -0.00000000000E+00 -0.11788736149E+03  0.11788736149E+03  0.00000000000E+00 0.  1.
         25    2    1    2    0    0 -0.32559166967E+02 -0.75014435971E+02  0.96184847083E+02  0.17773135940E+03  0.12509854654E+03 0.  0.
         23    2    1    2    0    0  0.32559166967E+02  0.75014435971E+02 -0.61442741370E+01  0.14808393653E+03  0.12330383285E+03 0.  0.
          5    1    3    3  502    0 -0.11968561954E+02 -0.36919774056E+02 -0.26752625038E+02  0.47323266350E+02  0.41800000000E+01 0. -1.
         -5    1    3    3    0  502 -0.20590605012E+02 -0.38094661915E+02  0.12293747212E+03  0.13040809305E+03  0.41800000000E+01 0. -1.
        -11    1    4    4    0    0  0.58679849986E+02  0.48361775071E+02 -0.49612320538E+02  0.90794099102E+02  0.00000000000E+00 0.  1.
         11    1    4    4    0    0 -0.26120683020E+02  0.26652660900E+02  0.43468046401E+02  0.57289837427E+02  0.00000000000E+00 0. -1.
</event>
<event>
 8    1  0.3896452E-010  0.1060319E+03  0.7561462E-02  0.1268100E+00
          1   -1    0    0  501    0  0.00000000000E+00  0.00000000000E+00  0.18913285999E+03  0.18913285999E+03  0.00000000000E+00 0. -1.
         -1   -1    0    0    0  501 -0.00000000000E+00 -0.00000000000E+00 -0.10707615547E+03  0.10707615547E+03  0.00000000000E+00 0.  1.
         25    2    1    2    0    0  0.29333735137E+02  0.54198601248E+02  0.92194563807E+02  0.16716889805E+03  0.12509055314E+03 0.  0.
         23    2    1    2    0    0 -0.29333735137E+02 -0.54198601248E+02 -0.10137859290E+02  0.12904011741E+03  0.11291864025E+03 0.  0.
          5    1    3    3  502    0 -0.22759698911E+02  0.32136991300E+02 -0.17792612567E+02  0.43414739045E+02  0.41800000000E+01 0. -1.
         -5    1    3    3    0  502  0.52093434048E+02  0.22061609948E+02  0.10998717637E+03  0.12375415901E+03  0.41800000000E+01 0. -1.
        -11    1    4    4    0    0  0.36089348010E+02 -0.26077710367E+02 -0.31676586719E+02  0.54643335951E+02  0.00000000000E+00 0. -1.
         11    1    4    4    0    0 -0.65423083146E+02 -0.28120890881E+02  0.21538727429E+02  0.74396781459E+02  0.00000000000E+00 0.  1.
</event>
<event>
 8    1  0.3896452E-010  0.1524187E+03  0.7561462E-02  0.1197532E+00
         -2   -1    0    0    0  501 -0.00000000000E+00  0.00000000000E+00  0.13244052881E+03  0.13244052881E+03  0.00000000000E+00 0.  1.
          2   -1    0    0  501    0  0.00000000000E+00 -0.00000000000E+00 -0.18922390770E+03  0.18922390770E+03  0.00000000000E+00 0. -1.
         25    2    1    2    0    0 -0.11853551999E+03 -0.25986349936E+02 -0.32285466425E+02  0.17724534067E+03  0.12509036559E+03 0.  0.
         23    2    1    2    0    0  0.11853551999E+03  0.25986349936E+02 -0.24497912459E+02  0.14441909584E+03  0.74369131007E+02 0.  0.
          5    1    3    3  502    0 -0.14050475171E+03 -0.37673049664E+02 -0.14237886846E+02  0.14622254870E+03  0.41800000000E+01 0.  1.
         -5    1    3    3    0  502  0.21969231725E+02  0.11686699728E+02 -0.18047579579E+02  0.31022791972E+02  0.41800000000E+01 0.  1.
        -11    1    4    4    0    0  0.11239706745E+03  0.53252111501E+01 -0.99239942295E+00  0.11252752331E+03  0.00000000000E+00 0.  1.
         11    1    4    4    0    0  0.61384525376E+01  0.20661138786E+02 -0.23505513036E+02  0.31891572532E+02  0.00000000000E+00 0. -1.
</event>
<event>
 8    1  0.3896452E-010  0.1115532E+03  0.7561462E-02  0.1257720E+00
         -2   -1    0    0    0  501 -0.00000000000E+00  0.00000000000E+00  0.41332737413E+02  0.41332737413E+02  0.00000000000E+00 0.  1.
          2   -1    0    0  501    0  0.00000000000E+00 -0.00000000000E+00 -0.42406786539E+03  0.42406786539E+03  0.00000000000E+00 0. -1.
         25    2    1    2    0    0 -0.70263598766E+00  0.65452039474E+01 -0.99681675666E+02  0.16008471986E+03  0.12508935876E+03 0.  0.
         23    2    1    2    0    0  0.70263598766E+00 -0.65452039474E+01 -0.28305345231E+03  0.30531588295E+03  0.11425934588E+03 0.  0.
          5    1    3    3  502    0  0.33630929281E+02  0.46552199119E+02 -0.89200131663E+02  0.10617100610E+03  0.41800000000E+01 0.  1.
         -5    1    3    3    0  502 -0.34333565269E+02 -0.40006995171E+02 -0.10481544003E+02  0.53913713760E+02  0.41800000000E+01 0.  1.
        -11    1    4    4    0    0  0.26651196953E+02 -0.53059867411E+02 -0.17596276345E+03  0.18571087731E+03  0.00000000000E+00 0. -1.
         11    1    4    4    0    0 -0.25948560965E+02  0.46514663464E+02 -0.10709068886E+03  0.11960500564E+03  0.00000000000E+00 0.  1.
</event>
<event>
 8    1  0.3896452E-010  0.1031202E+03  0.7561462E-02  0.1273868E+00
          3   -1    0    0  501    0  0.00000000000E+00  0.00000000000E+00  0.16394875559E+03  0.16394875559E+03  0.00000000000E+00 0. -1.
         -3   -1    0    0    0  501 -0.00000000000E+00 -0.00000000000E+00 -0.15281053650E+03  0.15281053650E+03  0.00000000000E+00 0.  1.
         25    2    1    2    0    0 -0.65210787443E+02 -0.55516570214E+02  0.64450779446E+02  0.16472557330E+03  0.12508427223E+03 0.  0.
         23    2    1    2    0    0  0.65210787443E+02  0.55516570214E+02 -0.53312560353E+02  0.15203371878E+03  0.11374307095E+03 0.  0.
          5    1    3    3  502    0 -0.27601446517E+02  0.12292950986E+02 -0.29774252878E+02  0.42625520855E+02  0.41800000000E+01 0. -1.
         -5    1    3    3    0  502 -0.37609340926E+02 -0.67809521200E+02  0.94225032324E+02  0.12210005244E+03  0.41800000000E+01 0. -1.
        -11    1    4    4    0    0  0.31536779553E+01  0.31317097675E+02 -0.75523196694E+02  0.81819676914E+02  0.00000000000E+00 0.  1.
         11    1    4    4    0    0  0.62057109487E+02  0.24199472539E+02  0.22210636342E+02  0.70214041870E+02  0.00000000000E+00 0. -1.
</event>
<event>
 8    1  0.3896452E-010  0.1138911E+03  0.7561462E-02  0.1253529E+00
         -2   -1    0    0    0  501 -0.00000000000E+00  0.00000000000E+00  0.32618588930E+02  0.32618588930E+02  0.00000000000E+00 0.  1.
          2   -1    0    0  501    0  0.00000000000E+00 -0.00000000000E+00 -0.41592952507E+03  0.41592952507E+03  0.00000000000E+00 0. -1.
         25    2    1    2    0    0  0.52257686299E+02 -0.11009153463E+02 -0.19215197931E+03  0.23542147748E+03  0.12509525038E+03 0.  0.
         23    2    1    2    0    0 -0.52257686299E+02  0.11009153463E+02 -0.19115895682E+03  0.21312663652E+03  0.77647596107E+02 0.  0.
          5    1    3    3  502    0  0.38122730033E+02 -0.67487695644E+02 -0.11186959869E+03  0.13616244387E+03  0.41800000000E+01 0.  1.
         -5    1    3    3    0  502  0.14134956266E+02  0.56478542181E+02 -0.80282380623E+02  0.99259033614E+02  0.41800000000E+01 0.  1.
        -11    1    4    4    0    0 -0.66999434665E+02 -0.82819652085E+01 -0.11682458828E+03  0.13492775704E+03  0.00000000000E+00 0.  1.
         11    1    4    4    0    0  0.14741748366E+02  0.19291118672E+02 -0.74334368541E+02  0.78198879473E+02  0.00000000000E+00 0. -1.
</event>
<event>
 8    1  0.3896452E-010  0.1138243E+03  0.7561462E-02  0.1253647E+00
         -3   -1    0    0    0  501 -0.00000000000E+00  0.00000000000E+00  0.24703639966E+02  0.24703639966E+02  0.00000000000E+00 0.  1.
          3   -1    0    0  501    0  0.00000000000E+00 -0.00000000000E+00 -0.73194931634E+03  0.73194931634E+03  0.00000000000E+00 0. -1.
         25    2    1    2    0    0 -0.24642790039E+02  0.65491408842E+02 -0.59707122055E+03  0.61403416208E+03  0.12509003978E+03 0.  0.
         23    2    1    2    0    0  0.24642790039E+02 -0.65491408842E+02 -0.11017445582E+03  0.14261879423E+03  0.57491895245E+02 0.  0.
          5    1    3    3  502    0  0.37769742879E+02 -0.14675469546E+02 -0.14109673051E+03  0.14685939754E+03  0.41800000000E+01 0. -1.
         -5    1    3    3    0  502 -0.62412532918E+02  0.80166878388E+02 -0.45597449004E+03  0.46717476454E+03  0.41800000000E+01 0. -1.
        -11    1    4    4    0    0  0.38934942399E+02 -0.38882869155E+02 -0.46108650026E+02  0.71790074945E+02  0.00000000000E+00 0.  1.
         11    1    4    4    0    0 -0.14292152360E+02 -0.26608539687E+02 -0.64065805792E+02  0.70828719282E+02  0.00000000000E+00 0. -1.
</event>
<event>
 8    1  0.3896452E-010  0.1986103E+03  0.7561462E-02  0.1150917E+00
          1   -1    0    0  501    0  0.00000000000E+00  0.00000000000E+00  0.32968422013E+03  0.32968422013E+03  0.00000000000E+00 0. -1.
         -1   -1    0    0    0  501 -0.00000000000E+00 -0.00000000000E+00 -0.13010851930E+03  0.13010851930E+03  0.00000000000E+00 0.  1.
         25    2    1    2    0    0 -0.15673919549E+03 -0.92499860877E+02  0.12057095885E+03  0.25161053090E+03  0.12508838266E+03 0.  0.
         23    2    1    2    0    0  0.15673919549E+03  0.92499860877E+02  0.79004741972E+02  0.20818220853E+03  0.63045087277E+02 0.  0.
          5    1    3    3  502    0 -0.16507632421E+03 -0.10578478569E+03  0.87442054728E+02  0.21471888373E+03  0.41800000000E+01 0.  1.
         -5    1    3    3    0  502  0.83371287164E+01  0.13284924810E+02  0.33128904121E+02  0.36891647167E+02  0.41800000000E+01 0.  1.
        -11    1    4    4    0    0  0.13479078183E+03  0.91493773766E+02  0.47353950190E+02  0.16965276922E+03  0.00000000000E+00 0.  1.
         11    1    4    4    0    0  0.21948413661E+02  0.10060871105E+01  0.31650791782E+02  0.38529439315E+02  0.00000000000E+00 0. -1.
</event>
<event>
 8    1  0.3896452E-010  0.8310364E+02  0.7561462E-02  0.1320468E+00
          2   -1    0    0  501    0  0.00000000000E+00  0.00000000000E+00  0.29490889659E+03  0.29490889659E+03  0.00000000000E+00 0. -1.
         -2   -1    0    0    0  501 -0.00000000000E+00 -0.00000000000E+00 -0.49906110494E+02  0.49906110494E+02  0.00000000000E+00 0.  1.
         25    2    1    2    0    0 -0.82788258499E+01  0.12795386558E+02  0.23952490889E+03  0.27065077012E+03  0.12508955398E+03 0.  0.
         23    2    1    2    0    0  0.82788258499E+01 -0.12795386558E+02  0.54778772041E+01  0.74164236957E+02  0.72374484663E+02 0.  0.
          5    1    3    3  502    0 -0.12104780156E+02  0.68175536272E+02  0.14940213515E+03  0.16472067216E+03  0.41800000000E+01 0.  1.
         -5    1    3    3    0  502  0.38259543060E+01 -0.55380149714E+02  0.90122773734E+02  0.10593009796E+03  0.41800000000E+01 0.  1.
        -11    1    4    4    0    0 -0.14787594123E+02  0.99648088940E-02 -0.27925245488E+02  0.31598929963E+02  0.00000000000E+00 0.  1.
         11    1    4    4    0    0  0.23066419973E+02 -0.12805351367E+02  0.33403122692E+02  0.42565306995E+02  0.00000000000E+00 0. -1.
</event>
<event>
 8    1  0.3896452E-010  0.1703595E+03  0.7561462E-02  0.1177473E+00
          2   -1    0    0  501    0  0.00000000000E+00  0.00000000000E+00  0.81799978725E+03  0.81799978725E+03  0.00000000000E+00 0. -1.
         -2   -1    0    0    0  501 -0.00000000000E+00 -0.00000000000E+00 -0.49352072852E+02  0.49352072852E+02  0.00000000000E+00 0.  1.
         25    2    1    2    0    0 -0.13882679616E+03  0.46876892477E+02  0.54820467170E+03  0.58107308932E+03  0.12508897107E+03 0.  0.
         23    2    1    2    0    0  0.13882679616E+03 -0.46876892477E+02  0.22044304270E+03  0.28627877078E+03  0.10904163032E+03 0.  0.
          5    1    3    3  502    0 -0.25856805566E+02 -0.41406757416E+02  0.12757436880E+03  0.13665937921E+03  0.41800000000E+01 0. -1.
         -5    1    3    3    0  502 -0.11296999059E+03  0.88283649892E+02  0.42063030290E+03  0.44441371011E+03  0.41800000000E+01 0. -1.
        -11    1    4    4    0    0  0.27181419712E+02  0.50168759945E-01  0.13587614256E+03  0.13856824388E+03  0.00000000000E+00 0. -1.
         11    1    4    4    0    0  0.11164537644E+03 -0.46927061237E+02  0.84566900139E+02  0.14771052690E+03  0.00000000000E+00 0.  1.
</event>
<event>
 7    1  0.3896452E-010  0.1226297E+03  0.7561462E-02  0.1238821E+00
         -2   -1    0    0    0  501 -0.00000000000E+00  0.00000000000E+00  0.40820106411E+02  0.40820106411E+02  0.00000000000E+00 0.  1.
          2   -1    0    0  501    0  0.00000000000E+00 -0.00000000000E+00 -0.40270861120E+03  0.40270861120E+03  0.00000000000E+00 0. -1.
         25    2    1    2    0    0  0.90154057954E+02  0.81079036410E+01 -0.22799861764E+03  0.27536244582E+03  0.12509042592E+03 0.  0.
          5    1    3    3  502    0  0.10408369681E+03 -0.32413940482E+02 -0.18325476335E+03  0.21326945438E+03  0.41800000000E+01 0.  1.
         -5    1    3    3    0  502 -0.13929638859E+02  0.40521844123E+02 -0.44743854289E+02  0.62092991444E+02  0.41800000000E+01 0.  1.
        -11    1    1    2    0    0 -0.23954778162E+02 -0.12012839695E+02 -0.11909540262E+02  0.29325362122E+02  0.00000000000E+00 0.  1.
         11    1    1    2    0    0 -0.66199279792E+02  0.39049360544E+01 -0.12198034689E+03  0.13884090967E+03  0.00000000000E+00 0. -1.
</event>
<event>
 7    1  0.3896452E-010  0.1205911E+03  0.7561462E-02  0.1242125E+00
         -2   -1    0    0    0  501 -0.00000000000E+00  0.00000000000E+00  0.26696545268E+02  0.26696545268E+02  0.00000000000E+00 0.  1.
          2   -1    0    0  501    0  0.00000000000E+00 -0.00000000000E+00 -0.58714695196E+03  0.58714695196E+03  0.00000000000E+00 0. -1.
         25    2    1    2    0    0 -0.66203421156E+02  0.45109989717E+02 -0.26685988715E+03  0.30541689760E+03  0.12508987900E+03 0.  0.
          5    1    3    3  502    0  0.35501731814E+02 -0.31612850572E+01 -0.64878803549E+02  0.74142418593E+02  0.41800000000E+01 0.  1.
         -5    1    3    3    0  502 -0.10170515297E+03  0.48271274774E+02 -0.20198108360E+03  0.23127447901E+03  0.41800000000E+01 0.  1.
        -11    1    1    2    0    0  0.56625909517E+02 -0.11619071694E+02 -0.15217869735E+03  0.16278775256E+03  0.00000000000E+00 0.  1.
         11    1    1    2    0    0  0.95775116397E+01 -0.33490918023E+02 -0.14141182220E+03  0.14563884707E+03  0.00000000000E+00 0. -1.
</event>
<event>
 8    1  0.3896452E-010  0.9944334E+02  0.7561462E-02  0.1281471E+00
          3   -1    0    0  501    0  0.00000000000E+00  0.00000000000E+00  0.22334797952E+02  0.22334797952E+02  0.00000000000E+00 0. -1.
         -3   -1    0    0    0  501 -0.00000000000E+00 -0.00000000000E+00 -0.90581851348E+03  0.90581851348E+03  0.00000000000E+00 0.  1.
         25    2    1    2    0    0 -0.63257970708E+02 -0.50264120101E+02 -0.31096715725E+03  0.34478408304E+03  0.12508972140E+03 0.  0.
         23    2    1    2    0    0  0.63257970708E+02  0.50264120101E+02 -0.57251655828E+03  0.58336922840E+03  0.77565420817E+02 0.  0.
          5    1    3    3  502    0 -0.20853516719E+02 -0.38158387963E+02 -0.29419202848E+03  0.29741781008E+03  0.41800000000E+01 0. -1.
         -5    1    3    3    0  502 -0.42404453989E+02 -0.12105732138E+02 -0.16775128770E+02  0.47366272958E+02  0.41800000000E+01 0. -1.
        -11    1    4    4    0    0 -0.12543102259E+02  0.29887807829E+02 -0.13252602407E+03  0.13643224518E+03  0.00000000000E+00 0. -1.
         11    1    4    4    0    0  0.75801072967E+02  0.20376312272E+02 -0.43999053422E+03  0.44693698321E+03  0.00000000000E+00 0.  1.
</event>
<event>
 8    1  0.3896452E-010  0.8045540E+02  0.7561462E-02  0.1327764E+00
          1   -1    0    0  501    0  0.00000000000E+00  0.00000000000E+00  0.43619762489E+03  0.43619762489E+03  0.00000000000E+00 0. -1.
         -1   -1    0    0    0  501 -0.00000000000E+00 -0.00000000000E+00 -0.24613863161E+02  0.24613863161E+02  0.00000000000E+00 0.  1.
         25    2    1    2    0    0 -0.23773457830E+01 -0.38143510308E+00  0.33683752331E+03  0.35932259296E+03  0.12508961361E+03 0.  0.
         23    2    1    2    0    0  0.23773457830E+01  0.38143510308E+00  0.74746238421E+02  0.10148889510E+03  0.68609025675E+02 0.  0.
          5    1    3    3  502    0 -0.39801603831E+02 -0.47441659333E+02  0.20839743567E+03  0.21744388311E+03  0.41800000000E+01 0. -1.
         -5    1    3    3    0  502  0.37424258048E+02  0.47060224230E+02  0.12844008765E+03  0.14187870985E+03  0.41800000000E+01 0. -1.
        -11    1    4    4    0    0  0.20382437041E+02 -0.16658635724E+01 -0.38681578518E+01  0.20813012428E+02  0.00000000000E+00 0.  1.
         11    1    4    4    0    0 -0.18005091258E+02  0.20472986755E+01  0.78614396272E+02  0.80675882668E+02  0.00000000000E+00 0. -1.
</event>
<event>
 7    1  0.3896452E-010  0.7752673E+02  0.7561462E-02  0.1336220E+00
         -1   -1    0    0    0  501 -0.00000000000E+00  0.00000000000E+00  0.54282447406E+02  0.54282447406E+02  0.00000000000E+00 0.  1.
          1   -1    0    0  501    0  0.00000000000E+00 -0.00000000000E+00 -0.18821552468E+03  0.18821552468E+03  0.00000000000E+00 0. -1.
         25    2    1    2    0    0  0.21204309893E+02 -0.47070437086E+02 -0.66217752873E+02  0.15065932384E+03  0.12509273463E+03 0.  0.
          5    1    3    3  502    0 -0.14521370495E+02 -0.54482332749E+02 -0.90444973143E+02  0.10666283490E+03  0.41800000000E+01 0. -1.
         -5    1    3    3    0  502  0.35725680389E+02  0.74118956627E+01  0.24227220270E+02  0.43996488935E+02  0.41800000000E+01 0. -1.
        -11    1    1    2    0    0 -0.18988794875E+02  0.49670853301E+01 -0.17766759123E+02  0.26474591540E+02  0.00000000000E+00 0.  1.
         11    1    1    2    0    0 -0.22155150182E+01  0.42103351756E+02 -0.49948565280E+02  0.65364056709E+02  0.00000000000E+00 0. -1.
</event>
<event>
 8    1  0.3896452E-010  0.9325901E+02  0.7561462E-02  0.1295146E+00
         -1   -1    0    0    0  501 -0.00000000000E+00  0.00000000000E+00  0.77436519166E+02  0.77436519166E+02  0.00000000000E+00 0.  1.
          1   -1    0    0  501    0  0.00000000000E+00 -0.00000000000E+00 -0.12399619469E+03  0.12399619469E+03  0.00000000000E+00 0. -1.
         25    2    1    2    0    0 -0.32262230539E+02 -0.12978623213E+02 -0.21150654921E+02  0.13154642341E+03  0.12509122722E+03 0.  0.
         23    2    1    2    0    0  0.32262230539E+02  0.12978623213E+02 -0.25409020604E+02  0.69886290451E+02  0.55037978570E+02 0.  0.
          5    1    3    3  502    0 -0.45478652899E+02 -0.62393192175E+02 -0.39653895735E+01  0.77423607600E+02  0.41800000000E+01 0.  1.
         -5    1    3    3    0  502  0.13216422361E+02  0.49414568963E+02 -0.17185265348E+02  0.54122815807E+02  0.41800000000E+01 0.  1.
        -11    1    4    4    0    0  0.11822319933E+02  0.29378625149E+02  0.22953829907E+01  0.31751214895E+02  0.00000000000E+00 0.  1.
         11    1    4    4    0    0  0.20439910606E+02 -0.16400001936E+02 -0.27704403595E+02  0.38135075556E+02  0.00000000000E+00 0. -1.
</event>
<event>
 7    1  0.3896452E-010  0.8250621E+02  0.7561462E-02  0.1322086E+00
         -1   -1    0    0    0  501 -0.00000000000E+00  0.00000000000E+00  0.17892104274E+02  0.17892104274E+02  0.00000000000E+00 0.  1.
          1   -1    0    0  501    0  0.00000000000E+00 -0.00000000000E+00 -0.71527974175E+03  0.71527974175E+03  0.00000000000E+00 0. -1.
         25    2    1    2    0    0 -0.68867681920E+01 -0.43008557922E+02 -0.61202206266E+03  0.62619204851E+03  0.12509321648E+03 0.  0.
          5    1    3    3  502    0 -0.38361663386E+02 -0.69888772988E+02 -0.50671367327E+03  0.51296420624E+03  0.41800000000E+01 0. -1.
         -5    1    3    3    0  502  0.31474895194E+02  0.26880215066E+02 -0.10530838939E+03  0.11322784227E+03  0.41800000000E+01 0. -1.
        -11    1    1    2    0    0  0.14841050463E+01  0.13108990865E+02  0.30059784818E+01  0.13530857915E+02  0.00000000000E+00 0.  1.
         11    1    1    2    0    0  0.54026631457E+01  0.29899567057E+02 -0.88371553300E+02  0.93448939598E+02  0.00000000000E+00 0. -1.
</event>
<event>
 8    1  0.3896452E-010  0.7192589E+02  0.7561462E-02  0.1353664E+00
          4   -1    0    0  501    0  0.00000000000E+00  0.00000000000E+00  0.33412075294E+03  0.33412075294E+03  0.00000000000E+00 0. -1.
         -4   -1    0    0    0  501 -0.00000000000E+00 -0.00000000000E+00 -0.68482703394E+02  0.68482703394E+02  0.00000000000E+00 0.  1.
         25    2    1    2    0    0  0.28865825802E+02 -0.32428462342E+02  0.28304902552E+03  0.31248778955E+03  0.12508807577E+03 0.  0.
         23    2    1    2    0    0 -0.28865825802E+02  0.32428462342E+02 -0.17410975974E+02  0.90115666786E+02  0.77024997545E+02 0.  0.
          5    1    3    3  502    0 -0.22019935294E+01 -0.34673001446E+02  0.83224957760E+01  0.35969461223E+02  0.41800000000E+01 0. -1.
         -5    1    3    3    0  502  0.31067819331E+02  0.22445391033E+01  0.27472652974E+03  0.27651832832E+03  0.41800000000E+01 0. -1.
        -11    1    4    4    0    0  0.10176432304E+02  0.36765559580E+02 -0.30359551104E+02  0.48754163811E+02  0.00000000000E+00 0.  1.
         11    1    4    4    0    0 -0.39042258105E+02 -0.43370972381E+01  0.12948575130E+02  0.41361502975E+02  0.00000000000E+00 0. -1.
</event>
<event>
 7    1  0.3896452E-010  0.8935423E+02  0.7561462E-02  0.1304423E+00
          2   -1    0    0  501    0  0.00000000000E+00  0.00000000000E+00  0.62559624530E+03  0.62559624530E+03  0.00000000000E+00 0. -1.
         -2   -1    0    0    0  501 -0.00000000000E+00 -0.00000000000E+00 -0.15781001030E+02  0.15781001030E+02  0.00000000000E+00 0.  1.
         25    2    1    2    0    0 -0.39341417396E+02 -0.34148583366E+02  0.36906435761E+03  0.39315446581E+03  0.12509221022E+03 0.  0.
          5    1    3    3  502    0 -0.67367655165E+02  0.76654074344E+01  0.29997215166E+03  0.30756775450E+03  0.41800000000E+01 0.  1.
         -5    1    3    3    0  502  0.28026237768E+02 -0.41813990800E+02  0.69092205949E+02  0.85586711311E+02  0.41800000000E+01 0.  1.
        -11    1    1    2    0    0  0.28467241221E+02  0.46720364538E+01  0.10575669225E+03  0.10962066276E+03  0.00000000000E+00 0.  1.
         11    1    1    2    0    0  0.10874176175E+02  0.29476546912E+02  0.13499419440E+03  0.13860211776E+03  0.00000000000E+00 0. -1.
</event>
<event>
 8    1  0.3896452E-010  0.1315310E+03  0.7561462E-02  0.1225202E+00
         -2   -1    0    0    0  501 -0.00000000000E+00  0.00000000000E+00  0.64091783435E+02  0.64091783435E+02  0.00000000000E+00 0.  1.
          2   -1    0    0  501    0  0.00000000000E+00 -0.00000000000E+00 -0.31310427712E+03  0.31310427712E+03  0.00000000000E+00 0. -1.
         25    2    1    2    0    0  0.88501965343E+02 -0.36551033459E+02 -0.18076152026E+03  0.23977350394E+03  0.12509208636E+03 0.  0.
         23    2    1    2    0    0 -0.88501965343E+02  0.36551033459E+02 -0.68250973428E+02  0.13742255662E+03  0.71120937683E+02 0.  0.
          5    1    3    3  502    0  0.56586398998E+02 -0.81961601742E+02 -0.96178471292E+02  0.13851893535E+03  0.41800000000E+01 0.  1.
         -5    1    3    3    0  502  0.31915566345E+02  0.45410568284E+02 -0.84583048965E+02  0.10125456858E+03  0.41800000000E+01 0.  1.
        -11    1    4    4    0    0 -0.52443021075E+01  0.22718748602E+02  0.70037846114E+01  0.24345374129E+02  0.00000000000E+00 0.  1.
         11    1    4    4    0    0 -0.83257663235E+02  0.13832284857E+02 -0.75254758040E+02  0.11307718249E+03  0.00000000000E+00 0. -1.
</event>
<event>
 8    1  0.3896452E-010  0.2100611E+03  0.7561462E-02  0.1141518E+00
         -1   -1    0    0    0  501 -0.00000000000E+00  0.00000000000E+00  0.78291959795E+03  0.78291959795E+03  0.00000000000E+00 0.  1.
          1   -1    0    0  501    0  0.00000000000E+00 -0.00000000000E+00 -0.12456193515E+03  0.12456193515E+03  0.00000000000E+00 0. -1.
         25    2    1    2    0    0 -0.20178185528E+03 -0.39150994041E+02  0.64562595103E+03  0.68900587067E+03  0.12508998251E+03 0.  0.
         23    2    1    2    0    0  0.20178185528E+03  0.39150994041E+02  0.12731711772E+02  0.21847566243E+03  0.72943821799E+02 0.  0.
          5    1    3    3  502    0 -0.25876486398E+02 -0.14913364587E+02  0.14688405689E+02  0.33544338618E+02  0.41800000000E+01 0.  1.
         -5    1    3    3    0  502 -0.17590536888E+03 -0.24237629454E+02  0.63093754534E+03  0.65546153205E+03  0.41800000000E+01 0.  1.
        -11    1    4    4    0    0  0.45408086807E+02  0.32486632170E+02 -0.18610650350E+02  0.58852628859E+02  0.00000000000E+00 0. -1.
         11    1    4    4    0    0  0.15637376847E+03  0.66643618711E+01  0.31342362122E+02  0.15962303357E+03  0.00000000000E+00 0.  1.
</event>
<event>
 8    1  0.5019752E-010  0.1220715E+03  0.7561462E-02  0.1239718E+00
          1   -1    0    0  501    0  0.00000000000E+00  0.00000000000E+00  0.11832740480E+04  0.11832740480E+04  0.00000000000E+00 0. -1.
         -1   -1    0    0    0  501 -0.00000000000E+00 -0.00000000000E+00 -0.16506555372E+02  0.16506555372E+02  0.00000000000E+00 0.  1.
         25    2    1    2    0    0  0.60178571250E+02  0.16257877209E+02  0.82393600574E+03  0.83570433689E+03  0.12508164591E+03 0.  0.
         23    2    1    2    0    0 -0.60178571250E+02 -0.16257877209E+02  0.34283148686E+03  0.36407626644E+03  0.10550981186E+03 0.  0.
          5    1    3    3  502    0  0.61941718183E+01  0.64562178336E+02  0.31627071421E+03  0.32287966753E+03  0.41800000000E+01 0.  1.
         -5    1    3    3    0  502  0.53984399432E+02 -0.48304301127E+02  0.50766529153E+03  0.51282466937E+03  0.41800000000E+01 0.  1.
        -11    1    4    4    0    0  0.30199018790E+01  0.28809397502E+02  0.29777747546E+02  0.41542934907E+02  0.00000000000E+00 0.  1.
         11    1    4    4    0    0 -0.63198473129E+02 -0.45067274710E+02  0.31305373931E+03  0.32253333154E+03  0.00000000000E+00 0. -1.
</event>
<event>
 8    1  0.3896452E-010  0.1530504E+03  0.7561462E-02  0.1196774E+00
         -2   -1    0    0    0  501 -0.00000000000E+00  0.00000000000E+00  0.14930924149E+03  0.14930924149E+03  0.00000000000E+00 0. -1.
          2   -1    0    0  501    0  0.00000000000E+00 -0.00000000000E+00 -0.31344866057E+03  0.31344866057E+03  0.00000000000E+00 0.  1.
         25    2    1    2    0    0 -0.11786722277E+03 -0.44934333855E+02  0.65535578236E+02  0.18935236821E+03  0.12509049032E+03 0.  0.
         23    2    1    2    0    0  0.11786722277E+03  0.44934333855E+02 -0.22967499731E+03  0.27340553386E+03  0.78026950403E+02 0.  0.
          5    1    3    3  502    0 -0.29314572945E+02 -0.70413733153E+02  0.59662655518E+02  0.96925450048E+02  0.41800000000E+01 0.  1.
         -5    1    3    3    0  502 -0.88552649825E+02  0.25479399298E+02  0.58729227185E+01  0.92426918162E+02  0.41800000000E+01 0.  1.
        -11    1    4    4    0    0  0.55458611919E+02  0.50252019093E+02 -0.17474389788E+03  0.19009564147E+03  0.00000000000E+00 0.  1.
         11    1    4    4    0    0  0.62408610851E+02 -0.53176852383E+01 -0.54931099436E+02  0.83309892389E+02  0.00000000000E+00 0. -1.
</event>
<event>
 7    1  0.3896452E-010  0.8035805E+02  0.7561462E-02  0.1328038E+00
          1   -1    0    0  501    0  0.00000000000E+00  0.00000000000E+00  0.32953331554E+03  0.32953331554E+03  0.00000000000E+00 0. -1.
         -1   -1    0    0    0  501 -0.00000000000E+00 -0.00000000000E+00 -0.21611951885E+02  0.21611951885E+02  0.00000000000E+00 0.  1.
         25    2    1    2    0    0 -0.16130747196E+02  0.29763716438E+02  0.21370151434E+03  0.24992322353E+03  0.12508877092E+03 0.  0.
          5    1    3    3  502    0 -0.46129084958E+01  0.75871660568E+02  0.93315627575E+02  0.12042867828E+03  0.41800000000E+01 0.  1.
         -5    1    3    3    0  502 -0.11517838701E+02 -0.46107944129E+02  0.12038588676E+03  0.12949454526E+03  0.41800000000E+01 0.  1.
        -11    1    1    2    0    0  0.97443726177E+01 -0.43390499959E+01  0.23795337999E+02  0.26076776316E+02  0.00000000000E+00 0.  1.
         11    1    1    2    0    0  0.63863745786E+01 -0.25424666442E+02  0.70424511319E+02  0.75145267572E+02  0.00000000000E+00 0. -1.
</event>
<event>
 8    1  0.3896452E-010  0.1457499E+03  0.7561462E-02  0.1205795E+00
          2   -1    0    0  501    0  0.00000000000E+00  0.00000000000E+00  0.11667121976E+04  0.11667121976E+04  0.00000000000E+00 0. -1.
         -2   -1    0    0    0  501 -0.00000000000E+00 -0.00000000000E+00 -0.23744916198E+02  0.23744916198E+02  0.00000000000E+00 0.  1.
         25    2    1    2    0    0  0.29038284161E+02 -0.10559317636E+03  0.68831539271E+03  0.70810903069E+03  0.12508868322E+03 0.  0.
         23    2    1    2    0    0 -0.29038284161E+02  0.10559317636E+03  0.45465188872E+03  0.48234808313E+03  0.11814479482E+03 0.  0.
          5    1    3    3  502    0 -0.33374781149E+02  0.89726968503E+01  0.11682616704E+03  0.12190246516E+03  0.41800000000E+01 0.  1.
         -5    1    3    3    0  502  0.62413065310E+02 -0.11456587321E+03  0.57148922566E+03  0.58620656554E+03  0.41800000000E+01 0.  1.
        -11    1    4    4    0    0  0.19195503509E+02  0.43376089098E+02  0.45627148464E+02  0.65816328805E+02  0.00000000000E+00 0.  1.
         11    1    4    4    0    0 -0.48233787670E+02  0.62217087261E+02  0.40902474025E+03  0.41653175432E+03  0.00000000000E+00 0. -1.
</event>
<event>
 8    1  0.3896452E-010  0.1013249E+03  0.7561462E-02  0.1277534E+00
         -3   -1    0    0    0  501 -0.00000000000E+00  0.00000000000E+00  0.64399365681E+03  0.64399365681E+03  0.00000000000E+00 0.  1.
          3   -1    0    0  501    0  0.00000000000E+00 -0.00000000000E+00 -0.20766697207E+02  0.20766697207E+02  0.00000000000E+00 0. -1.
         25    2    1    2    0    0  0.22087375156E+02 -0.50814735283E+02  0.42154574399E+03  0.44319210905E+03  0.12509373199E+03 0.  0.
         23    2    1    2    0    0 -0.22087375156E+02  0.50814735283E+02  0.20168121561E+03  0.22156824497E+03  0.73124448609E+02 0.  0.
          5    1    3    3  502    0  0.71869875460E+02 -0.44544194099E+02  0.22817045535E+03  0.24336945848E+03  0.41800000000E+01 0.  1.
         -5    1    3    3    0  502 -0.49782500304E+02 -0.62705411840E+01  0.19337528864E+03  0.19982265057E+03  0.41800000000E+01 0.  1.
        -11    1    4    4    0    0 -0.31855265115E+02  0.47758398860E+02  0.20326082591E+03  0.21121218224E+03  0.00000000000E+00 0.  1.
         11    1    4    4    0    0  0.97678899590E+01  0.30563364225E+01 -0.15796102956E+01  0.10356062730E+02  0.00000000000E+00 0. -1.
</event>
<event>
 8    1  0.3896452E-010  0.8083472E+02  0.7561462E-02  0.1326699E+00
         -4   -1    0    0    0  501 -0.00000000000E+00  0.00000000000E+00  0.25100204906E+03  0.25100204906E+03  0.00000000000E+00 0. -1.
          4   -1    0    0  501    0  0.00000000000E+00 -0.00000000000E+00 -0.35772598332E+02  0.35772598332E+02  0.00000000000E+00 0.  1.
         25    2    1    2    0    0 -0.11725780877E+02 -0.58702265042E+01  0.14212620650E+03  0.18978012173E+03  0.12507870535E+03 0.  0.
         23    2    1    2    0    0  0.11725780877E+02  0.58702265042E+01  0.73103244232E+02  0.96994525667E+02  0.62385095942E+02 0.  0.
          5    1    3    3  502    0 -0.66194874674E+02  0.12718352553E+02  0.85220176822E+02  0.10873577545E+03  0.41800000000E+01 0. -1.
         -5    1    3    3    0  502  0.54469093797E+02 -0.18588579057E+02  0.56906029676E+02  0.81044346280E+02  0.41800000000E+01 0. -1.
        -11    1    4    4    0    0  0.20949210945E+02 -0.56247845600E+01 -0.73123355369E+00  0.21703509925E+02  0.00000000000E+00 0.  1.
         11    1    4    4    0    0 -0.92234300679E+01  0.11495011064E+02  0.73834477786E+02  0.75291015743E+02  0.00000000000E+00 0. -1.
</event>
<event>
 8    1  0.3896452E-010  0.1053672E+03  0.7561462E-02  0.1269398E+00
         -2   -1    0    0    0  501 -0.00000000000E+00  0.00000000000E+00  0.15286030013E+02  0.15286030013E+02  0.00000000000E+00 0.  1.
          2   -1    0    0  501    0  0.00000000000E+00 -0.00000000000E+00 -0.91548143601E+03  0.91548143601E+03  0.00000000000E+00 0. -1.
         25    2    1    2    0    0  0.34849205170E+01  0.74459791840E+01 -0.57986389663E+03  0.59326018979E+03  0.12509167398E+03 0.  0.
         23    2    1    2    0    0 -0.34849205170E+01 -0.74459791840E+01 -0.32033150937E+03  0.33750727624E+03  0.10597782003E+03 0.  0.
          5    1    3    3  502    0  0.86918378026E+01 -0.55978435017E+02 -0.19339050514E+03  0.20156014762E+03  0.41800000000E+01 0. -1.
         -5    1    3    3    0  502 -0.52069172857E+01  0.63424414201E+02 -0.38647339149E+03  0.39170004217E+03  0.41800000000E+01 0. -1.
        -11    1    4    4    0    0  0.43084103606E+02 -0.65456832258E+01 -0.66972851111E+02  0.79902745500E+02  0.00000000000E+00 0. -1.
         11    1    4    4    0    0 -0.46569024123E+02 -0.90029595818E+00 -0.25335865826E+03  0.25760453074E+03  0.00000000000E+00 0.  1.
</event>
<event>
 8    1  0.3896452E-010  0.1104847E+03  0.7561462E-02  0.1259675E+00
          1   -1    0    0  501    0  0.00000000000E+00  0.00000000000E+00  0.23834883413E+03  0.23834883413E+03  0.00000000000E+00 0. -1.
         -1   -1    0    0    0  501 -0.00000000000E+00 -0.00000000000E+00 -0.83902278136E+02  0.83902278136E+02  0.00000000000E+00 0.  1.
         25    2    1    2    0    0  0.23086511417E+02 -0.94416861660E+02  0.68428518113E+02  0.17256412811E+03  0.12509350680E+03 0.  0.
         23    2    1    2    0    0 -0.23086511417E+02  0.94416861660E+02  0.86018037880E+02  0.14968698416E+03  0.74562454427E+02 0.  0.
          5    1    3    3  502    0 -0.48955210618E+01 -0.69164880089E+02  0.10099481103E+03  0.12257720432E+03  0.41800000000E+01 0.  1.
         -5    1    3    3    0  502  0.27982032479E+02 -0.25251981571E+02 -0.32566292920E+02  0.49986923785E+02  0.41800000000E+01 0.  1.
        -11    1    4    4    0    0  0.11074716886E+02 -0.20350380386E+01  0.32120646283E+02  0.34037136360E+02  0.00000000000E+00 0. -1.
         11    1    4    4    0    0 -0.34161228303E+02  0.96451899699E+02  0.53897391596E+02  0.11564984780E+03  0.00000000000E+00 0.  1.
</event>
<event>
 7    1  0.3896452E-010  0.3465179E+03  0.7561462E-02  0.1064053E+00
          2   -1    0    0  501    0  0.00000000000E+00  0.00000000000E+00  0.19865143457E+04  0.19865143457E+04  0.00000000000E+00 0. -1.
         -2   -1    0    0    0  501 -0.00000000000E+00 -0.00000000000E+00 -0.64504421370E+02  0.64504421370E+02  0.00000000000E+00 0.  1.
         25    2    1    2    0    0  0.85287468830E+02 -0.32119537018E+03  0.10385292382E+04  0.10975570462E+04  0.12509225779E+03 0.  0.
          5    1    3    3  502    0  0.19358706986E+02 -0.27199076631E+03  0.79481211884E+03  0.84029608659E+03  0.41800000000E+01 0.  1.
         -5    1    3    3    0  502  0.65928761844E+02 -0.49204603871E+02  0.24371711936E+03  0.25726095963E+03  0.41800000000E+01 0.  1.
        -11    1    1    2    0    0 -0.11492813681E+02  0.16286239397E+03  0.26934210373E+03  0.31496255806E+03  0.00000000000E+00 0. -1.
         11    1    1    2    0    0 -0.73794655149E+02  0.15833297621E+03  0.61413858241E+03  0.63849916279E+03  0.00000000000E+00 0.  1.
</event>
<event>
 8    1  0.3896452E-010  0.9514085E+02  0.7561462E-02  0.1290859E+00
         -1   -1    0    0    0  501 -0.00000000000E+00  0.00000000000E+00  0.14698378082E+02  0.14698378082E+02  0.00000000000E+00 0.  1.
          1   -1    0    0  501    0  0.00000000000E+00 -0.00000000000E+00 -0.81866690440E+03  0.81866690440E+03  0.00000000000E+00 0. -1.
         25    2    1    2    0    0 -0.47746477282E+02 -0.12552738995E+02 -0.45129265674E+03  0.47090178391E+03  0.12508449431E+03 0.  0.
         23    2    1    2    0    0  0.47746477282E+02  0.12552738995E+02 -0.35267586959E+03  0.36246349858E+03  0.67544218581E+02 0.  0.
          5    1    3    3  502    0 -0.41928784041E+01 -0.49651727840E+02 -0.74233767860E+02  0.89504184245E+02  0.41800000000E+01 0.  1.
         -5    1    3    3    0  502 -0.43553598878E+02  0.37098988845E+02 -0.37705888888E+03  0.38139759966E+03  0.41800000000E+01 0.  1.
        -11    1    4    4    0    0 -0.50478244952E+01  0.27567240258E+02 -0.97301258652E+02  0.10125694150E+03  0.00000000000E+00 0. -1.
         11    1    4    4    0    0  0.52794301777E+02 -0.15014501263E+02 -0.25537461094E+03  0.26120655707E+03  0.00000000000E+00 0.  1.
</event>
<event>
 8    1  0.3896452E-010  0.1251590E+03  0.7561462E-02  0.1234821E+00
          1   -1    0    0  501    0  0.00000000000E+00  0.00000000000E+00  0.23419379158E+03  0.23419379158E+03  0.00000000000E+00 0. -1.
         -1   -1    0    0    0  501 -0.00000000000E+00 -0.00000000000E+00 -0.79905633824E+02  0.79905633824E+02  0.00000000000E+00 0.  1.
         25    2    1    2    0    0 -0.53613241208E+02 -0.28457595764E+01  0.10797823299E+03  0.17375225248E+03  0.12509223981E+03 0.  0.
         23    2    1    2    0    0  0.53613241208E+02  0.28457595764E+01  0.46309924764E+02  0.14034717292E+03  0.12112077376E+03 0.  0.
          5    1    3    3  502    0 -0.85338377963E+02  0.26278864611E+01  0.32256294398E+02  0.91364574475E+02  0.41800000000E+01 0. -1.
         -5    1    3    3    0  502  0.31725136755E+02 -0.54736460375E+01  0.75721938589E+02  0.82387678003E+02  0.41800000000E+01 0. -1.
        -11    1    4    4    0    0  0.44898631592E+02  0.59786903859E+02  0.29035785359E+02  0.80208714136E+02  0.00000000000E+00 0.  1.
         11    1    4    4    0    0  0.87146096160E+01 -0.56941144283E+02  0.17274139405E+02  0.60138458786E+02  0.00000000000E+00 0. -1.
</event>
<event>
 8    1  0.3896452E-010  0.1112121E+03  0.7561462E-02  0.1258342E+00
          2   -1    0    0  501    0  0.00000000000E+00  0.00000000000E+00  0.18101174483E+03  0.18101174483E+03  0.00000000000E+00 0.  1.
         -2   -1    0    0    0  501 -0.00000000000E+00 -0.00000000000E+00 -0.11722088670E+03  0.11722088670E+03  0.00000000000E+00 0. -1.
         25    2    1    2    0    0  0.64803966563E+02 -0.17950850413E+02 -0.97704612214E+00  0.14202447767E+03  0.12509280765E+03 0.  0.
         23    2    1    2    0    0 -0.64803966563E+02  0.17950850413E+02  0.64767904255E+02  0.15620815385E+03  0.12523705041E+03 0.  0.
          5    1    3    3  502    0  0.45866528432E+01 -0.19620343776E+02 -0.56414635782E+02  0.60050635338E+02  0.41800000000E+01 0.  1.
         -5    1    3    3    0  502  0.60217313720E+02  0.16694933632E+01  0.55437589659E+02  0.81973842334E+02  0.41800000000E+01 0.  1.
        -11    1    4    4    0    0  0.21413708313E+02  0.46045318708E+02  0.15974276271E+02  0.53234347756E+02  0.00000000000E+00 0. -1.
         11    1    4    4    0    0 -0.86217674877E+02 -0.28094468295E+02  0.48793627983E+02  0.10297380609E+03  0.00000000000E+00 0.  1.
</event>
<event>
 7    1  0.3896452E-010  0.1523027E+03  0.7561462E-02  0.1197672E+00
          1   -1    0    0  501    0  0.00000000000E+00  0.00000000000E+00  0.79867820072E+03  0.79867820072E+03  0.00000000000E+00 0. -1.
         -1   -1    0    0    0  501 -0.00000000000E+00 -0.00000000000E+00 -0.40913368138E+02  0.40913368138E+02  0.00000000000E+00 0.  1.
         25    2    1    2    0    0 -0.54872459905E+02 -0.87539143073E+02  0.33127602078E+03  0.36886830813E+03  0.12508372544E+03 0.  0.
          5    1    3    3  502    0 -0.12180663593E+02  0.51391760532E+00 -0.83793510291E+01  0.15372657563E+02  0.41800000000E+01 0.  1.
         -5    1    3    3    0  502 -0.42691796312E+02 -0.88053060678E+02  0.33965537181E+03  0.35349565057E+03  0.41800000000E+01 0.  1.
        -11    1    1    2    0    0  0.87188835906E+01 -0.48934259967E+02  0.66863199669E+02  0.83314273685E+02  0.00000000000E+00 0.  1.
         11    1    1    2    0    0  0.46153576314E+02  0.13647340304E+03  0.35962561213E+03  0.38740898705E+03  0.00000000000E+00 0. -1.
</event>
<event>
 8    1  0.3896452E-010  0.8521372E+02  0.7561462E-02  0.1314875E+00
          4   -1    0    0  501    0  0.00000000000E+00  0.00000000000E+00  0.98384036238E+03  0.98384036238E+03  0.00000000000E+00 0. -1.
         -4   -1    0    0    0  501 -0.00000000000E+00 -0.00000000000E+00 -0.22918955865E+02  0.22918955865E+02  0.00000000000E+00 0.  1.
         25    2    1    2    0    0  0.64925105951E+02 -0.24106337203E+02  0.83380699073E+03  0.84597742813E+03  0.12508927305E+03 0.  0.
         23    2    1    2    0    0 -0.64925105951E+02  0.24106337203E+02  0.12711441579E+03  0.16078189012E+03  0.69973970973E+02 0.  0.
          5    1    3    3  502    0  0.44165046840E+02  0.88064219701E+01  0.86183203753E+02  0.97329961674E+02  0.41800000000E+01 0. -1.
         -5    1    3    3    0  502  0.20760059111E+02 -0.32912759173E+02  0.74762378698E+03  0.74864746645E+03  0.41800000000E+01 0. -1.
        -11    1    4    4    0    0 -0.15189205099E+02  0.32265281225E+02  0.16638499877E+02  0.39352255364E+02  0.00000000000E+00 0.  1.
         11    1    4    4    0    0 -0.49735900852E+02 -0.81589440212E+01  0.11047591591E+03  0.12142963476E+03  0.00000000000E+00 0. -1.
</event>
<event>
 8    1  0.3896452E-010  0.9081138E+02  0.7561462E-02  0.1300899E+00
         -1   -1    0    0    0  501 -0.00000000000E+00  0.00000000000E+00  0.21988369392E+02  0.21988369392E+02  0.00000000000E+00 0.  1.
          1   -1    0    0  501    0  0.00000000000E+00 -0.00000000000E+00 -0.77930884420E+03  0.77930884420E+03  0.00000000000E+00 0. -1.
         25    2    1    2    0    0  0.25492016294E+02  0.77148376308E+02 -0.50708681220E+03  0.52857036530E+03  0.12509149093E+03 0.  0.
         23    2    1    2    0    0 -0.25492016294E+02 -0.77148376308E+02 -0.25023366260E+03  0.27272684829E+03  0.71842417943E+02 0.  0.
          5    1    3    3  502    0 -0.56240790570E+01 -0.73422827411E+01  0.29980341041E+01  0.10583004752E+02  0.41800000000E+01 0. -1.
         -5    1    3    3    0  502  0.31116095351E+02  0.84490659050E+02 -0.51008484631E+03  0.51798736055E+03  0.41800000000E+01 0. -1.
        -11    1    4    4    0    0 -0.16458644445E+02 -0.43881338667E+02 -0.46227841515E+02  0.65829113554E+02  0.00000000000E+00 0.  1.
         11    1    4    4    0    0 -0.90333718487E+01 -0.33267037641E+02 -0.20400582109E+03  0.20689773473E+03  0.00000000000E+00 0. -1.
</event>
<event>
 8    1  0.3896452E-010  0.1039800E+03  0.7561462E-02  0.1272142E+00
          1   -1    0    0  501    0  0.00000000000E+00  0.00000000000E+00  0.76005074373E+03  0.76005074373E+03  0.00000000000E+00 0. -1.
         -1   -1    0    0    0  501 -0.00000000000E+00 -0.00000000000E+00 -0.25428603097E+02  0.25428603097E+02  0.00000000000E+00 0.  1.
         25    2    1    2    0    0  0.46237529533E+02  0.48829485538E+02  0.49286819963E+03  0.51292192242E+03  0.12509040127E+03 0.  0.
         23    2    1    2    0    0 -0.46237529533E+02 -0.48829485538E+02  0.24175394101E+03  0.27255742442E+03  0.10639715136E+03 0.  0.
          5    1    3    3  502    0  0.30156517132E+02 -0.16859734369E+02  0.32575226714E+02  0.47668479774E+02  0.41800000000E+01 0.  1.
         -5    1    3    3    0  502  0.16081012401E+02  0.65689219907E+02  0.46029297292E+03  0.46525344264E+03  0.41800000000E+01 0.  1.
        -11    1    4    4    0    0  0.67505425811E+01 -0.51887035285E+02  0.19476089162E+03  0.20166714943E+03  0.00000000000E+00 0. -1.
         11    1    4    4    0    0 -0.52988072114E+02  0.30575497477E+01  0.46993049389E+02  0.70890274986E+02  0.00000000000E+00 0.  1.
</event>
<event>
 8    1  0.3896452E-010  0.2977971E+03  0.7561462E-02  0.1086347E+00
          2   -1    0    0  501    0  0.00000000000E+00  0.00000000000E+00  0.15996289536E+04  0.15996289536E+04  0.00000000000E+00 0. -1.
         -2   -1    0    0    0  501 -0.00000000000E+00 -0.00000000000E+00 -0.64192802396E+02  0.64192802396E+02  0.00000000000E+00 0.  1.
         25    2    1    2    0    0  0.21036937330E+03  0.18581481116E+03  0.50850659587E+03  0.59414589153E+03  0.12509182670E+03 0.  0.
         23    2    1    2    0    0 -0.21036937330E+03 -0.18581481116E+03  0.10269295553E+04  0.10696758644E+04  0.10411400548E+03 0.  0.
          5    1    3    3  502    0 -0.58408742609E+01  0.48261628274E+02  0.57569414695E+02  0.75465293242E+02  0.41800000000E+01 0. -1.
         -5    1    3    3    0  502  0.21621024756E+03  0.13755318288E+03  0.45093718118E+03  0.51868059829E+03  0.41800000000E+01 0. -1.
        -11    1    4    4    0    0 -0.91562181721E+02 -0.33859219720E+02  0.23246528591E+03  0.25213129325E+03  0.00000000000E+00 0. -1.
         11    1    4    4    0    0 -0.11880719158E+03 -0.15195559144E+03  0.79446426941E+03  0.81754457120E+03  0.00000000000E+00 0.  1.
</event>
<event>
 8    1  0.7224969E-010  0.7937781E+02  0.7561462E-02  0.1330826E+00
         -2   -1    0    0    0  501 -0.00000000000E+00  0.00000000000E+00  0.18184535652E+02  0.18184535652E+02  0.00000000000E+00 0.  1.
          2   -1    0    0  501    0  0.00000000000E+00 -0.00000000000E+00 -0.72394269122E+03  0.72394269122E+03  0.00000000000E+00 0. -1.
         25    2    1    2    0    0  0.12501701223E+02  0.42518663351E+02 -0.50201050843E+03  0.51925396418E+03  0.12508396970E+03 0.  0.
         23    2    1    2    0    0 -0.12501701223E+02 -0.42518663351E+02 -0.20374764713E+03  0.22287326269E+03  0.78709962787E+02 0.  0.
          5    1    3    3  502    0 -0.13296935447E+02  0.40039397032E+02 -0.46263447607E+02  0.62751420633E+02  0.41800000000E+01 0.  1.
         -5    1    3    3    0  502  0.25798636670E+02  0.24792663188E+01 -0.45574706083E+03  0.45650254355E+03  0.41800000000E+01 0.  1.
        -11    1    4    4    0    0 -0.36585770639E+02 -0.52538380118E+02 -0.15164394672E+03  0.16460463717E+03  0.00000000000E+00 0.  1.
         11    1    4    4    0    0  0.24084069416E+02  0.10019716767E+02 -0.52103700409E+02  0.58268625521E+02  0.00000000000E+00 0. -1.
</event>
<event>
 8    1  0.3896452E-010  0.1651046E+03  0.7561462E-02  0.1183051E+00
          1   -1    0    0  501    0  0.00000000000E+00  0.00000000000E+00  0.35678915154E+03  0.35678915154E+03  0.00000000000E+00 0. -1.
         -1   -1    0    0    0  501 -0.00000000000E+00 -0.00000000000E+00 -0.94584017171E+02  0.94584017171E+02  0.00000000000E+00 0.  1.
         25    2    1    2    0    0  0.13325564705E+03 -0.21809599958E+02  0.22694670274E+03  0.29220722947E+03  0.12509009933E+03 0.  0.
         23    2    1    2    0    0 -0.13325564705E+03  0.21809599958E+02  0.35258431627E+02  0.15916593924E+03  0.76537004723E+02 0.  0.
          5    1    3    3  502    0  0.50247140660E+02 -0.70647443057E+02  0.12175661078E+03  0.14952585403E+03  0.41800000000E+01 0.  1.
         -5    1    3    3    0  502  0.83008506388E+02  0.48837843099E+02  0.10519009196E+03  0.14268137544E+03  0.41800000000E+01 0.  1.
        -11    1    4    4    0    0 -0.42755707954E+02 -0.20143357075E+02  0.35999802997E+02  0.59412046024E+02  0.00000000000E+00 0.  1.
         11    1    4    4    0    0 -0.90499939094E+02  0.41952957032E+02 -0.74137136969E+00  0.99753893213E+02  0.00000000000E+00 0. -1.
</event>
<event>
 8    1  0.3896452E-010  0.1256304E+03  0.7561462E-02  0.1234087E+00
          2   -1    0    0  501    0  0.00000000000E+00  0.00000000000E+00  0.51933880797E+03  0.51933880797E+03  0.00000000000E+00 0. -1.
         -2   -1    0    0    0  501 -0.00000000000E+00 -0.00000000000E+00 -0.41808941613E+02  0.41808941613E+02  0.00000000000E+00 0.  1.
         25    2    1    2    0    0 -0.56462371765E+02 -0.82897641156E+02  0.34224707619E+03  0.37794006632E+03  0.12508242976E+03 0.  0.
         23    2    1    2    0    0  0.56462371765E+02  0.82897641156E+02  0.13528279017E+03  0.18320768326E+03  0.72136007350E+02 0.  0.
          5    1    3    3  502    0 -0.43149805084E+02  0.60305463171E+01  0.22965011014E+03  0.23378391445E+03  0.41800000000E+01 0.  1.
         -5    1    3    3    0  502 -0.13312566681E+02 -0.88928187473E+02  0.11259696605E+03  0.14415615187E+03  0.41800000000E+01 0.  1.
        -11    1    4    4    0    0  0.27003834319E+02  0.83758883417E+02  0.73137228405E+02  0.11442819494E+03  0.00000000000E+00 0.  1.
         11    1    4    4    0    0  0.29458537446E+02 -0.86124226117E+00  0.62145561763E+02  0.68779488319E+02  0.00000000000E+00 0. -1.
</event>
<event>
 8    1  0.3896452E-010  0.1177015E+03  0.7561462E-02  0.1246938E+00
          1   -1    0    0  501    0  0.00000000000E+00  0.00000000000E+00  0.99735912206E+02  0.99735912206E+02  0.00000000000E+00 0. -1.
         -1   -1    0    0    0  501 -0.00000000000E+00 -0.00000000000E+00 -0.20474917014E+03  0.20474917014E+03  0.00000000000E+00 0.  1.
         25    2    1    2    0    0 -0.89717684811E+02  0.51704953916E+02 -0.46873764082E+02  0.16901663293E+03  0.12508719846E+03 0.  0.
         23    2    1    2    0    0  0.89717684811E+02 -0.51704953916E+02 -0.58139493849E+02  0.13546844941E+03  0.65183086874E+02 0.  0.
          5    1    3    3  502    0 -0.94988523238E+02  0.20033123508E+02  0.15827764229E+02  0.98448647045E+02  0.41800000000E+01 0.  1.
         -5    1    3    3    0  502  0.52708384268E+01  0.31671830408E+02 -0.62701528311E+02  0.70567985883E+02  0.41800000000E+01 0.  1.
        -11    1    4    4    0    0  0.60358044384E+02 -0.46141559530E+02 -0.70012023879E+02  0.10331418356E+03  0.00000000000E+00 0.  1.
         11    1    4    4    0    0  0.29359640427E+02 -0.55633943865E+01  0.11872530030E+02  0.32154265851E+02  0.00000000000E+00 0. -1.
</event>
<event>
 8    1  0.3896452E-010  0.1003665E+03  0.7561462E-02  0.1279527E+00
         -2   -1    0    0    0  501 -0.00000000000E+00  0.00000000000E+00  0.88008773956E+02  0.88008773956E+02  0.00000000000E+00 0.  1.
          2   -1    0    0  501    0  0.00000000000E+00 -0.00000000000E+00 -0.19694564444E+03  0.19694564444E+03  0.00000000000E+00 0. -1.
         25    2    1    2    0    0 -0.11016057447E+02  0.54440019357E+02  0.71047923302E+01  0.13705182887E+03  0.12509059315E+03 0.  0.
         23    2    1    2    0    0  0.11016057447E+02 -0.54440019357E+02 -0.11604166281E+03  0.14790258952E+03  0.72968755301E+02 0.  0.
          5    1    3    3  502    0  0.12364400242E+02  0.77070195703E+02 -0.33334881503E+02  0.84978704296E+02  0.41800000000E+01 0. -1.
         -5    1    3    3    0  502 -0.23380457689E+02 -0.22630176346E+02  0.40439673833E+02  0.52073124574E+02  0.41800000000E+01 0. -1.
        -11    1    4    4    0    0 -0.13716829354E+02 -0.62311999590E+02 -0.67663788083E+02  0.93001746856E+02  0.00000000000E+00 0.  1.
         11    1    4    4    0    0  0.24732886801E+02  0.78719802332E+01 -0.48377874729E+02  0.54900842667E+02  0.00000000000E+00 0. -1.
</event>
<event>
 7    1  0.3896452E-010  0.7170565E+02  0.7561462E-02  0.1354387E+00
          2   -1    0    0  501    0  0.00000000000E+00  0.00000000000E+00  0.50009958166E+03  0.50009958166E+03  0.00000000000E+00 0.  1.
         -2   -1    0    0    0  501 -0.00000000000E+00 -0.00000000000E+00 -0.17744639949E+02  0.17744639949E+02  0.00000000000E+00 0. -1.
         25    2    1    2    0    0  0.19986902025E+02 -0.15944371938E+02  0.39259308006E+03  0.41283015131E+03  0.12508280486E+03 0.  0.
          5    1    3    3  502    0 -0.31409221526E+02 -0.23259769319E+02  0.38824248314E+02  0.55248083431E+02  0.41800000000E+01 0.  1.
         -5    1    3    3    0  502  0.51396123551E+02  0.73153973811E+01  0.35376883174E+03  0.35758206788E+03  0.41800000000E+01 0.  1.
        -11    1    1    2    0    0 -0.30738454679E+02 -0.23226562789E+01  0.67868531896E+02  0.74541162789E+02  0.00000000000E+00 0.  1.
         11    1    1    2    0    0  0.10751552654E+02  0.18267028217E+02  0.21893329759E+02  0.30472907513E+02  0.00000000000E+00 0. -1.
</event>
<event>
 8    1  0.3896452E-010  0.1148141E+03  0.7561462E-02  0.1251906E+00
          1   -1    0    0  501    0  0.00000000000E+00  0.00000000000E+00  0.32538186206E+03  0.32538186206E+03  0.00000000000E+00 0.  1.
         -1   -1    0    0    0  501 -0.00000000000E+00 -0.00000000000E+00 -0.41286055351E+02  0.41286055351E+02  0.00000000000E+00 0. -1.
         25    2    1    2    0    0  0.10131710013E+02  0.62741523530E+01  0.15748966443E+03  0.20147320186E+03  0.12508573113E+03 0.  0.
         23    2    1    2    0    0 -0.10131710013E+02 -0.62741523530E+01  0.12660614228E+03  0.16519471555E+03  0.10544269651E+03 0.  0.
          5    1    3    3  502    0 -0.16566251261E+02 -0.55569509672E+02  0.70863911512E+02  0.91660119140E+02  0.41800000000E+01 0. -1.
         -5    1    3    3    0  502  0.26697961274E+02  0.61843662025E+02  0.86625752915E+02  0.10981308272E+03  0.41800000000E+01 0. -1.
        -11    1    4    4    0    0  0.46009044668E+02 -0.12060059690E+02  0.74455757595E+02  0.88351214309E+02  0.00000000000E+00 0.  1.
         11    1    4    4    0    0 -0.56140754680E+02  0.57859073372E+01  0.52150384687E+02  0.76843501240E+02  0.00000000000E+00 0. -1.
</event>
<event>
 8    1  0.3896452E-010  0.1356841E+03  0.7561462E-02  0.1219257E+00
          3   -1    0    0  501    0  0.00000000000E+00  0.00000000000E+00  0.65218912897E+02  0.65218912897E+02  0.00000000000E+00 0. -1.
         -3   -1    0    0    0  501 -0.00000000000E+00 -0.00000000000E+00 -0.40026939330E+03  0.40026939330E+03  0.00000000000E+00 0.  1.
         25    2    1    2    0    0  0.98803386569E+02  0.38380607902E+02 -0.85751058416E+02  0.18502720512E+03  0.12508653946E+03 0.  0.
         23    2    1    2    0    0 -0.98803386569E+02 -0.38380607902E+02 -0.24929942199E+03  0.28046110108E+03  0.72615750056E+02 0.  0.
          5    1    3    3  502    0  0.67174994808E+02  0.71939720184E+02 -0.13818271708E+02  0.99479748193E+02  0.41800000000E+01 0. -1.
         -5    1    3    3    0  502  0.31628391761E+02 -0.33559112282E+02 -0.71932786708E+02  0.85547456924E+02  0.41800000000E+01 0. -1.
        -11    1    4    4    0    0 -0.25894694604E+02 -0.46465235893E+02 -0.12933066551E+03  0.13984267731E+03  0.00000000000E+00 0. -1.
         11    1    4    4    0    0 -0.72908691965E+02  0.80846279916E+01 -0.11996875647E+03  0.14061842377E+03  0.00000000000E+00 0.  1.
</event>
<event>
 8    1  0.3896452E-010  0.1421790E+03  0.7561462E-02  0.1210427E+00
          1   -1    0    0  501    0  0.00000000000E+00  0.00000000000E+00  0.92367316212E+03  0.92367316212E+03  0.00000000000E+00 0. -1.
         -1   -1    0    0    0  501 -0.00000000000E+00 -0.00000000000E+00 -0.26955068791E+02  0.26955068791E+02  0.00000000000E+00 0.  1.
         25    2    1    2    0    0  0.70546520087E+01  0.71161799731E+02  0.25862976191E+03  0.29605958483E+03  0.12509258239E+03 0.  0.
         23    2    1    2    0    0 -0.70546520087E+01 -0.71161799731E+02  0.63808833143E+03  0.65456864608E+03  0.12723845283E+03 0.  0.
          5    1    3    3  502    0  0.56967929261E+02  0.67307392267E+02  0.20146785504E+03  0.21995999416E+03  0.41800000000E+01 0.  1.
         -5    1    3    3    0  502 -0.49913277252E+02  0.38544074638E+01  0.57161906870E+02  0.76099590669E+02  0.41800000000E+01 0.  1.
        -11    1    4    4    0    0 -0.32490492252E+02  0.28357366583E+02  0.17710413066E+03  0.18227903177E+03  0.00000000000E+00 0.  1.
         11    1    4    4    0    0  0.25435840243E+02 -0.99519166314E+02  0.46098420076E+03  0.47228961431E+03  0.00000000000E+00 0. -1.
</event>
<event>
 8    1  0.3896452E-010  0.1032724E+03  0.7561462E-02  0.1273561E+00
         -1   -1    0    0    0  501 -0.00000000000E+00  0.00000000000E+00  0.38293296900E+02  0.38293296900E+02  0.00000000000E+00 0.  1.
          1   -1    0    0  501    0  0.00000000000E+00 -0.00000000000E+00 -0.30667876899E+03  0.30667876899E+03  0.00000000000E+00 0. -1.
         25    2    1    2    0    0  0.26249638460E+02  0.14184585356E+02 -0.12508698002E+03  0.17939780331E+03  0.12508626336E+03 0.  0.
         23    2    1    2    0    0 -0.26249638460E+02 -0.14184585356E+02 -0.14329849207E+03  0.16557426258E+03  0.77395947042E+02 0.  0.
          5    1    3    3  502    0  0.51692714172E+02  0.56149879826E+02 -0.93998975188E+02  0.12115372648E+03  0.41800000000E+01 0. -1.
         -5    1    3    3    0  502 -0.25443075712E+02 -0.41965294470E+02 -0.31088004834E+02  0.58244076834E+02  0.41800000000E+01 0. -1.
        -11    1    4    4    0    0 -0.52388699662E+02 -0.31517469198E+01 -0.10963108386E+03  0.12154622129E+03  0.00000000000E+00 0.  1.
         11    1    4    4    0    0  0.26139061202E+02 -0.11032838437E+02 -0.33667408208E+02  0.44028041291E+02  0.00000000000E+00 0. -1.
</event>
<event>
 8    1  0.3896452E-010  0.1045091E+03  0.7561462E-02  0.1271090E+00
          2   -1    0    0  501    0  0.00000000000E+00  0.00000000000E+00  0.52717402789E+03  0.52717402789E+03  0.00000000000E+00 0. -1.
         -2   -1    0    0    0  501 -0.00000000000E+00 -0.00000000000E+00 -0.32180783167E+02  0.32180783167E+02  0.00000000000E+00 0.  1.
         25    2    1    2    0    0 -0.19793065347E+02  0.30108539595E+02  0.43646523712E+03  0.45546474472E+03  0.12509172983E+03 0.  0.
         23    2    1    2    0    0  0.19793065347E+02 -0.30108539595E+02  0.58528007596E+02  0.10389006634E+03  0.77905895912E+02 0.  0.
          5    1    3    3  502    0  0.43704748693E+02 -0.20877552545E+02  0.16698191988E+03  0.17391495400E+03  0.41800000000E+01 0.  1.
         -5    1    3    3    0  502 -0.63497814040E+02  0.50986092141E+02  0.26948331725E+03  0.28154979072E+03  0.41800000000E+01 0.  1.
        -11    1    4    4    0    0 -0.26009822637E+02 -0.17519401446E+02  0.44351103598E+02  0.54318143295E+02  0.00000000000E+00 0. -1.
         11    1    4    4    0    0  0.45802887984E+02 -0.12589138149E+02  0.14176903997E+02  0.49571923041E+02  0.00000000000E+00 0.  1.
</event>
<event>
 8    1  0.3896452E-010  0.1693567E+03  0.7561462E-02  0.1178520E+00
          2   -1    0    0  501    0  0.00000000000E+00  0.00000000000E+00  0.50963469024E+02  0.50963469024E+02  0.00000000000E+00 0. -1.
         -2   -1    0    0    0  501 -0.00000000000E+00 -0.00000000000E+00 -0.61276381148E+03  0.61276381148E+03  0.00000000000E+00 0.  1.
         25    2    1    2    0    0 -0.80398342373E+02 -0.11241261846E+03 -0.39814302635E+03  0.43962104332E+03  0.12509317347E+03 0.  0.
         23    2    1    2    0    0  0.80398342373E+02  0.11241261846E+03 -0.16365731611E+03  0.22410623719E+03  0.65874108611E+02 0.  0.
          5    1    3    3  502    0 -0.52569838962E+02  0.15701592506E+02 -0.12755595573E+03  0.13891768145E+03  0.41800000000E+01 0.  1.
         -5    1    3    3    0  502 -0.27828503411E+02 -0.12811421097E+03 -0.27058707062E+03  0.30070336187E+03  0.41800000000E+01 0.  1.
        -11    1    4    4    0    0  0.91735358082E+02  0.99339590628E+02 -0.13839937351E+03  0.19348931954E+03  0.00000000000E+00 0.  1.
         11    1    4    4    0    0 -0.11337015709E+02  0.13073027836E+02 -0.25257942598E+02  0.30616917648E+02  0.00000000000E+00 0. -1.
</event>
<event>
 7    1  0.3896452E-010  0.1710617E+03  0.7561462E-02  0.1176745E+00
          2   -1    0    0  501    0  0.00000000000E+00  0.00000000000E+00  0.11382917614E+03  0.11382917614E+03  0.00000000000E+00 0.  1.
         -2   -1    0    0    0  501 -0.00000000000E+00 -0.00000000000E+00 -0.30307531036E+03  0.30307531036E+03  0.00000000000E+00 0. -1.
         25    2    1    2    0    0  0.94855330574E+02  0.67697801483E+02 -0.62632194947E+02  0.18207220696E+03  0.12508785169E+03 0.  0.
          5    1    3    3  502    0 -0.18805390045E+02 -0.59290220160E+00  0.18376465583E+02  0.26630079141E+02  0.41800000000E+01 0.  1.
         -5    1    3    3    0  502  0.11366072062E+03  0.68290703684E+02 -0.81008660530E+02  0.15544212782E+03  0.41800000000E+01 0.  1.
        -11    1    1    2    0    0 -0.83327080171E+02  0.32415848826E+02 -0.27646119290E+02  0.93586844464E+02  0.00000000000E+00 0.  1.
         11    1    1    2    0    0 -0.11528250403E+02 -0.10011365031E+03 -0.98967819988E+02  0.14124543507E+03  0.00000000000E+00 0. -1.
</event>
<event>
 7    1  0.3896452E-010  0.2222219E+03  0.7561462E-02  0.1132237E+00
          1   -1    0    0  501    0  0.00000000000E+00  0.00000000000E+00  0.78660823579E+03  0.78660823579E+03  0.00000000000E+00 0. -1.
         -1   -1    0    0    0  501 -0.00000000000E+00 -0.00000000000E+00 -0.20462798548E+03  0.20462798548E+03  0.00000000000E+00 0.  1.
         25    2    1    2    0    0 -0.90778334293E+02  0.19436764233E+03  0.63680973029E+03  0.68351570646E+03  0.12509037541E+03 0.  0.
          5    1    3    3  502    0  0.10915558129E+02  0.59682744251E+02  0.30749800062E+03  0.31345441799E+03  0.41800000000E+01 0.  1.
         -5    1    3    3    0  502 -0.10169389242E+03  0.13468489808E+03  0.32931172967E+03  0.37006128847E+03  0.41800000000E+01 0.  1.
        -11    1    1    2    0    0  0.24555048722E+02 -0.64879589660E+02  0.82431750491E+02  0.10773720370E+03  0.00000000000E+00 0. -1.
         11    1    1    2    0    0  0.66223285571E+02 -0.12948805267E+03 -0.13726123046E+03  0.19998331112E+03  0.00000000000E+00 0.  1.
</event>
<event>
 7    1  0.3896452E-010  0.1006451E+03  0.7561462E-02  0.1278945E+00
          1   -1    0    0  501    0  0.00000000000E+00  0.00000000000E+00  0.13718690849E+04  0.13718690849E+04  0.00000000000E+00 0. -1.
         -1   -1    0    0    0  501 -0.00000000000E+00 -0.00000000000E+00 -0.10593363528E+02  0.10593363528E+02  0.00000000000E+00 0.  1.
         25    2    1    2    0    0 -0.77962764834E+02 -0.76356516369E+01  0.99082528725E+03  0.10017578652E+04  0.12509026616E+03 0.  0.
          5    1    3    3  502    0 -0.19381615344E+02 -0.46043809394E+02  0.72805071443E+03  0.72977461903E+03  0.41800000000E+01 0.  1.
         -5    1    3    3    0  502 -0.58581149491E+02  0.38408157757E+02  0.26277457282E+03  0.27198324613E+03  0.41800000000E+01 0.  1.
        -11    1    1    2    0    0  0.57821109944E+02  0.14664552104E+02  0.32584679815E+03  0.33126192916E+03  0.00000000000E+00 0.  1.
         11    1    1    2    0    0  0.20141654891E+02 -0.70289004673E+01  0.44603636000E+02  0.49442654135E+02  0.00000000000E+00 0. -1.
</event>
<event>
 8    1  0.3896452E-010  0.1581282E+03  0.7561462E-02  0.1190826E+00
         -2   -1    0    0    0  501 -0.00000000000E+00  0.00000000000E+00  0.28963892163E+02  0.28963892163E+02  0.00000000000E+00 0.  1.
          2   -1    0    0  501    0  0.00000000000E+00 -0.00000000000E+00 -0.90068352117E+03  0.90068352117E+03  0.00000000000E+00 0. -1.
         25    2    1    2    0    0  0.10351831770E+03  0.72098643594E+02 -0.52226919217E+03  0.55165889612E+03  0.12509265396E+03 0.  0.
         23    2    1    2    0    0 -0.10351831770E+03 -0.72098643594E+02 -0.34945043684E+03  0.37798851721E+03  0.69609301321E+02 0.  0.
          5    1    3    3  502    0  0.89293698660E+02 -0.13827869421E+02 -0.26842530283E+03  0.28325640362E+03  0.41800000000E+01 0. -1.
         -5    1    3    3    0  502  0.14224619037E+02  0.85926513015E+02 -0.25384388934E+03  0.26840249250E+03  0.41800000000E+01 0. -1.
        -11    1    4    4    0    0 -0.16752130203E+02 -0.44511016730E+02 -0.74788071928E+02  0.88629115867E+02  0.00000000000E+00 0.  1.
         11    1    4    4    0    0 -0.86766187494E+02 -0.27587626864E+02 -0.27466236491E+03  0.28935940135E+03  0.00000000000E+00 0. -1.
</event>
<event>
 7    1  0.3896452E-010  0.1307584E+03  0.7561462E-02  0.1226335E+00
         -2   -1    0    0    0  501 -0.00000000000E+00  0.00000000000E+00  0.51830774214E+02  0.51830774214E+02  0.00000000000E+00 0.  1.
          2   -1    0    0  501    0  0.00000000000E+00 -0.00000000000E+00 -0.52112348219E+03  0.52112348219E+03  0.00000000000E+00 0. -1.
         25    2    1    2    0    0 -0.41706541693E+02 -0.12131118473E+03 -0.35982639064E+03  0.40196851479E+03  0.12509123199E+03 0.  0.
          5    1    3    3  502    0 -0.75285820268E+01 -0.74908297928E+02 -0.59269630524E+02  0.95907737687E+02  0.41800000000E+01 0.  1.
         -5    1    3    3    0  502 -0.34177959666E+02 -0.46402886806E+02 -0.30055676011E+03  0.30606077710E+03  0.41800000000E+01 0.  1.
        -11    1    1    2    0    0  0.26004255247E+02  0.80957164131E+02 -0.89002484024E+02  0.12309234695E+03  0.00000000000E+00 0.  1.
         11    1    1    2    0    0  0.15702286446E+02  0.40354020602E+02 -0.20463833311E+02  0.47893394662E+02  0.00000000000E+00 0. -1.
</event>
<event>
 7    1  0.3896452E-010  0.1099160E+03  0.7561462E-02  0.1260725E+00
          2   -1    0    0  501    0  0.00000000000E+00  0.00000000000E+00  0.42818985101E+03  0.42818985101E+03  0.00000000000E+00 0. -1.
         -2   -1    0    0    0  501 -0.00000000000E+00 -0.00000000000E+00 -0.46675716721E+02  0.46675716721E+02  0.00000000000E+00 0.  1.
         25    2    1    2    0    0 -0.47699783720E+02  0.77408879332E+02  0.12794596154E+03  0.20070922559E+03  0.12508645088E+03 0.  0.
          5    1    3    3  502    0 -0.35571227785E+01  0.70787210213E+02  0.13761093405E+03  0.15484742110E+03  0.41800000000E+01 0. -1.
         -5    1    3    3    0  502 -0.44142660942E+02  0.66216691192E+01 -0.96649725047E+01  0.45861804483E+02  0.41800000000E+01 0. -1.
        -11    1    1    2    0    0  0.78316402351E+01 -0.59980162907E+02  0.13832740994E+03  0.15097492133E+03  0.00000000000E+00 0. -1.
         11    1    1    2    0    0  0.39868143485E+02 -0.17428716425E+02  0.11524076280E+03  0.12318142081E+03  0.00000000000E+00 0.  1.
</event>
<event>
 8    1  0.3896452E-010  0.1186792E+03  0.7561462E-02  0.1245292E+00
         -1   -1    0    0    0  501 -0.00000000000E+00  0.00000000000E+00  0.68267037535E+03  0.68267037535E+03  0.00000000000E+00 0. -1.
          1   -1    0    0  501    0  0.00000000000E+00 -0.00000000000E+00 -0.25218968247E+02  0.25218968247E+02  0.00000000000E+00 0.  1.
         25    2    1    2    0    0 -0.14185284595E+02  0.58633401474E+02  0.35820894340E+03  0.38418792849E+03  0.12509044407E+03 0.  0.
         23    2    1    2    0    0  0.14185284595E+02 -0.58633401474E+02  0.29924246371E+03  0.32370141511E+03  0.10769148524E+03 0.  0.
          5    1    3    3  502    0 -0.17649791963E+02  0.85051652862E+02  0.34164009249E+03  0.35253471320E+03  0.41800000000E+01 0. -1.
         -5    1    3    3    0  502  0.34645073678E+01 -0.26418251388E+02  0.16568850903E+02  0.31653215286E+02  0.41800000000E+01 0. -1.
        -11    1    4    4    0    0  0.35616847620E+02  0.20734990154E+02  0.97754265521E+02  0.10608673847E+03  0.00000000000E+00 0.  1.
         11    1    4    4    0    0 -0.21431563024E+02 -0.79368391628E+02  0.20148819819E+03  0.21761467665E+03  0.00000000000E+00 0. -1.
</event>
<event>
 7    1  0.3896452E-010  0.1709251E+03  0.7561462E-02  0.1176887E+00
          2   -1    0    0  501    0  0.00000000000E+00  0.00000000000E+00  0.39741159856E+03  0.39741159856E+03  0.00000000000E+00 0. -1.
         -2   -1    0    0    0  501 -0.00000000000E+00 -0.00000000000E+00 -0.12115762446E+03  0.12115762446E+03  0.00000000000E+00 0.  1.
         25    2    1    2    0    0  0.86685855734E+02  0.49634984014E+02 -0.10759696684E+02  0.16044003765E+03  0.12508863012E+03 0.  0.
          5    1    3    3  502    0  0.78074451230E+02 -0.11455986358E+02  0.32005185165E+02  0.85256459203E+02  0.41800000000E+01 0.  1.
         -5    1    3    3    0  502  0.86114045039E+01  0.61090970372E+02 -0.42764881849E+02  0.75183578447E+02  0.41800000000E+01 0.  1.
        -11    1    1    2    0    0 -0.12628833680E+03 -0.81379526787E+02  0.15123619855E+03  0.21317541871E+03  0.00000000000E+00 0.  1.
         11    1    1    2    0    0  0.39602481069E+02  0.31744542773E+02  0.13577747223E+03  0.14495376666E+03  0.00000000000E+00 0. -1.
</event>
<event>
 8    1  0.3896452E-010  0.9384614E+02  0.7561462E-02  0.1293796E+00
         -1   -1    0    0    0  501 -0.00000000000E+00  0.00000000000E+00  0.12585259419E+03  0.12585259419E+03  0.00000000000E+00 0. -1.
          1   -1    0    0  501    0  0.00000000000E+00 -0.00000000000E+00 -0.17804096594E+03  0.17804096594E+03  0.00000000000E+00 0.  1.
         25    2    1    2    0    0 -0.26606785072E+02 -0.69436752780E+02 -0.81317845779E+02  0.16670169986E+03  0.12508989186E+03 0.  0.
         23    2    1    2    0    0  0.26606785072E+02  0.69436752780E+02  0.29129474029E+02  0.13719186027E+03  0.11155131832E+03 0.  0.
          5    1    3    3  502    0  0.57024965399E+01  0.83135975886E+01  0.27188313860E+02  0.29296948342E+02  0.41800000000E+01 0. -1.
         -5    1    3    3    0  502 -0.32309281612E+02 -0.77750350369E+02 -0.10850615964E+03  0.13740475152E+03  0.41800000000E+01 0. -1.
        -11    1    4    4    0    0  0.36462891333E+02  0.73319152954E+02  0.61965960156E+02  0.10268895195E+03  0.00000000000E+00 0. -1.
         11    1    4    4    0    0 -0.98561062615E+01 -0.38824001735E+01 -0.32836486127E+02  0.34502908326E+02  0.00000000000E+00 0.  1.
</event>
<event>
 8    1  0.3896452E-010  0.1092276E+03  0.7561462E-02  0.1262007E+00
          2   -1    0    0  501    0  0.00000000000E+00  0.00000000000E+00  0.73938520421E+03  0.73938520421E+03  0.00000000000E+00 0. -1.
         -2   -1    0    0    0  501 -0.00000000000E+00 -0.00000000000E+00 -0.19136724003E+02  0.19136724003E+02  0.00000000000E+00 0.  1.
         25    2    1    2    0    0  0.60540712257E+02  0.11235209320E+02  0.30787596108E+03  0.33797504685E+03  0.12509243427E+03 0.  0.
         23    2    1    2    0    0 -0.60540712257E+02 -0.11235209320E+02  0.41237251913E+03  0.42054688137E+03  0.54928836913E+02 0.  0.
          5    1    3    3  502    0  0.31672962749E+02  0.66496975221E+02  0.20179987577E+03  0.21486201746E+03  0.41800000000E+01 0. -1.
         -5    1    3    3    0  502  0.28867749508E+02 -0.55261765902E+02  0.10607608530E+03  0.12311302939E+03  0.41800000000E+01 0. -1.
        -11    1    4    4    0    0 -0.14755755053E+02 -0.29433682999E+02  0.18363148726E+03  0.18655990222E+03  0.00000000000E+00 0. -1.
         11    1    4    4    0    0 -0.45784957204E+02  0.18198473679E+02  0.22874103187E+03  0.23398697915E+03  0.00000000000E+00 0.  1.
</event>
<event>
 8    1  0.3896452E-010  0.1102643E+03  0.7561462E-02  0.1260081E+00
          1   -1    0    0  501    0  0.00000000000E+00  0.00000000000E+00  0.35160117828E+03  0.35160117828E+03  0.00000000000E+00 0. -1.
         -1   -1    0    0    0  501 -0.00000000000E+00 -0.00000000000E+00 -0.57413801951E+02  0.57413801951E+02  0.00000000000E+00 0.  1.
         25    2    1    2    0    0  0.62365994572E+01  0.98646793472E+02  0.14568439104E+03  0.21597265815E+03  0.12510060847E+03 0.  0.
         23    2    1    2    0    0 -0.62365994572E+01 -0.98646793472E+02  0.14850298529E+03  0.19304232208E+03  0.73770701765E+02 0.  0.
          5    1    3    3  502    0 -0.29501724609E+02  0.24904105268E+02  0.12564328421E+03  0.13150769362E+03  0.41800000000E+01 0.  1.
         -5    1    3    3    0  502  0.35738324066E+02  0.73742688205E+02  0.20041106835E+02  0.84464964535E+02  0.41800000000E+01 0.  1.
        -11    1    4    4    0    0  0.39049061594E+01 -0.28265331383E+02  0.15705808826E+00  0.28534223619E+02  0.00000000000E+00 0.  1.
         11    1    4    4    0    0 -0.10141505617E+02 -0.70381462089E+02  0.14834592720E+03  0.16450809846E+03  0.00000000000E+00 0. -1.
</event>
<event>
 7    1  0.3896452E-010  0.1380320E+03  0.7561462E-02  0.1216002E+00
         -1   -1    0    0    0  501 -0.00000000000E+00  0.00000000000E+00  0.90273028041E+02  0.90273028041E+02  0.00000000000E+00 0.  1.
          1   -1    0    0  501    0  0.00000000000E+00 -0.00000000000E+00 -0.41136214144E+03  0.41136214144E+03  0.00000000000E+00 0. -1.
         25    2    1    2    0    0 -0.80321728391E+02 -0.48521502109E+02 -0.18075706140E+02  0.15741911204E+03  0.12509248364E+03 0.  0.
          5    1    3    3  502    0  0.29430102243E+02  0.10625619415E+02 -0.54825688844E+01  0.32040063476E+02  0.41800000000E+01 0. -1.
         -5    1    3    3    0  502 -0.10975183063E+03 -0.59147121525E+02 -0.12593137256E+02  0.12537904856E+03  0.41800000000E+01 0. -1.
        -11    1    1    2    0    0  0.47493197333E+02  0.66964896231E+02 -0.29434088075E+03  0.30557561290E+03  0.00000000000E+00 0. -1.
         11    1    1    2    0    0  0.32828531057E+02 -0.18443394121E+02 -0.86725265037E+01  0.38640444537E+02  0.00000000000E+00 0.  1.
</event>
<event>
 8    1  0.3896452E-010  0.2448081E+03  0.7561462E-02  0.1116631E+00
         -2   -1    0    0    0  501 -0.00000000000E+00  0.00000000000E+00  0.68036134318E+02  0.68036134318E+02  0.00000000000E+00 0.  1.
          2   -1    0    0  501    0  0.00000000000E+00 -0.00000000000E+00 -0.94658925460E+03  0.94658925460E+03  0.00000000000E+00 0. -1.
         25    2    1    2    0    0 -0.61748645674E+02 -0.22369011767E+03 -0.42910195190E+03  0.50361247143E+03  0.12508745849E+03 0.  0.
         23    2    1    2    0    0  0.61748645674E+02  0.22369011767E+03 -0.44945116838E+03  0.51101291748E+03  0.72647677806E+02 0.  0.
          5    1    3    3  502    0  0.24334871288E+02 -0.13754363706E+02 -0.16524571411E+02  0.32739919699E+02  0.41800000000E+01 0. -1.
         -5    1    3    3    0  502 -0.86083516963E+02 -0.20993575396E+03 -0.41257738049E+03  0.47087255173E+03  0.41800000000E+01 0. -1.
        -11    1    4    4    0    0  0.65615999118E+01  0.83433982895E+02 -0.23028998883E+03  0.24502604565E+03  0.00000000000E+00 0.  1.
         11    1    4    4    0    0  0.55187045763E+02  0.14025613478E+03 -0.21916117955E+03  0.26598687183E+03  0.00000000000E+00 0. -1.
</event>
<event>
 7    1  0.3896452E-010  0.1296761E+03  0.7561462E-02  0.1227937E+00
         -1   -1    0    0    0  501 -0.00000000000E+00  0.00000000000E+00  0.40564186272E+02  0.40564186272E+02  0.00000000000E+00 0.  1.
          1   -1    0    0  501    0  0.00000000000E+00 -0.00000000000E+00 -0.55839674023E+03  0.55839674023E+03  0.00000000000E+00 0. -1.
         25    2    1    2    0    0 -0.41132503549E+02  0.24829033058E+02 -0.13104437795E+03  0.18742797360E+03  0.12509297569E+03 0.  0.
          5    1    3    3  502    0  0.14795205240E+02  0.61549618616E+02 -0.85159055213E+02  0.10619223481E+03  0.41800000000E+01 0.  1.
         -5    1    3    3    0  502 -0.55927708789E+02 -0.36720585558E+02 -0.45885322735E+02  0.81235738789E+02  0.41800000000E+01 0.  1.
        -11    1    1    2    0    0  0.18632675978E+02  0.48614576734E+02 -0.24299060845E+03  0.24850551197E+03  0.00000000000E+00 0. -1.
         11    1    1    2    0    0  0.22499827570E+02 -0.73443609792E+02 -0.14379756756E+03  0.16302744093E+03  0.00000000000E+00 0.  1.
</event>
<event>
 8    1  0.3896452E-010  0.2250317E+03  0.7561462E-02  0.1130186E+00
         -1   -1    0    0    0  501 -0.00000000000E+00  0.00000000000E+00  0.13271775917E+03  0.13271775917E+03  0.00000000000E+00 0.  1.
          1   -1    0    0  501    0  0.00000000000E+00 -0.00000000000E+00 -0.40350134986E+03  0.40350134986E+03  0.00000000000E+00 0. -1.
         25    2    1    2    0    0  0.34927390785E+01 -0.20930972505E+03 -0.14443936946E+03  0.28342982520E+03  0.12508786566E+03 0.  0.
         23    2    1    2    0    0 -0.34927390785E+01  0.20930972505E+03 -0.12634422123E+03  0.25278928383E+03  0.64162290751E+02 0.  0.
          5    1    3    3  502    0  0.46388733203E+02 -0.17454235910E+03 -0.13870875180E+03  0.22775982946E+03  0.41800000000E+01 0.  1.
         -5    1    3    3    0  502 -0.42895994125E+02 -0.34767365944E+02 -0.57306176619E+01  0.55669995738E+02  0.41800000000E+01 0.  1.
        -11    1    4    4    0    0  0.71428820672E+01  0.19931910939E+03 -0.10104311688E+03  0.22358184095E+03  0.00000000000E+00 0.  1.
         11    1    4    4    0    0 -0.10635621146E+02  0.99906156559E+01 -0.25301104347E+02  0.29207442879E+02  0.00000000000E+00 0. -1.
</event>
<event>
 8    1  0.3896452E-010  0.1479538E+03  0.7561462E-02  0.1203010E+00
         -1   -1    0    0    0  501 -0.00000000000E+00  0.00000000000E+00  0.58489154915E+02  0.58489154915E+02  0.00000000000E+00 0.  1.
          1   -1    0    0  501    0  0.00000000000E+00 -0.00000000000E+00 -0.39858407625E+03  0.39858407625E+03  0.00000000000E+00 0. -1.
         25    2    1    2    0    0 -0.89517445504E+02  0.76415461100E+02 -0.17334191878E+03  0.24402410956E+03  0.12509056518E+03 0.  0.
         23    2    1    2    0    0  0.89517445504E+02 -0.76415461100E+02 -0.16675300256E+03  0.21304912160E+03  0.61079199485E+02 0.  0.
          5    1    3    3  502    0 -0.46433890394E+01  0.79226614843E+02 -0.11907023861E+03  0.14315589993E+03  0.41800000000E+01 0. -1.
         -5    1    3    3    0  502 -0.84874056465E+02 -0.28111537429E+01 -0.54271680165E+02  0.10086820963E+03  0.41800000000E+01 0. -1.
        -11    1    4    4    0    0  0.58824379662E+02 -0.11969363061E+02 -0.90493800122E+02  0.10859420406E+03  0.00000000000E+00 0.  1.
         11    1    4    4    0    0  0.30693065842E+02 -0.64446098039E+02 -0.76259202434E+02  0.10445491754E+03  0.00000000000E+00 0. -1.
</event>
<event>
 8    1  0.3896452E-010  0.1529223E+03  0.7561462E-02  0.1196927E+00
         -2   -1    0    0    0  501 -0.00000000000E+00  0.00000000000E+00  0.18036567390E+02  0.18036567390E+02  0.00000000000E+00 0.  1.
          2   -1    0    0  501    0  0.00000000000E+00 -0.00000000000E+00 -0.13699998652E+04  0.13699998652E+04  0.00000000000E+00 0. -1.
         25    2    1    2    0    0 -0.20222897902E+02 -0.11822663831E+03 -0.88078935244E+03  0.89767596846E+03  0.12508300196E+03 0.  0.
         23    2    1    2    0    0  0.20222897902E+02  0.11822663831E+03 -0.47117394535E+03  0.49036046411E+03  0.63733777374E+02 0.  0.
          5    1    3    3  502    0 -0.61614083471E+01  0.25011808177E+02 -0.83294859298E+02  0.87287224074E+02  0.41800000000E+01 0.  1.
         -5    1    3    3    0  502 -0.14061489555E+02 -0.14323844648E+03 -0.79749449314E+03  0.81038874439E+03  0.41800000000E+01 0.  1.
        -11    1    4    4    0    0  0.38785202147E+02  0.41426999755E+02 -0.20446693709E+03  0.21219617474E+03  0.00000000000E+00 0. -1.
         11    1    4    4    0    0 -0.18562304245E+02  0.76799638553E+02 -0.26670700827E+03  0.27816428937E+03  0.00000000000E+00 0.  1.
</event>
<event>
 7    1  0.3896452E-010  0.5457616E+02  0.7561462E-02  0.1422114E+00
          1   -1    0    0  501    0  0.00000000000E+00  0.00000000000E+00  0.11143755511E+03  0.11143755511E+03  0.00000000000E+00 0. -1.
         -1   -1    0    0    0  501 -0.00000000000E+00 -0.00000000000E+00 -0.70557390320E+02  0.70557390320E+02  0.00000000000E+00 0.  1.
         25    2    1    2    0    0  0.28459778321E+01 -0.25489509138E+02  0.87725919504E+01  0.12799307926E+03  0.12508978896E+03 0.  0.
          5    1    3    3  502    0  0.29810973758E+02 -0.12463535971E+01 -0.50253432135E+02  0.58592895431E+02  0.41800000000E+01 0.  1.
         -5    1    3    3    0  502 -0.26964995926E+02 -0.24243155540E+02  0.59026024085E+02  0.69400183826E+02  0.41800000000E+01 0.  1.
        -11    1    1    2    0    0  0.10602307196E+02 -0.30003191844E+01  0.13450258386E+02  0.17387359884E+02  0.00000000000E+00 0. -1.
         11    1    1    2    0    0 -0.13448285028E+02  0.28489828322E+02  0.18657314449E+02  0.36614506285E+02  0.00000000000E+00 0.  1.
</event>
<event>
 8    1  0.3896452E-010  0.1239494E+03  0.7561462E-02  0.1236720E+00
         -2   -1    0    0    0  501 -0.00000000000E+00  0.00000000000E+00  0.41559267083E+02  0.41559267083E+02  0.00000000000E+00 0.  1.
          2   -1    0    0  501    0  0.00000000000E+00 -0.00000000000E+00 -0.52406362963E+03  0.52406362963E+03  0.00000000000E+00 0. -1.
         25    2    1    2    0    0  0.36694486583E+02 -0.90428098750E+02 -0.17604174448E+03  0.23698488098E+03  0.12508961437E+03 0.  0.
         23    2    1    2    0    0 -0.36694486583E+02  0.90428098750E+02 -0.30646261806E+03  0.32863801573E+03  0.67526903712E+02 0.  0.
          5    1    3    3  502    0 -0.29329322748E+02  0.78527189501E+01 -0.85330278154E+01  0.31814451614E+02  0.41800000000E+01 0. -1.
         -5    1    3    3    0  502  0.66023809332E+02 -0.98280817701E+02 -0.16750871666E+03  0.20517042936E+03  0.41800000000E+01 0. -1.
        -11    1    4    4    0    0 -0.16176305952E+02  0.59518464384E+02 -0.26874693093E+03  0.27573362755E+03  0.00000000000E+00 0. -1.
         11    1    4    4    0    0 -0.20518180632E+02  0.30909634367E+02 -0.37715687132E+02  0.52904388183E+02  0.00000000000E+00 0.  1.
</event>
<event>
 8    1  0.3896452E-010  0.1332732E+03  0.7561462E-02  0.1222678E+00
          2   -1    0    0  501    0  0.00000000000E+00  0.00000000000E+00  0.33898156959E+03  0.33898156959E+03  0.00000000000E+00 0. -1.
         -2   -1    0    0    0  501 -0.00000000000E+00 -0.00000000000E+00 -0.77251283546E+02  0.77251283546E+02  0.00000000000E+00 0.  1.
         25    2    1    2    0    0 -0.74702746475E+02 -0.88327892737E+01  0.29640889765E+02  0.14894475506E+03  0.12508972466E+03 0.  0.
         23    2    1    2    0    0  0.74702746475E+02  0.88327892737E+01  0.23208939628E+03  0.26728809808E+03  0.10917381102E+03 0.  0.
          5    1    3    3  502    0 -0.32276530830E+02 -0.61550309132E+02 -0.10105505612E+02  0.70354876450E+02  0.41800000000E+01 0.  1.
         -5    1    3    3    0  502 -0.42426215645E+02  0.52717519858E+02  0.39746395377E+02  0.78589878607E+02  0.41800000000E+01 0.  1.
        -11    1    4    4    0    0  0.89671714299E+02  0.37173754827E+02  0.19789533088E+03  0.22042111146E+03  0.00000000000E+00 0. -1.
         11    1    4    4    0    0 -0.14968967824E+02 -0.28340965553E+02  0.34194065396E+02  0.46866986617E+02  0.00000000000E+00 0.  1.
</event>
<event>
 8    1  0.3896452E-010  0.2013975E+03  0.7561462E-02  0.1148565E+00
         -1   -1    0    0    0  501 -0.00000000000E+00  0.00000000000E+00  0.31279033355E+03  0.31279033355E+03  0.00000000000E+00 0.  1.
          1   -1    0    0  501    0  0.00000000000E+00 -0.00000000000E+00 -0.18105839006E+03  0.18105839006E+03  0.00000000000E+00 0. -1.
         25    2    1    2    0    0  0.16791575431E+03  0.11067886030E+03  0.13925663412E+02  0.23724792145E+03  0.12508853451E+03 0.  0.
         23    2    1    2    0    0 -0.16791575431E+03 -0.11067886030E+03  0.11780628008E+03  0.25660080217E+03  0.10733192156E+03 0.  0.
          5    1    3    3  502    0  0.24081340413E+02  0.16624453758E+02  0.53246567699E+02  0.60901172325E+02  0.41800000000E+01 0. -1.
         -5    1    3    3    0  502  0.14383441390E+03  0.94054406539E+02 -0.39320904287E+02  0.17634674912E+03  0.41800000000E+01 0. -1.
        -11    1    4    4    0    0 -0.13233765344E+03 -0.91713735469E+02  0.35394763794E+02  0.16485585551E+03  0.00000000000E+00 0. -1.
         11    1    4    4    0    0 -0.35578100877E+02 -0.18965124828E+02  0.82411516285E+02  0.91744946663E+02  0.00000000000E+00 0.  1.
</event>
<event>
 8    1  0.3896452E-010  0.1413786E+03  0.7561462E-02  0.1211486E+00
         -1   -1    0    0    0  501 -0.00000000000E+00  0.00000000000E+00  0.23455178676E+02  0.23455178676E+02  0.00000000000E+00 0.  1.
          1   -1    0    0  501    0  0.00000000000E+00 -0.00000000000E+00 -0.98123764289E+03  0.98123764289E+03  0.00000000000E+00 0. -1.
         25    2    1    2    0    0 -0.27267012944E+02 -0.61606371480E+02 -0.30748584444E+03  0.33872370548E+03  0.12508944449E+03 0.  0.
         23    2    1    2    0    0  0.27267012944E+02  0.61606371480E+02 -0.65029661978E+03  0.66596911609E+03  0.12684768380E+03 0.  0.
          5    1    3    3  502    0  0.48843634904E+02 -0.14408031056E+02 -0.13464034192E+03  0.14400967364E+03  0.41800000000E+01 0.  1.
         -5    1    3    3    0  502 -0.76110647848E+02 -0.47198340424E+02 -0.17284550252E+03  0.19471403184E+03  0.41800000000E+01 0.  1.
        -11    1    4    4    0    0  0.64721324434E+02  0.77800293217E+02 -0.41505662191E+03  0.42721626239E+03  0.00000000000E+00 0. -1.
         11    1    4    4    0    0 -0.37454311490E+02 -0.16193921737E+02 -0.23523999787E+03  0.23875285370E+03  0.00000000000E+00 0.  1.
</event>
<event>
 7    1  0.3896452E-010  0.1054627E+03  0.7561462E-02  0.1269211E+00
          1   -1    0    0  501    0  0.00000000000E+00  0.00000000000E+00  0.37441948172E+03  0.37441948172E+03  0.00000000000E+00 0. -1.
         -1   -1    0    0    0  501 -0.00000000000E+00 -0.00000000000E+00 -0.67102166517E+02  0.67102166517E+02  0.00000000000E+00 0.  1.
         25    2    1    2    0    0 -0.29366317405E+02 -0.46282226378E+02  0.20522621587E+03  0.24651594184E+03  0.12509150579E+03 0.  0.
          5    1    3    3  502    0 -0.65283906303E+02 -0.18208585263E+01  0.54170479300E+02  0.84954206344E+02  0.41800000000E+01 0. -1.
         -5    1    3    3    0  502  0.35917588898E+02 -0.44461367852E+02  0.15105573657E+03  0.16156173549E+03  0.41800000000E+01 0. -1.
        -11    1    1    2    0    0 -0.10470560221E+02  0.47178329989E+02  0.13496012917E+03  0.14335153964E+03  0.00000000000E+00 0. -1.
         11    1    1    2    0    0  0.39836877627E+02 -0.89610361099E+00 -0.32869029842E+02  0.51654166758E+02  0.00000000000E+00 0.  1.
</event>
<event>
 8    1  0.3896452E-010  0.1155652E+03  0.7561462E-02  0.1250598E+00
         -2   -1    0    0    0  501 -0.00000000000E+00  0.00000000000E+00  0.25366750896E+02  0.25366750896E+02  0.00000000000E+00 0.  1.
          2   -1    0    0  501    0  0.00000000000E+00 -0.00000000000E+00 -0.13348716232E+04  0.13348716232E+04  0.00000000000E+00 0. -1.
         25    2    1    2    0    0 -0.88791720020E+02  0.53496225441E+02 -0.11150971332E+04  0.11268695520E+04  0.12509018794E+03 0.  0.
         23    2    1    2    0    0  0.88791720020E+02 -0.53496225441E+02 -0.19440773907E+03  0.23336882204E+03  0.76946880445E+02 0.  0.
          5    1    3    3  502    0 -0.54398155124E+02 -0.50163839331E+01 -0.15556910188E+03  0.16493496066E+03  0.41800000000E+01 0. -1.
         -5    1    3    3    0  502 -0.34393564895E+02  0.58512609374E+02 -0.95952803134E+03  0.96193459138E+03  0.41800000000E+01 0. -1.
        -11    1    4    4    0    0  0.67760104996E+02 -0.54976249668E+02 -0.84532191825E+02  0.12148872915E+03  0.00000000000E+00 0.  1.
         11    1    4    4    0    0  0.21031615024E+02  0.14800242268E+01 -0.10987554724E+03  0.11188009289E+03  0.00000000000E+00 0. -1.
</event>
<event>
 8    1  0.3896452E-010  0.1308645E+03  0.7561462E-02  0.1226179E+00
          1   -1    0    0  501    0  0.00000000000E+00  0.00000000000E+00  0.15278187345E+03  0.15278187345E+03  0.00000000000E+00 0. -1.
         -1   -1    0    0    0  501 -0.00000000000E+00 -0.00000000000E+00 -0.15631834475E+03  0.15631834475E+03  0.00000000000E+00 0.  1.
         25    2    1    2    0    0 -0.98355346993E+02  0.23002706115E+02  0.53462031867E+02  0.16943470724E+03  0.12508809853E+03 0.  0.
         23    2    1    2    0    0  0.98355346993E+02 -0.23002706115E+02 -0.56998503174E+02  0.13966551096E+03  0.77812125133E+02 0.  0.
          5    1    3    3  502    0 -0.30398969632E+02 -0.51399654418E+02  0.22233719967E+02  0.63857908927E+02  0.41800000000E+01 0. -1.
         -5    1    3    3    0  502 -0.67956377361E+02  0.74402360533E+02  0.31228311900E+02  0.10557679831E+03  0.41800000000E+01 0. -1.
        -11    1    4    4    0    0  0.61289862711E+02 -0.13848447412E+02 -0.74674054450E+02  0.97593243490E+02  0.00000000000E+00 0.  1.
         11    1    4    4    0    0  0.37065484282E+02 -0.91542587030E+01  0.17675551276E+02  0.42072267473E+02  0.00000000000E+00 0. -1.
</event>
<event>
 8    1  0.3896452E-010  0.9152579E+02  0.7561462E-02  0.1299198E+00
          2   -1    0    0  501    0  0.00000000000E+00  0.00000000000E+00  0.10098028093E+03  0.10098028093E+03  0.00000000000E+00 0. -1.
         -2   -1    0    0    0  501 -0.00000000000E+00 -0.00000000000E+00 -0.16833460256E+03  0.16833460256E+03  0.00000000000E+00 0.  1.
         25    2    1    2    0    0  0.61041342940E+02  0.17538794120E+02  0.13160298461E+02  0.14090942834E+03  0.12509443910E+03 0.  0.
         23    2    1    2    0    0 -0.61041342940E+02 -0.17538794120E+02 -0.80514620085E+02  0.12840545515E+03  0.77276788344E+02 0.  0.
          5    1    3    3  502    0  0.90543844227E+01  0.30402459322E+02 -0.49145892035E+02  0.58643691169E+02  0.41800000000E+01 0. -1.
         -5    1    3    3    0  502  0.51986958517E+02 -0.12863665202E+02  0.62306190496E+02  0.82265737171E+02  0.41800000000E+01 0. -1.
        -11    1    4    4    0    0 -0.37818464814E+02  0.27435170725E+02 -0.53508116833E+02  0.71035508308E+02  0.00000000000E+00 0.  1.
         11    1    4    4    0    0 -0.23222878125E+02 -0.44973964844E+02 -0.27006503252E+02  0.57369946838E+02  0.00000000000E+00 0. -1.
</event>
<event>
 7    1  0.3896452E-010  0.1167664E+03  0.7561462E-02  0.1248529E+00
         -4   -1    0    0    0  501 -0.00000000000E+00  0.00000000000E+00  0.14743870256E+03  0.14743870256E+03  0.00000000000E+00 0.  1.
          4   -1    0    0  501    0  0.00000000000E+00 -0.00000000000E+00 -0.21690809241E+03  0.21690809241E+03  0.00000000000E+00 0. -1.
         25    2    1    2    0    0 -0.61706512044E+02 -0.68289810620E+02 -0.11475647225E+03  0.19311055167E+03  0.12510573680E+03 0.  0.
          5    1    3    3  502    0 -0.38164749471E+02  0.24395170951E+02 -0.78554065163E+02  0.90773817930E+02  0.41800000000E+01 0. -1.
         -5    1    3    3    0  502 -0.23541762572E+02 -0.92684981571E+02 -0.36202407090E+02  0.10233673374E+03  0.41800000000E+01 0. -1.
        -11    1    1    2    0    0  0.29859628593E+02  0.38456747761E+02  0.93984818946E+02  0.10584736681E+03  0.00000000000E+00 0.  1.
         11    1    1    2    0    0  0.31846883451E+02  0.29833062859E+02 -0.48697736537E+02  0.65388876492E+02  0.00000000000E+00 0. -1.
</event>
<event>
 8    1  0.3896452E-010  0.1480672E+03  0.7561462E-02  0.1202868E+00
          1   -1    0    0  501    0  0.00000000000E+00  0.00000000000E+00  0.59447128035E+02  0.59447128035E+02  0.00000000000E+00 0. -1.
         -1   -1    0    0    0  501 -0.00000000000E+00 -0.00000000000E+00 -0.65094101230E+03  0.65094101230E+03  0.00000000000E+00 0.  1.
         25    2    1    2    0    0  0.13137213469E+03  0.13379108831E+02 -0.12814308982E+03  0.22249947134E+03  0.12509086678E+03 0.  0.
         23    2    1    2    0    0 -0.13137213469E+03 -0.13379108831E+02 -0.46335079445E+03  0.48788866900E+03  0.76835904982E+02 0.  0.
          5    1    3    3  502    0  0.55869472076E+02 -0.22310988855E+02  0.98943841443E+01  0.61110959503E+02  0.41800000000E+01 0. -1.
         -5    1    3    3    0  502  0.75502662613E+02  0.35690097686E+02 -0.13803747396E+03  0.16138851183E+03  0.41800000000E+01 0. -1.
        -11    1    4    4    0    0 -0.10483991872E+03  0.22855410767E+02 -0.34509885306E+03  0.36139590028E+03  0.00000000000E+00 0.  1.
         11    1    4    4    0    0 -0.26532215966E+02 -0.36234519598E+02 -0.11825194139E+03  0.12649276871E+03  0.00000000000E+00 0. -1.
</event>
<event>
 8    1  0.3896452E-010  0.2379844E+03  0.7561462E-02  0.1121143E+00
         -2   -1    0    0    0  501 -0.00000000000E+00  0.00000000000E+00  0.25426674372E+02  0.25426674372E+02  0.00000000000E+00 0.  1.
          2   -1    0    0  501    0  0.00000000000E+00 -0.00000000000E+00 -0.35320672762E+04  0.35320672762E+04  0.00000000000E+00 0. -1.
         25    2    1    2    0    0  0.22533222043E+03 -0.47031787170E+02 -0.26825245388E+04  0.26952871466E+04  0.12509317528E+03 0.  0.
         23    2    1    2    0    0 -0.22533222043E+03  0.47031787170E+02 -0.82411606295E+03  0.86220680395E+03  0.10605040781E+03 0.  0.
          5    1    3    3  502    0  0.25040511773E+02 -0.21605413244E+02 -0.10197347403E+04  0.10202794882E+04  0.41800000000E+01 0. -1.
         -5    1    3    3    0  502  0.20029170866E+03 -0.25426373927E+02 -0.16627897985E+04  0.16750076584E+04  0.41800000000E+01 0. -1.
        -11    1    4    4    0    0 -0.10555145072E+03  0.57949821979E+02 -0.54729482585E+03  0.56038461526E+03  0.00000000000E+00 0. -1.
         11    1    4    4    0    0 -0.11978076971E+03 -0.10918034808E+02 -0.27682123710E+03  0.30182218869E+03  0.00000000000E+00 0.  1.
</event>
<event>
 7    1  0.3896452E-010  0.1516525E+03  0.7561462E-02  0.1198457E+00
         -2   -1    0    0    0  501 -0.00000000000E+00  0.00000000000E+00  0.18640637662E+03  0.18640637662E+03  0.00000000000E+00 0.  1.
          2   -1    0    0  501    0  0.00000000000E+00 -0.00000000000E+00 -0.21107121759E+03  0.21107121759E+03  0.00000000000E+00 0. -1.
         25    2    1    2    0    0  0.36082534092E+02  0.12726067447E+03  0.10031432683E+03  0.20786482718E+03  0.12509034205E+03 0.  0.
          5    1    3    3  502    0 -0.16839530355E+02  0.99244558064E+02  0.12538429208E+02  0.10152702446E+03  0.41800000000E+01 0.  1.
         -5    1    3    3    0  502  0.52922064446E+02  0.28016116411E+02  0.87775897622E+02  0.10633780272E+03  0.41800000000E+01 0.  1.
        -11    1    1    2    0    0  0.16721341093E+01 -0.88160187235E+02 -0.74516293418E+02  0.11544562629E+03  0.00000000000E+00 0.  1.
         11    1    1    2    0    0 -0.37754668201E+02 -0.39100487240E+02 -0.50462874382E+02  0.74167140731E+02  0.00000000000E+00 0. -1.
</event>
<event>
 7    1  0.3896452E-010  0.1335928E+03  0.7561462E-02  0.1222220E+00
         -2   -1    0    0    0  501 -0.00000000000E+00  0.00000000000E+00  0.35092756974E+02  0.35092756974E+02  0.00000000000E+00 0.  1.
          2   -1    0    0  501    0  0.00000000000E+00 -0.00000000000E+00 -0.68312415459E+03  0.68312415459E+03  0.00000000000E+00 0. -1.
         25    2    1    2    0    0  0.10453239227E+03  0.57494263616E+02 -0.28440958869E+03  0.33281949508E+03  0.12508953107E+03 0.  0.
          5    1    3    3  502    0  0.96078710940E+02  0.78078371054E+02 -0.14121955359E+03  0.18785043369E+03  0.41800000000E+01 0. -1.
         -5    1    3    3    0  502  0.84536813279E+01 -0.20584107438E+02 -0.14319003511E+03  0.14496906139E+03  0.41800000000E+01 0. -1.
        -11    1    1    2    0    0 -0.22432966891E+02 -0.21341652663E+02 -0.46761821529E+02  0.56083616989E+02  0.00000000000E+00 0.  1.
         11    1    1    2    0    0 -0.82099425377E+02 -0.36152610952E+02 -0.31685998740E+03  0.32931379950E+03  0.00000000000E+00 0. -1.
</event>
<event>
 8    1  0.3896452E-010  0.1132869E+03  0.7561462E-02  0.1254601E+00
         -1   -1    0    0    0  501 -0.00000000000E+00  0.00000000000E+00  0.97710507003E+02  0.97710507003E+02  0.00000000000E+00 0.  1.
          1   -1    0    0  501    0  0.00000000000E+00 -0.00000000000E+00 -0.14937860400E+03  0.14937860400E+03  0.00000000000E+00 0. -1.
         25    2    1    2    0    0 -0.58516202201E+02  0.24190266322E+02 -0.47375126281E+02  0.14799059910E+03  0.12508996733E+03 0.  0.
         23    2    1    2    0    0  0.58516202201E+02 -0.24190266322E+02 -0.42929707213E+01  0.99098511907E+02  0.76110252659E+02 0.  0.
          5    1    3    3  502    0 -0.96488650738E+02  0.33621077708E+01 -0.30754502440E+02  0.10141338822E+03  0.41800000000E+01 0.  1.
         -5    1    3    3    0  502  0.37972448536E+02  0.20828158552E+02 -0.16620623841E+02  0.46577210880E+02  0.41800000000E+01 0.  1.
        -11    1    4    4    0    0  0.69808209292E+02 -0.13964454544E+02  0.16735384102E+02  0.73131834083E+02  0.00000000000E+00 0.  1.
         11    1    4    4    0    0 -0.11292007091E+02 -0.10225811778E+02 -0.21028354823E+02  0.25966677824E+02  0.00000000000E+00 0. -1.
</event>
<event>
 8    1  0.3896452E-010  0.1099924E+03  0.7561462E-02  0.1260584E+00
         -1   -1    0    0    0  501 -0.00000000000E+00  0.00000000000E+00  0.56912164536E+02  0.56912164536E+02  0.00000000000E+00 0.  1.
          1   -1    0    0  501    0  0.00000000000E+00 -0.00000000000E+00 -0.56482072614E+03  0.56482072614E+03  0.00000000000E+00 0. -1.
         25    2    1    2    0    0 -0.13579158857E+02 -0.33553707004E+01 -0.49108855148E+03  0.50696528008E+03  0.12510067047E+03 0.  0.
         23    2    1    2    0    0  0.13579158857E+02  0.33553707004E+01 -0.16820010132E+02  0.11476761060E+03  0.11266339083E+03 0.  0.
          5    1    3    3  502    0 -0.53403015506E+02 -0.31589985987E+02 -0.38647678523E+03  0.39144806450E+03  0.41800000000E+01 0.  1.
         -5    1    3    3    0  502  0.39823856649E+02  0.28234615287E+02 -0.10461176625E+03  0.11551721558E+03  0.41800000000E+01 0.  1.
        -11    1    4    4    0    0 -0.47296382168E+02 -0.40866737122E+01  0.88373538156E+01  0.48288171332E+02  0.00000000000E+00 0.  1.
         11    1    4    4    0    0  0.60875541025E+02  0.74420444127E+01 -0.25657363947E+02  0.66479439264E+02  0.00000000000E+00 0. -1.
</event>
<event>
 8    1  0.3896452E-010  0.1550263E+03  0.7561462E-02  0.1194429E+00
         -1   -1    0    0    0  501 -0.00000000000E+00  0.00000000000E+00  0.71051613369E+02  0.71051613369E+02  0.00000000000E+00 0.  1.
          1   -1    0    0  501    0  0.00000000000E+00 -0.00000000000E+00 -0.40487283346E+03  0.40487283346E+03  0.00000000000E+00 0. -1.
         25    2    1    2    0    0  0.12140037720E+03  0.62152785988E+02 -0.18897996322E+03  0.26450141557E+03  0.12508617810E+03 0.  0.
         23    2    1    2    0    0 -0.12140037720E+03 -0.62152785988E+02 -0.14484125687E+03  0.21142303125E+03  0.71551995513E+02 0.  0.
          5    1    3    3  502    0  0.82107032418E+02 -0.79009908082E+01 -0.15805039175E+03  0.17832943997E+03  0.41800000000E+01 0.  1.
         -5    1    3    3    0  502  0.39293344784E+02  0.70053776797E+02 -0.30929571470E+02  0.86171975602E+02  0.41800000000E+01 0.  1.
        -11    1    4    4    0    0 -0.87091942203E+02 -0.14467050217E+02 -0.54791451615E+02  0.10390575109E+03  0.00000000000E+00 0.  1.
         11    1    4    4    0    0 -0.34308434999E+02 -0.47685735771E+02 -0.90049805254E+02  0.10751728017E+03  0.00000000000E+00 0. -1.
</event>
<event>
 8    1  0.3896452E-010  0.1505691E+03  0.7561462E-02  0.1199775E+00
         -1   -1    0    0    0  501 -0.00000000000E+00  0.00000000000E+00  0.58277701660E+02  0.58277701660E+02  0.00000000000E+00 0.  1.
          1   -1    0    0  501    0  0.00000000000E+00 -0.00000000000E+00 -0.79667164348E+03  0.79667164348E+03  0.00000000000E+00 0. -1.
         25    2    1    2    0    0 -0.79435974085E+02  0.10425078411E+03 -0.62331377461E+03  0.64911164858E+03  0.12509025037E+03 0.  0.
         23    2    1    2    0    0  0.79435974085E+02 -0.10425078411E+03 -0.11508016721E+03  0.20583769656E+03  0.10930421984E+03 0.  0.
          5    1    3    3  502    0 -0.49356524289E+02  0.12421350711E+03 -0.56326856618E+03  0.57892487586E+03  0.41800000000E+01 0.  1.
         -5    1    3    3    0  502 -0.30079449796E+02 -0.19962723004E+02 -0.60045208424E+02  0.70186772717E+02  0.41800000000E+01 0.  1.
        -11    1    4    4    0    0  0.38648771521E+02 -0.51605037703E+02 -0.12289830514E+03  0.13878328740E+03  0.00000000000E+00 0. -1.
         11    1    4    4    0    0  0.40787202564E+02 -0.52645746406E+02  0.78181379224E+01  0.67054409163E+02  0.00000000000E+00 0.  1.
</event>
<event>
 7    1  0.3896452E-010  0.1045416E+03  0.7561462E-02  0.1271025E+00
         -1   -1    0    0    0  501 -0.00000000000E+00  0.00000000000E+00  0.44447787877E+03  0.44447787877E+03  0.00000000000E+00 0.  1.
          1   -1    0    0  501    0  0.00000000000E+00 -0.00000000000E+00 -0.53944212315E+02  0.53944212315E+02  0.00000000000E+00 0. -1.
         25    2    1    2    0    0 -0.36122176724E+02  0.64437949409E+02  0.14571676245E+03  0.20576018874E+03  0.12508724730E+03 0.  0.
          5    1    3    3  502    0 -0.10263867606E+02  0.28671571381E+01 -0.22214032121E+02  0.24990061852E+02  0.41800000000E+01 0.  1.
         -5    1    3    3    0  502 -0.25858309119E+02  0.61570792271E+02  0.16793079457E+03  0.18077012689E+03  0.41800000000E+01 0.  1.
        -11    1    1    2    0    0 -0.28323724460E+02  0.11986002801E+02  0.28865074086E+01  0.30890606266E+02  0.00000000000E+00 0. -1.
         11    1    1    2    0    0  0.64445901185E+02 -0.76423952210E+02  0.24193039660E+03  0.26177129608E+03  0.00000000000E+00 0.  1.
</event>
<event>
 7    1  0.3896452E-010  0.1023093E+03  0.7561462E-02  0.1275514E+00
          1   -1    0    0  501    0  0.00000000000E+00  0.00000000000E+00  0.38902904218E+03  0.38902904218E+03  0.00000000000E+00 0. -1.
         -1   -1    0    0    0  501 -0.00000000000E+00 -0.00000000000E+00 -0.27956268154E+02  0.27956268154E+02  0.00000000000E+00 0.  1.
         25    2    1    2    0    0  0.22052947571E+02 -0.45949864839E+02  0.23106429588E+03  0.26764611746E+03  0.12508402290E+03 0.  0.
          5    1    3    3  502    0 -0.15408321906E+02  0.38927634137E+02  0.66808481135E+02  0.78953294010E+02  0.41800000000E+01 0.  1.
         -5    1    3    3    0  502  0.37461269477E+02 -0.84877498976E+02  0.16425581475E+03  0.18869282345E+03  0.41800000000E+01 0.  1.
        -11    1    1    2    0    0 -0.69241277331E+01  0.52667048489E+02  0.11626172935E+03  0.12782234254E+03  0.00000000000E+00 0. -1.
         11    1    1    2    0    0 -0.15128819838E+02 -0.67171836501E+01  0.13746748795E+02  0.21516850334E+02  0.00000000000E+00 0.  1.
</event>
<event>
 8    1  0.3896452E-010  0.1046147E+03  0.7561462E-02  0.1270881E+00
          3   -1    0    0  501    0  0.00000000000E+00  0.00000000000E+00  0.22027988297E+04  0.22027988297E+04  0.00000000000E+00 0. -1.
         -3   -1    0    0    0  501 -0.00000000000E+00 -0.00000000000E+00 -0.11736877317E+02  0.11736877317E+02  0.00000000000E+00 0.  1.
         25    2    1    2    0    0  0.21232741285E+02 -0.44558217934E+02  0.18088798744E+04  0.18138718854E+04  0.12509417480E+03 0.  0.
         23    2    1    2    0    0 -0.21232741285E+02  0.44558217934E+02  0.38218207801E+03  0.40066382163E+03  0.10969089812E+03 0.  0.
          5    1    3    3  502    0  0.61342194400E+02 -0.89384495368E+01  0.49402598022E+03  0.49791756570E+03  0.41800000000E+01 0.  1.
         -5    1    3    3    0  502 -0.40109453115E+02 -0.35619768398E+02  0.13148538941E+04  0.13159543197E+04  0.41800000000E+01 0.  1.
        -11    1    4    4    0    0 -0.27980248111E+02 -0.16086169122E+02  0.32884204021E+02  0.46076349633E+02  0.00000000000E+00 0.  1.
         11    1    4    4    0    0  0.67475068263E+01  0.60644387057E+02  0.34929787398E+03  0.35458747200E+03  0.00000000000E+00 0. -1.
</event>
<event>
 8    1  0.3896452E-010  0.9987682E+02  0.7561462E-02  0.1280555E+00
          2   -1    0    0  501    0  0.00000000000E+00  0.00000000000E+00  0.24011141423E+03  0.24011141423E+03  0.00000000000E+00 0. -1.
         -2   -1    0    0    0  501 -0.00000000000E+00 -0.00000000000E+00 -0.11526480676E+03  0.11526480676E+03  0.00000000000E+00 0.  1.
         25    2    1    2    0    0 -0.11785750073E+02  0.74667667644E+02 -0.32148268357E+02  0.14964995060E+03  0.12508969606E+03 0.  0.
         23    2    1    2    0    0  0.11785750073E+02 -0.74667667644E+02  0.15699487583E+03  0.20572627039E+03  0.10936975265E+03 0.  0.
          5    1    3    3  502    0 -0.24476331759E+02 -0.31972851696E+00 -0.62810633975E+02  0.67541403472E+02  0.41800000000E+01 0. -1.
         -5    1    3    3    0  502  0.12690581686E+02  0.74987396161E+02  0.30662365618E+02  0.82108547131E+02  0.41800000000E+01 0. -1.
        -11    1    4    4    0    0  0.34351210736E+02 -0.20331965976E+02  0.20306331341E+01  0.39968962839E+02  0.00000000000E+00 0.  1.
         11    1    4    4    0    0 -0.22565460663E+02 -0.54335701669E+02  0.15496424270E+03  0.16575730755E+03  0.00000000000E+00 0. -1.
</event>
<event>
 8    1  0.3896452E-010  0.1014288E+03  0.7561462E-02  0.1277320E+00
         -2   -1    0    0    0  501 -0.00000000000E+00  0.00000000000E+00  0.36913552938E+03  0.36913552938E+03  0.00000000000E+00 0.  1.
          2   -1    0    0  501    0  0.00000000000E+00 -0.00000000000E+00 -0.45700115701E+02  0.45700115701E+02  0.00000000000E+00 0. -1.
         25    2    1    2    0    0  0.16936578266E+02 -0.10085937147E+02  0.25930683259E+03  0.28857813485E+03  0.12509489469E+03 0.  0.
         23    2    1    2    0    0 -0.16936578266E+02  0.10085937147E+02  0.64128581097E+02  0.12625751023E+03  0.10695751570E+03 0.  0.
          5    1    3    3  502    0 -0.48672313633E+01  0.42325340814E+02  0.29903678055E+02  0.52219026967E+02  0.41800000000E+01 0. -1.
         -5    1    3    3    0  502  0.21803809629E+02 -0.52411277961E+02  0.22940315453E+03  0.23635910789E+03  0.41800000000E+01 0. -1.
        -11    1    4    4    0    0  0.22079045640E+02  0.45413423928E+02  0.51510067066E+02  0.72132865869E+02  0.00000000000E+00 0.  1.
         11    1    4    4    0    0 -0.39015623906E+02 -0.35327486781E+02  0.12618514031E+02  0.54124644363E+02  0.00000000000E+00 0. -1.
</event>
<event>
 8    1  0.3896452E-010  0.1109922E+03  0.7561462E-02  0.1258743E+00
         -1   -1    0    0    0  501 -0.00000000000E+00  0.00000000000E+00  0.19778504988E+02  0.19778504988E+02  0.00000000000E+00 0.  1.
          1   -1    0    0  501    0  0.00000000000E+00 -0.00000000000E+00 -0.73340725180E+03  0.73340725180E+03  0.00000000000E+00 0. -1.
         25    2    1    2    0    0 -0.44436438574E+02  0.50338285555E+02 -0.47061597238E+03  0.49156056744E+03  0.12507540902E+03 0.  0.
         23    2    1    2    0    0  0.44436438574E+02 -0.50338285555E+02 -0.24301277443E+03  0.26162518934E+03  0.69885557127E+02 0.  0.
          5    1    3    3  502    0 -0.79387954789E+02  0.50233629131E+00 -0.30032630648E+03  0.31067034373E+03  0.41800000000E+01 0. -1.
         -5    1    3    3    0  502  0.34951516215E+02  0.49835949263E+02 -0.17028966590E+03  0.18089022372E+03  0.41800000000E+01 0. -1.
        -11    1    4    4    0    0  0.45703770983E+02 -0.18020116208E+02 -0.69420829897E+02  0.85045934023E+02  0.00000000000E+00 0.  1.
         11    1    4    4    0    0 -0.12673324093E+01 -0.32318169346E+02 -0.17359194453E+03  0.17657925532E+03  0.00000000000E+00 0. -1.
</event>
<event>
 7    1  0.3896452E-010  0.5549183E+02  0.7561462E-02  0.1417787E+00
         -1   -1    0    0    0  501 -0.00000000000E+00  0.00000000000E+00  0.11191973474E+03  0.11191973474E+03  0.00000000000E+00 0.  1.
          1   -1    0    0  501    0  0.00000000000E+00 -0.00000000000E+00 -0.99391612445E+02  0.99391612445E+02  0.00000000000E+00 0. -1.
         25    2    1    2    0    0 -0.19389042041E+02  0.34951901724E+01 -0.44492481806E+02  0.13423062329E+03  0.12510047156E+03 0.  0.
          5    1    3    3  502    0  0.23025624588E+02  0.44074317221E+00 -0.77039957212E+02  0.80517085450E+02  0.41800000000E+01 0.  1.
         -5    1    3    3    0  502 -0.42414666629E+02  0.30544470002E+01  0.32547475406E+02  0.53713537837E+02  0.41800000000E+01 0.  1.
        -11    1    1    2    0    0  0.24766481763E+02  0.12664837667E+02  0.52572650663E+02  0.59478234084E+02  0.00000000000E+00 0.  1.
         11    1    1    2    0    0 -0.53774397211E+01 -0.16160027840E+02  0.44479534329E+01  0.17602489809E+02  0.00000000000E+00 0. -1.
</event>
<event>
 8    1  0.3896452E-010  0.7560572E+02  0.7561462E-02  0.1342006E+00
          1   -1    0    0  501    0  0.00000000000E+00  0.00000000000E+00  0.16208901676E+03  0.16208901676E+03  0.00000000000E+00 0. -1.
         -1   -1    0    0    0  501 -0.00000000000E+00 -0.00000000000E+00 -0.84919425149E+02  0.84919425149E+02  0.00000000000E+00 0.  1.
         25    2    1    2    0    0 -0.38788090677E+02 -0.38162866728E+02  0.22711302799E+02  0.13829408799E+03  0.12509408908E+03 0.  0.
         23    2    1    2    0    0  0.38788090677E+02  0.38162866728E+02  0.54458288808E+02  0.10871435392E+03  0.76760570301E+02 0.  0.
          5    1    3    3  502    0  0.28249321921E+01 -0.10824675835E+02 -0.49255663707E+02  0.50682804342E+02  0.41800000000E+01 0. -1.
         -5    1    3    3    0  502 -0.41613022869E+02 -0.27338190892E+02  0.71966966506E+02  0.87611283644E+02  0.41800000000E+01 0. -1.
        -11    1    4    4    0    0 -0.20260182269E+02  0.17416070094E+02  0.15521114110E+01  0.26761979242E+02  0.00000000000E+00 0. -1.
         11    1    4    4    0    0  0.59048272947E+02  0.20746796634E+02  0.52906177397E+02  0.81952374677E+02  0.00000000000E+00 0.  1.
</event>
<event>
 8    1  0.3896452E-010  0.1824864E+03  0.7561462E-02  0.1165418E+00
         -1   -1    0    0    0  501 -0.00000000000E+00  0.00000000000E+00  0.33603392183E+03  0.33603392183E+03  0.00000000000E+00 0.  1.
          1   -1    0    0  501    0  0.00000000000E+00 -0.00000000000E+00 -0.17088650720E+03  0.17088650720E+03  0.00000000000E+00 0. -1.
         25    2    1    2    0    0 -0.82317766307E+02  0.15408625497E+03  0.22352633941E+03  0.31004807411E+03  0.12508794996E+03 0.  0.
         23    2    1    2    0    0  0.82317766307E+02 -0.15408625497E+03 -0.58378924783E+02  0.19687235493E+03  0.69511413871E+02 0.  0.
          5    1    3    3  502    0 -0.25693112221E+02  0.79344656478E+02  0.19471122852E+03  0.21186232661E+03  0.41800000000E+01 0.  1.
         -5    1    3    3    0  502 -0.56624654086E+02  0.74741598487E+02  0.28815110895E+02  0.98185747492E+02  0.41800000000E+01 0.  1.
        -11    1    4    4    0    0 -0.11998103295E+02 -0.25041148293E+02 -0.13370139468E+02  0.30818407160E+02  0.00000000000E+00 0. -1.
         11    1    4    4    0    0  0.94315869602E+02 -0.12904510667E+03 -0.45008785316E+02  0.16605394777E+03  0.00000000000E+00 0.  1.
</event>
<event>
 8    1  0.3896452E-010  0.5440048E+02  0.7561462E-02  0.1422956E+00
          1   -1    0    0  501    0  0.00000000000E+00  0.00000000000E+00  0.12128676435E+03  0.12128676435E+03  0.00000000000E+00 0. -1.
         -1   -1    0    0    0  501 -0.00000000000E+00 -0.00000000000E+00 -0.85952447372E+02  0.85952447372E+02  0.00000000000E+00 0.  1.
         25    2    1    2    0    0 -0.12445882146E+02 -0.22803779801E+02  0.16623203213E+02  0.12883624684E+03  0.12509010856E+03 0.  0.
         23    2    1    2    0    0  0.12445882146E+02  0.22803779801E+02  0.18711113768E+02  0.78402964884E+02  0.71568196627E+02 0.  0.
          5    1    3    3  502    0 -0.26186397786E+02 -0.25092569420E+02  0.67055024155E+02  0.76349283779E+02  0.41800000000E+01 0. -1.
         -5    1    3    3    0  502  0.13740515640E+02  0.22887896194E+01 -0.50431820942E+02  0.52486963062E+02  0.41800000000E+01 0. -1.
        -11    1    4    4    0    0 -0.12522435730E+02  0.29373394771E+02 -0.15539271498E+02  0.35511641410E+02  0.00000000000E+00 0.  1.
         11    1    4    4    0    0  0.24968317876E+02 -0.65696149702E+01  0.34250385266E+02  0.42891323473E+02  0.00000000000E+00 0. -1.
</event>
<event>
 8    1  0.3896452E-010  0.3188728E+03  0.7561462E-02  0.1076169E+00
          1   -1    0    0  501    0  0.00000000000E+00  0.00000000000E+00  0.36089608411E+03  0.36089608411E+03  0.00000000000E+00 0. -1.
         -1   -1    0    0    0  501 -0.00000000000E+00 -0.00000000000E+00 -0.29933998266E+03  0.29933998266E+03  0.00000000000E+00 0.  1.
         25    2    1    2    0    0 -0.21963763608E+03 -0.21537402769E+03  0.43180092582E+02  0.33487057542E+03  0.12508844433E+03 0.  0.
         23    2    1    2    0    0  0.21963763608E+03  0.21537402769E+03  0.18376008865E+02  0.32536549135E+03  0.10439522153E+03 0.  0.
          5    1    3    3  502    0 -0.40373661406E+02  0.74990803324E+01 -0.13160057053E+02  0.43323529898E+02  0.41800000000E+01 0. -1.
         -5    1    3    3    0  502 -0.17926397467E+03 -0.22287310802E+03  0.56340149635E+02  0.29154704552E+03  0.41800000000E+01 0. -1.
        -11    1    4    4    0    0  0.15646884188E+03  0.12558436554E+03  0.57676214410E+02  0.20875937598E+03  0.00000000000E+00 0.  1.
         11    1    4    4    0    0  0.63168794193E+02  0.89789662144E+02 -0.39300205545E+02  0.11660611538E+03  0.00000000000E+00 0. -1.
</event>
<event>
 7    1  0.3896452E-010  0.8626919E+02  0.7561462E-02  0.1312146E+00
          1   -1    0    0  501    0  0.00000000000E+00  0.00000000000E+00  0.55015671624E+03  0.55015671624E+03  0.00000000000E+00 0. -1.
         -1   -1    0    0    0  501 -0.00000000000E+00 -0.00000000000E+00 -0.16181385185E+02  0.16181385185E+02  0.00000000000E+00 0.  1.
         25    2    1    2    0    0  0.24970317875E+02 -0.51463887026E+01  0.41984672315E+03  0.43882650039E+03  0.12508966549E+03 0.  0.
          5    1    3    3  502    0  0.46512877665E+02 -0.49205578085E+02  0.15138984711E+03  0.16589452948E+03  0.41800000000E+01 0.  1.
         -5    1    3    3    0  502 -0.21542559790E+02  0.44059189382E+02  0.26845687603E+03  0.27293197090E+03  0.41800000000E+01 0.  1.
        -11    1    1    2    0    0 -0.10625286840E+02 -0.22192007416E+02  0.37006611831E+02  0.44439523319E+02  0.00000000000E+00 0.  1.
         11    1    1    2    0    0 -0.14345031036E+02  0.27338396119E+02  0.77121996082E+02  0.83072077724E+02  0.00000000000E+00 0. -1.
</event>
<event>
 7    1  0.3896452E-010  0.1071160E+03  0.7561462E-02  0.1266006E+00
         -3   -1    0    0    0  501 -0.00000000000E+00  0.00000000000E+00  0.13662478965E+03  0.13662478965E+03  0.00000000000E+00 0.  1.
          3   -1    0    0  501    0  0.00000000000E+00 -0.00000000000E+00 -0.17024620558E+03  0.17024620558E+03  0.00000000000E+00 0. -1.
         25    2    1    2    0    0 -0.37913659751E+02 -0.29984973124E+02  0.41076954374E+02  0.14024587740E+03  0.12508015726E+03 0.  0.
          5    1    3    3  502    0  0.55885022749E+01  0.16742125048E+02 -0.35857844497E+02  0.40184418880E+02  0.41800000000E+01 0.  1.
         -5    1    3    3    0  502 -0.43502162026E+02 -0.46727098171E+02  0.76934798871E+02  0.10006145852E+03  0.41800000000E+01 0.  1.
        -11    1    1    2    0    0 -0.45124597904E+02  0.50107491341E+01 -0.65120471272E+02  0.79385217273E+02  0.00000000000E+00 0. -1.
         11    1    1    2    0    0  0.83038257655E+02  0.24974223990E+02 -0.95778990318E+01  0.87239900551E+02  0.00000000000E+00 0.  1.
</event>
<event>
 8    1  0.3896452E-010  0.9197884E+02  0.7561462E-02  0.1298129E+00
         -1   -1    0    0    0  501 -0.00000000000E+00  0.00000000000E+00  0.60203318147E+02  0.60203318147E+02  0.00000000000E+00 0. -1.
          1   -1    0    0  501    0  0.00000000000E+00 -0.00000000000E+00 -0.26782573615E+03  0.26782573615E+03  0.00000000000E+00 0.  1.
         25    2    1    2    0    0 -0.37093138225E+02  0.13859252339E+02 -0.73945263253E+02  0.15061186561E+03  0.12509217532E+03 0.  0.
         23    2    1    2    0    0  0.37093138225E+02 -0.13859252339E+02 -0.13367715475E+03  0.17741718868E+03  0.10972373198E+03 0.  0.
          5    1    3    3  502    0  0.12350804840E+02  0.12726003096E+02  0.30185071010E+02  0.35257686352E+02  0.41800000000E+01 0.  1.
         -5    1    3    3    0  502 -0.49443943065E+02  0.11332492426E+01 -0.10413033426E+03  0.11535417926E+03  0.41800000000E+01 0.  1.
        -11    1    4    4    0    0  0.12463187168E+02 -0.61351947159E+02 -0.80576177831E+02  0.10203878130E+03  0.00000000000E+00 0.  1.
         11    1    4    4    0    0  0.24629951057E+02  0.47492694820E+02 -0.53100976916E+02  0.75378407384E+02  0.00000000000E+00 0. -1.
</event>
<event>
 8    1  0.3896452E-010  0.1229985E+03  0.7561462E-02  0.1238231E+00
          2   -1    0    0  501    0  0.00000000000E+00  0.00000000000E+00  0.74570483421E+02  0.74570483421E+02  0.00000000000E+00 0. -1.
         -2   -1    0    0    0  501 -0.00000000000E+00 -0.00000000000E+00 -0.24974271427E+03  0.24974271427E+03  0.00000000000E+00 0.  1.
         25    2    1    2    0    0  0.22767107010E+02 -0.65352852365E+02 -0.10492484685E+03  0.17733063618E+03  0.12509034563E+03 0.  0.
         23    2    1    2    0    0 -0.22767107010E+02  0.65352852365E+02 -0.70247383998E+02  0.14698256150E+03  0.10899468773E+03 0.  0.
          5    1    3    3  502    0 -0.35380958027E+01  0.32899627681E+02 -0.54087369744E+02  0.63543839900E+02  0.41800000000E+01 0.  1.
         -5    1    3    3    0  502  0.26305202813E+02 -0.98252480045E+02 -0.50837477102E+02  0.11378679628E+03  0.41800000000E+01 0.  1.
        -11    1    4    4    0    0 -0.20711948809E+02  0.86832319377E+02 -0.83021436237E+02  0.12190732294E+03  0.00000000000E+00 0.  1.
         11    1    4    4    0    0 -0.20551582015E+01 -0.21479467012E+02  0.12774052240E+02  0.25075238563E+02  0.00000000000E+00 0. -1.
</event>
<event>
 8    1  0.3896452E-010  0.1041231E+03  0.7561462E-02  0.1271857E+00
         -1   -1    0    0    0  501 -0.00000000000E+00  0.00000000000E+00  0.54663041112E+03  0.54663041112E+03  0.00000000000E+00 0.  1.
          1   -1    0    0  501    0  0.00000000000E+00 -0.00000000000E+00 -0.39318105258E+02  0.39318105258E+02  0.00000000000E+00 0. -1.
         25    2    1    2    0    0  0.18685160670E+02  0.13301232299E+02  0.40720779407E+03  0.42660390055E+03  0.12508653964E+03 0.  0.
         23    2    1    2    0    0 -0.18685160670E+02 -0.13301232299E+02  0.10010451179E+03  0.15934461583E+03  0.12183486900E+03 0.  0.
          5    1    3    3  502    0 -0.20846414053E+02  0.46194523760E+02  0.76271995199E+02  0.91670042303E+02  0.41800000000E+01 0. -1.
         -5    1    3    3    0  502  0.39531574723E+02 -0.32893291461E+02  0.33093579887E+03  0.33493385825E+03  0.41800000000E+01 0. -1.
        -11    1    4    4    0    0  0.16186347149E+02 -0.51554066636E+02  0.92361312115E+02  0.10700668949E+03  0.00000000000E+00 0.  1.
         11    1    4    4    0    0 -0.34871507819E+02  0.38252834337E+02  0.77431996801E+01  0.52337926341E+02  0.00000000000E+00 0. -1.
</event>
<event>
 8    1  0.3896452E-010  0.5579819E+02  0.7561462E-02  0.1416361E+00
         -1   -1    0    0    0  501 -0.00000000000E+00  0.00000000000E+00  0.44763113548E+03  0.44763113548E+03  0.00000000000E+00 0.  1.
          1   -1    0    0  501    0  0.00000000000E+00 -0.00000000000E+00 -0.37937223379E+02  0.37937223379E+02  0.00000000000E+00 0. -1.
         25    2    1    2    0    0 -0.88467262719E+01  0.37713648367E+02  0.27248942415E+03  0.30232006150E+03  0.12508536876E+03 0.  0.
         23    2    1    2    0    0  0.88467262719E+01 -0.37713648367E+02  0.13720448795E+03  0.18324829735E+03  0.11512724755E+03 0.  0.
          5    1    3    3  502    0  0.75917728178E+01  0.61618134710E+01 -0.11741301848E+02  0.15840881568E+02  0.41800000000E+01 0. -1.
         -5    1    3    3    0  502 -0.16438499090E+02  0.31551834896E+02  0.28423072599E+03  0.28647917993E+03  0.41800000000E+01 0. -1.
        -11    1    4    4    0    0  0.26229516897E+02 -0.31059762185E+01  0.14180882611E+03  0.14424762670E+03  0.00000000000E+00 0.  1.
         11    1    4    4    0    0 -0.17382790625E+02 -0.34607672149E+02 -0.46043381611E+01  0.39000670653E+02  0.00000000000E+00 0. -1.
</event>
<event>
 7    1  0.3896452E-010  0.7044921E+02  0.7561462E-02  0.1358572E+00
          1   -1    0    0  501    0  0.00000000000E+00  0.00000000000E+00  0.16169535371E+03  0.16169535371E+03  0.00000000000E+00 0. -1.
         -1   -1    0    0    0  501 -0.00000000000E+00 -0.00000000000E+00 -0.96915625062E+02  0.96915625062E+02  0.00000000000E+00 0.  1.
         25    2    1    2    0    0  0.19937394819E+02 -0.35239934057E+02 -0.44093493723E+02  0.13867388504E+03  0.12508739960E+03 0.  0.
          5    1    3    3  502    0  0.46288983585E+02 -0.51328673696E+02  0.15923531540E+02  0.71051629126E+02  0.41800000000E+01 0. -1.
         -5    1    3    3    0  502 -0.26351588766E+02  0.16088739639E+02 -0.60017025263E+02  0.67622255916E+02  0.41800000000E+01 0. -1.
        -11    1    1    2    0    0 -0.10072848880E+02  0.18655853129E+02  0.91656858670E+02  0.94077005064E+02  0.00000000000E+00 0.  1.
         11    1    1    2    0    0 -0.98645459387E+01  0.16584080928E+02  0.17216363706E+02  0.25860088671E+02  0.00000000000E+00 0. -1.
</event>
<event>
 8    1  0.3896452E-010  0.1235067E+03  0.7561462E-02  0.1237422E+00
          1   -1    0    0  501    0  0.00000000000E+00  0.00000000000E+00  0.92524286397E+03  0.92524286397E+03  0.00000000000E+00 0. -1.
         -1   -1    0    0    0  501 -0.00000000000E+00 -0.00000000000E+00 -0.19139296194E+02  0.19139296194E+02  0.00000000000E+00 0.  1.
         25    2    1    2    0    0 -0.42425584132E+02  0.38383333846E+02  0.51088456230E+03  0.52907850848E+03  0.12509125319E+03 0.  0.
         23    2    1    2    0    0  0.42425584132E+02 -0.38383333846E+02  0.39521900547E+03  0.41530365169E+03  0.11404319495E+03 0.  0.
          5    1    3    3  502    0 -0.78849947715E+02  0.43169790916E+02  0.44023223118E+03  0.44933599330E+03  0.41800000000E+01 0.  1.
         -5    1    3    3    0  502  0.36424363583E+02 -0.47864570705E+01  0.70652331123E+02  0.79742515177E+02  0.41800000000E+01 0.  1.
        -11    1    4    4    0    0 -0.27942310973E+02 -0.41017185461E+02  0.97923749249E+02  0.10978270771E+03  0.00000000000E+00 0.  1.
         11    1    4    4    0    0  0.70367895105E+02  0.26338516153E+01  0.29729525622E+03  0.30552094398E+03  0.00000000000E+00 0. -1.
</event>
<event>
 7    1  0.3896452E-010  0.1442418E+03  0.7561462E-02  0.1207733E+00
         -1   -1    0    0    0  501 -0.00000000000E+00  0.00000000000E+00  0.10983033394E+04  0.10983033394E+04  0.00000000000E+00 0.  1.
          1   -1    0    0  501    0  0.00000000000E+00 -0.00000000000E+00 -0.23970674847E+02  0.23970674847E+02  0.00000000000E+00 0. -1.
         25    2    1    2    0    0 -0.28218393641E+02 -0.11773945169E+03  0.40089193531E+03  0.43705981347E+03  0.12509228805E+03 0.  0.
          5    1    3    3  502    0 -0.68584959650E+02 -0.56639800969E+02  0.29572221300E+03  0.30883824796E+03  0.41800000000E+01 0. -1.
         -5    1    3    3    0  502  0.40366566010E+02 -0.61099650721E+02  0.10516972231E+03  0.12822156551E+03  0.41800000000E+01 0. -1.
        -11    1    1    2    0    0  0.25750070865E+02  0.35738370254E+02  0.26148793946E+03  0.26517209457E+03  0.00000000000E+00 0. -1.
         11    1    1    2    0    0  0.24683227752E+01  0.82001081436E+02  0.41195278979E+03  0.42004210621E+03  0.00000000000E+00 0.  1.
</event>
<event>
 7    1  0.3896452E-010  0.1114478E+03  0.7561462E-02  0.1257912E+00
          2   -1    0    0  501    0  0.00000000000E+00  0.00000000000E+00  0.33939898614E+03  0.33939898614E+03  0.00000000000E+00 0. -1.
         -2   -1    0    0    0  501 -0.00000000000E+00 -0.00000000000E+00 -0.44166136243E+02  0.44166136243E+02  0.00000000000E+00 0.  1.
         25    2    1    2    0    0 -0.21833260518E+02  0.73182733034E+02  0.23528758884E+03  0.27719879103E+03  0.12508603683E+03 0.  0.
          5    1    3    3  502    0  0.12470010114E+02 -0.32428383248E+02  0.65909550898E+02  0.74623337448E+02  0.41800000000E+01 0.  1.
         -5    1    3    3    0  502 -0.34303270632E+02  0.10561111628E+03  0.16937803794E+03  0.20257545358E+03  0.41800000000E+01 0.  1.
        -11    1    1    2    0    0  0.12794449910E+02 -0.55083178387E+02  0.17252721107E+02  0.59122845629E+02  0.00000000000E+00 0.  1.
         11    1    1    2    0    0  0.90388106082E+01 -0.18099554647E+02  0.42692539954E+02  0.47243485724E+02  0.00000000000E+00 0. -1.
</event>
<event>
 7    1  0.3896452E-010  0.2564045E+03  0.7561462E-02  0.1109323E+00
          1   -1    0    0  501    0  0.00000000000E+00  0.00000000000E+00  0.13076192364E+04  0.13076192364E+04  0.00000000000E+00 0. -1.
         -1   -1    0    0    0  501 -0.00000000000E+00 -0.00000000000E+00 -0.65960269204E+02  0.65960269204E+02  0.00000000000E+00 0.  1.
         25    2    1    2    0    0 -0.22935720283E+03  0.29398238727E+02  0.70192532202E+03  0.74954423022E+03  0.12509361466E+03 0.  0.
          5    1    3    3  502    0 -0.13985988346E+03 -0.44313489801E+02  0.40276529346E+03  0.42867449936E+03  0.41800000000E+01 0. -1.
         -5    1    3    3    0  502 -0.89497319366E+02  0.73711728528E+02  0.29916002856E+03  0.32086973086E+03  0.41800000000E+01 0. -1.
        -11    1    1    2    0    0  0.13814938446E+03 -0.64273411715E+02  0.49256150113E+03  0.51559010491E+03  0.00000000000E+00 0. -1.
         11    1    1    2    0    0  0.91207818371E+02  0.34875172988E+02  0.47172144012E+02  0.10844517045E+03  0.00000000000E+00 0.  1.
</event>
<event>
 8    1  0.3896452E-010  0.1103812E+03  0.7561462E-02  0.1259866E+00
         -2   -1    0    0    0  501 -0.00000000000E+00  0.00000000000E+00  0.48702990508E+02  0.48702990508E+02  0.00000000000E+00 0.  1.
          2   -1    0    0  501    0  0.00000000000E+00 -0.00000000000E+00 -0.31439283034E+03  0.31439283034E+03  0.00000000000E+00 0. -1.
         25    2    1    2    0    0  0.80997561090E+01  0.16233206347E+02 -0.97468034476E+02  0.15961479962E+03  0.12509094082E+03 0.  0.
         23    2    1    2    0    0 -0.80997561090E+01 -0.16233206347E+02 -0.16822180536E+03  0.20348102123E+03  0.11303462817E+03 0.  0.
          5    1    3    3  502    0 -0.55710926031E+02  0.23449123361E+02 -0.35221278252E+02  0.70082661959E+02  0.41800000000E+01 0. -1.
         -5    1    3    3    0  502  0.63810682140E+02 -0.72159170145E+01 -0.62246756224E+02  0.89532137660E+02  0.41800000000E+01 0. -1.
        -11    1    4    4    0    0 -0.50936615439E+02 -0.31681745586E+01 -0.14354514058E+03  0.15234757467E+03  0.00000000000E+00 0. -1.
         11    1    4    4    0    0  0.42836859330E+02 -0.13065031788E+02 -0.24676664774E+02  0.51133446562E+02  0.00000000000E+00 0.  1.
</event>
<event>
 8    1  0.3896452E-010  0.1944054E+03  0.7561462E-02  0.1154547E+00
          2   -1    0    0  501    0  0.00000000000E+00  0.00000000000E+00  0.16648443889E+04  0.16648443889E+04  0.00000000000E+00 0. -1.
         -2   -1    0    0    0  501 -0.00000000000E+00 -0.00000000000E+00 -0.28758694966E+02  0.28758694966E+02  0.00000000000E+00 0.  1.
         25    2    1    2    0    0 -0.14254264536E+03 -0.93145532015E+02  0.12117503417E+04  0.12300328369E+04  0.12508954096E+03 0.  0.
         23    2    1    2    0    0  0.14254264536E+03  0.93145532015E+02  0.42433535224E+03  0.46357024702E+03  0.76435507953E+02 0.  0.
          5    1    3    3  502    0 -0.94733484000E+02 -0.12236718957E+03  0.91676797922E+03  0.92974682694E+03  0.41800000000E+01 0.  1.
         -5    1    3    3    0  502 -0.47809161360E+02  0.29221657559E+02  0.29498236249E+03  0.30028600993E+03  0.41800000000E+01 0.  1.
        -11    1    4    4    0    0  0.90423172717E+02  0.86744331823E+02  0.35587501879E+03  0.37729028382E+03  0.00000000000E+00 0. -1.
         11    1    4    4    0    0  0.52119472644E+02  0.64012001915E+01  0.68460333453E+02  0.86279963196E+02  0.00000000000E+00 0.  1.
</event>
<event>
 8    1  0.3896452E-010  0.1603538E+03  0.7561462E-02  0.1188298E+00
         -1   -1    0    0    0  501 -0.00000000000E+00  0.00000000000E+00  0.21416353830E+03  0.21416353830E+03  0.00000000000E+00 0.  1.
          1   -1    0    0  501    0  0.00000000000E+00 -0.00000000000E+00 -0.16027902321E+03  0.16027902321E+03  0.00000000000E+00 0. -1.
         25    2    1    2    0    0  0.74664111174E+02 -0.10012455697E+03  0.12053311105E+03  0.21395363420E+03  0.12509304666E+03 0.  0.
         23    2    1    2    0    0 -0.74664111174E+02  0.10012455697E+03 -0.66648595967E+02  0.16048892731E+03  0.75597645729E+02 0.  0.
          5    1    3    3  502    0  0.70812607483E+02  0.52271117283E+01  0.44413838758E+02  0.83855885594E+02  0.41800000000E+01 0. -1.
         -5    1    3    3    0  502  0.38515036913E+01 -0.10535166869E+03  0.76119272295E+02  0.13009774860E+03  0.41800000000E+01 0. -1.
        -11    1    4    4    0    0 -0.73039421006E+02  0.38756647670E+02 -0.50956444766E+02  0.97125660990E+02  0.00000000000E+00 0. -1.
         11    1    4    4    0    0 -0.16246901685E+01  0.61367909296E+02 -0.15692151200E+02  0.63363266320E+02  0.00000000000E+00 0.  1.
</event>
<event>
 7    1  0.3896452E-010  0.1509929E+03  0.7561462E-02  0.1199258E+00
          1   -1    0    0  501    0  0.00000000000E+00  0.00000000000E+00  0.87095801545E+03  0.87095801545E+03  0.00000000000E+00 0. -1.
         -1   -1    0    0    0  501 -0.00000000000E+00 -0.00000000000E+00 -0.37558734709E+02  0.37558734709E+02  0.00000000000E+00 0.  1.
         25    2    1    2    0    0  0.11702716662E+03 -0.32211758514E+02  0.34072801889E+03  0.38272156686E+03  0.12508900739E+03 0.  0.
          5    1    3    3  502    0 -0.76378082284E+01  0.47484356637E+01  0.15855416928E+03  0.15886403228E+03  0.41800000000E+01 0.  1.
         -5    1    3    3    0  502  0.12466497485E+03 -0.36960194178E+02  0.18217384961E+03  0.22385753458E+03  0.41800000000E+01 0.  1.
        -11    1    1    2    0    0 -0.91885700860E+02  0.70743676972E+02  0.21445480860E+03  0.24380015338E+03  0.00000000000E+00 0.  1.
         11    1    1    2    0    0 -0.25141465760E+02 -0.38531918458E+02  0.27821645325E+03  0.28199502992E+03  0.00000000000E+00 0. -1.
</event>
<event>
 8    1  0.3896452E-010  0.1706357E+03  0.7561462E-02  0.1177187E+00
         -2   -1    0    0    0  501 -0.00000000000E+00  0.00000000000E+00  0.46266219108E+02  0.46266219108E+02  0.00000000000E+00 0.  1.
          2   -1    0    0  501    0  0.00000000000E+00 -0.00000000000E+00 -0.84682647971E+03  0.84682647971E+03  0.00000000000E+00 0. -1.
         25    2    1    2    0    0 -0.12833427456E+03 -0.83165399412E+02 -0.60158425606E+03  0.63319642538E+03  0.12509167153E+03 0.  0.
         23    2    1    2    0    0  0.12833427456E+03  0.83165399412E+02 -0.19897600454E+03  0.25989627343E+03  0.67590331237E+02 0.  0.
          5    1    3    3  502    0 -0.60695989323E+00 -0.38626500512E+02 -0.30166084062E+03  0.30415310307E+03  0.41800000000E+01 0.  1.
         -5    1    3    3    0  502 -0.12772731467E+03 -0.44538898899E+02 -0.29992341544E+03  0.32904332231E+03  0.41800000000E+01 0.  1.
        -11    1    4    4    0    0  0.68790773422E+02  0.52125972197E+01 -0.86952753265E+02  0.11099604938E+03  0.00000000000E+00 0. -1.
         11    1    4    4    0    0  0.59543501141E+02  0.77952802192E+02 -0.11202325127E+03  0.14890022405E+03  0.00000000000E+00 0.  1.
</event>
<event>
 8    1  0.3896452E-010  0.5893014E+02  0.7561462E-02  0.1402377E+00
          4   -1    0    0  501    0  0.00000000000E+00  0.00000000000E+00  0.13877637175E+03  0.13877637175E+03  0.00000000000E+00 0. -1.
         -4   -1    0    0    0  501 -0.00000000000E+00 -0.00000000000E+00 -0.77986024004E+02  0.77986024004E+02  0.00000000000E+00 0.  1.
         25    2    1    2    0    0  0.13557736689E+01 -0.29290495010E+02  0.32458470016E+02  0.13251570069E+03  0.12508831854E+03 0.  0.
         23    2    1    2    0    0 -0.13557736689E+01  0.29290495010E+02  0.28331877732E+02  0.84246695062E+02  0.73722717753E+02 0.  0.
          5    1    3    3  502    0  0.11399348178E+02 -0.35208037924E+01  0.78028322323E+02  0.79045763219E+02  0.41800000000E+01 0. -1.
         -5    1    3    3    0  502 -0.10043574509E+02 -0.25769691217E+02 -0.45569852307E+02  0.53469937476E+02  0.41800000000E+01 0. -1.
        -11    1    4    4    0    0  0.35010103717E+02  0.12304047459E+02  0.23244332119E+02  0.43788079677E+02  0.00000000000E+00 0.  1.
         11    1    4    4    0    0 -0.36365877386E+02  0.16986447551E+02  0.50875456131E+01  0.40458615385E+02  0.00000000000E+00 0. -1.
</event>
<event>
 8    1  0.3896452E-010  0.1227357E+03  0.7561462E-02  0.1238651E+00
         -3   -1    0    0    0  501 -0.00000000000E+00  0.00000000000E+00  0.41245892793E+03  0.41245892793E+03  0.00000000000E+00 0.  1.
          3   -1    0    0  501    0  0.00000000000E+00 -0.00000000000E+00 -0.38792914141E+02  0.38792914141E+02  0.00000000000E+00 0. -1.
         25    2    1    2    0    0 -0.23687013737E+02  0.43189108785E+02  0.21394026876E+03  0.25267405989E+03  0.12508944084E+03 0.  0.
         23    2    1    2    0    0  0.23687013737E+02 -0.43189108785E+02  0.15972574504E+03  0.19857778218E+03  0.10721216448E+03 0.  0.
          5    1    3    3  502    0 -0.14932068522E+01  0.84887589154E+02  0.11551033554E+03  0.14341632569E+03  0.41800000000E+01 0.  1.
         -5    1    3    3    0  502 -0.22193806885E+02 -0.41698480369E+02  0.98429933222E+02  0.10925773420E+03  0.41800000000E+01 0.  1.
        -11    1    4    4    0    0  0.21194839992E+02  0.31690713969E+02  0.28987087110E+02  0.47893358760E+02  0.00000000000E+00 0. -1.
         11    1    4    4    0    0  0.24921737455E+01 -0.74879822755E+02  0.13073865793E+03  0.15068442342E+03  0.00000000000E+00 0.  1.
</event>
<event>
 8    1  0.3896452E-010  0.1010096E+03  0.7561462E-02  0.1278187E+00
          2   -1    0    0  501    0  0.00000000000E+00  0.00000000000E+00  0.36102342417E+03  0.36102342417E+03  0.00000000000E+00 0. -1.
         -2   -1    0    0    0  501 -0.00000000000E+00 -0.00000000000E+00 -0.54989771346E+02  0.54989771346E+02  0.00000000000E+00 0.  1.
         25    2    1    2    0    0  0.28740813508E+02  0.19266388735E+02  0.25733750440E+03  0.28821233405E+03  0.12508609127E+03 0.  0.
         23    2    1    2    0    0 -0.28740813508E+02 -0.19266388735E+02  0.48696148421E+02  0.12780086147E+03  0.11298016297E+03 0.  0.
          5    1    3    3  502    0 -0.61717501666E+01  0.65982286871E+02  0.17543061743E+03  0.18757698850E+03  0.41800000000E+01 0. -1.
         -5    1    3    3    0  502  0.34912563674E+02 -0.46715898136E+02  0.81906886973E+02  0.10063534555E+03  0.41800000000E+01 0. -1.
        -11    1    4    4    0    0 -0.51079235008E+02 -0.19851373867E+02 -0.17824604297E+02  0.57627092688E+02  0.00000000000E+00 0.  1.
         11    1    4    4    0    0  0.22338421500E+02  0.58498513151E+00  0.66520752718E+02  0.70173768780E+02  0.00000000000E+00 0. -1.
</event>
<event>
 8    1  0.3896452E-010  0.1115364E+03  0.7561462E-02  0.1257751E+00
          2   -1    0    0  501    0  0.00000000000E+00  0.00000000000E+00  0.57935324780E+02  0.57935324780E+02  0.00000000000E+00 0. -1.
         -2   -1    0    0    0  501 -0.00000000000E+00 -0.00000000000E+00 -0.26116478294E+03  0.26116478294E+03  0.00000000000E+00 0.  1.
         25    2    1    2    0    0  0.46707562176E+02  0.48512628038E+02 -0.17796950584E+03  0.22771768279E+03  0.12508847510E+03 0.  0.
         23    2    1    2    0    0 -0.46707562176E+02 -0.48512628038E+02 -0.25259952323E+02  0.91382424932E+02  0.56370302036E+02 0.  0.
          5    1    3    3  502    0 -0.19394187599E+01 -0.40074880989E+02 -0.41814006921E+02  0.58100266834E+02  0.41800000000E+01 0. -1.
         -5    1    3    3    0  502  0.48646980936E+02  0.88587509027E+02 -0.13615549892E+03  0.16961741596E+03  0.41800000000E+01 0. -1.
        -11    1    4    4    0    0 -0.44348520992E+02 -0.13313621572E+02 -0.30884705540E+02  0.55658861557E+02  0.00000000000E+00 0.  1.
         11    1    4    4    0    0 -0.23590411841E+01 -0.35199006465E+02  0.56247532172E+01  0.35723563375E+02  0.00000000000E+00 0. -1.
</event>
<event>
 8    1  0.3896452E-010  0.1299705E+03  0.7561462E-02  0.1227500E+00
          1   -1    0    0  501    0  0.00000000000E+00  0.00000000000E+00  0.10103435929E+03  0.10103435929E+03  0.00000000000E+00 0. -1.
         -1   -1    0    0    0  501 -0.00000000000E+00 -0.00000000000E+00 -0.18637823582E+03  0.18637823582E+03  0.00000000000E+00 0.  1.
         25    2    1    2    0    0  0.89945459479E+02 -0.11264159188E+02 -0.54098929332E+02  0.16367845787E+03  0.12508747520E+03 0.  0.
         23    2    1    2    0    0 -0.89945459479E+02  0.11264159188E+02 -0.31244947199E+02  0.12373413724E+03  0.78210121015E+02 0.  0.
          5    1    3    3  502    0 -0.29420120481E+02  0.13113949816E+02 -0.90282332124E+01  0.33712024024E+02  0.41800000000E+01 0. -1.
         -5    1    3    3    0  502  0.11936557996E+03 -0.24378109004E+02 -0.45070696120E+02  0.12996643385E+03  0.41800000000E+01 0. -1.
        -11    1    4    4    0    0 -0.11466867145E+02  0.23484794501E+02 -0.35631678031E+02  0.44188698715E+02  0.00000000000E+00 0.  1.
         11    1    4    4    0    0 -0.78478592334E+02 -0.12220635313E+02  0.43867308311E+01  0.79545438522E+02  0.00000000000E+00 0. -1.
</event>
<event>
 8    1  0.3896452E-010  0.1463369E+03  0.7561462E-02  0.1205048E+00
          1   -1    0    0  501    0  0.00000000000E+00  0.00000000000E+00  0.14319711247E+04  0.14319711247E+04  0.00000000000E+00 0. -1.
         -1   -1    0    0    0  501 -0.00000000000E+00 -0.00000000000E+00 -0.19766596280E+02  0.19766596280E+02  0.00000000000E+00 0.  1.
         25    2    1    2    0    0  0.74185324674E+02  0.77998240876E+02  0.90379068723E+03  0.91873467909E+03  0.12509442937E+03 0.  0.
         23    2    1    2    0    0 -0.74185324674E+02 -0.77998240876E+02  0.50841384120E+03  0.53300304190E+03  0.11840785774E+03 0.  0.
          5    1    3    3  502    0  0.11985951174E+02  0.96104801622E+02  0.62589449734E+03  0.63335707948E+03  0.41800000000E+01 0.  1.
         -5    1    3    3    0  502  0.62199373501E+02 -0.18106560746E+02  0.27789618989E+03  0.28537759961E+03  0.41800000000E+01 0.  1.
        -11    1    4    4    0    0 -0.75248394139E+02 -0.27206863140E+02  0.44305350212E+03  0.45022099014E+03  0.00000000000E+00 0. -1.
         11    1    4    4    0    0  0.10630694648E+01 -0.50791377736E+02  0.65360339080E+02  0.82782051761E+02  0.00000000000E+00 0.  1.
</event>
<event>
 8    1  0.3896452E-010  0.1271656E+03  0.7561462E-02  0.1231723E+00
         -2   -1    0    0    0  501 -0.00000000000E+00  0.00000000000E+00  0.11260010412E+02  0.11260010412E+02  0.00000000000E+00 0.  1.
          2   -1    0    0  501    0  0.00000000000E+00 -0.00000000000E+00 -0.15723781428E+04  0.15723781428E+04  0.00000000000E+00 0. -1.
         25    2    1    2    0    0 -0.57915596393E+02  0.36694796674E+01 -0.10195328530E+04  0.10288159619E+04  0.12508942346E+03 0.  0.
         23    2    1    2    0    0  0.57915596393E+02 -0.36694796674E+01 -0.54158527939E+03  0.55482219125E+03  0.10557162338E+03 0.  0.
          5    1    3    3  502    0 -0.94912102104E+02  0.13760727020E+02 -0.81899309395E+03  0.82459979691E+03  0.41800000000E+01 0. -1.
         -5    1    3    3    0  502  0.36996505711E+02 -0.10091247353E+02 -0.20053975901E+03  0.20421616501E+03  0.41800000000E+01 0. -1.
        -11    1    4    4    0    0  0.34915749937E+02 -0.54068021933E+02 -0.26084070454E+03  0.26866397922E+03  0.00000000000E+00 0. -1.
         11    1    4    4    0    0  0.22999846456E+02  0.50398542266E+02 -0.28074457485E+03  0.28615821202E+03  0.00000000000E+00 0.  1.
</event>
<event>
 8    1  0.4841322E-010  0.8952330E+02  0.7561462E-02  0.1304010E+00
          2   -1    0    0  501    0  0.00000000000E+00  0.00000000000E+00  0.79936769354E+03  0.79936769354E+03  0.00000000000E+00 0. -1.
         -2   -1    0    0    0  501 -0.00000000000E+00 -0.00000000000E+00 -0.13444228997E+02  0.13444228997E+02  0.00000000000E+00 0.  1.
         25    2    1    2    0    0 -0.12508175372E+02  0.72888075064E+01  0.54239689293E+03  0.55682300924E+03  0.12509153846E+03 0.  0.
         23    2    1    2    0    0  0.12508175372E+02 -0.72888075064E+01  0.24352657161E+03  0.25598891330E+03  0.77559986355E+02 0.  0.
          5    1    3    3  502    0 -0.11888900079E+02 -0.49918264313E+02  0.40010257271E+03  0.40340143796E+03  0.41800000000E+01 0.  1.
         -5    1    3    3    0  502 -0.61927529342E+00  0.57207071819E+02  0.14229432022E+03  0.15342157129E+03  0.41800000000E+01 0.  1.
        -11    1    4    4    0    0 -0.21898617940E+02 -0.23537092556E+02  0.55395451242E+02  0.64048420839E+02  0.00000000000E+00 0.  1.
         11    1    4    4    0    0  0.34406793312E+02  0.16248285049E+02  0.18813112037E+03  0.19194049246E+03  0.00000000000E+00 0. -1.
</event>
<event>
 8    1  0.3896452E-010  0.1689831E+03  0.7561462E-02  0.1178913E+00
          1   -1    0    0  501    0  0.00000000000E+00  0.00000000000E+00  0.73510010281E+03  0.73510010281E+03  0.00000000000E+00 0. -1.
         -1   -1    0    0    0  501 -0.00000000000E+00 -0.00000000000E+00 -0.62865124973E+02  0.62865124973E+02  0.00000000000E+00 0.  1.
         25    2    1    2    0    0 -0.13773836107E+03  0.10622993340E+02  0.56210384417E+03  0.59219315309E+03  0.12508914758E+03 0.  0.
         23    2    1    2    0    0  0.13773836107E+03 -0.10622993340E+02  0.11013113367E+03  0.20577207469E+03  0.10549206615E+03 0.  0.
          5    1    3    3  502    0  0.16828482401E+02 -0.89013975373E+01  0.19190348639E+02  0.27352780095E+02  0.41800000000E+01 0.  1.
         -5    1    3    3    0  502 -0.15456684347E+03  0.19524390878E+02  0.54291349553E+03  0.56484037300E+03  0.41800000000E+01 0.  1.
        -11    1    4    4    0    0  0.11830724563E+02 -0.32718825043E+02 -0.31963749781E+01  0.34938579950E+02  0.00000000000E+00 0.  1.
         11    1    4    4    0    0  0.12590763651E+03  0.22095831703E+02  0.11332750865E+03  0.17083349474E+03  0.00000000000E+00 0. -1.
</event>
<event>
 8    1  0.4566720E-010  0.1433221E+03  0.7561462E-02  0.1208927E+00
         -2   -1    0    0    0  501 -0.00000000000E+00  0.00000000000E+00  0.14407158721E+02  0.14407158721E+02  0.00000000000E+00 0.  1.
          2   -1    0    0  501    0  0.00000000000E+00 -0.00000000000E+00 -0.19274817862E+04  0.19274817862E+04  0.00000000000E+00 0. -1.
         25    2    1    2    0    0  0.58786235651E+02 -0.83979122284E+02 -0.15105777381E+04  0.15192108217E+04  0.12509237959E+03 0.  0.
         23    2    1    2    0    0 -0.58786235651E+02  0.83979122284E+02 -0.40249688940E+03  0.42267812324E+03  0.78388362738E+02 0.  0.
          5    1    3    3  502    0  0.45979393694E+02 -0.11715216705E+03 -0.11804896136E+04  0.11871865629E+04  0.41800000000E+01 0.  1.
         -5    1    3    3    0  502  0.12806841957E+02  0.33173044762E+02 -0.33008812449E+03  0.33202425879E+03  0.41800000000E+01 0.  1.
        -11    1    4    4    0    0 -0.67690518346E+02  0.37079015191E+02 -0.29732392919E+03  0.30717808924E+03  0.00000000000E+00 0. -1.
         11    1    4    4    0    0  0.89042826946E+01  0.46900107092E+02 -0.10517296021E+03  0.11550003400E+03  0.00000000000E+00 0.  1.
</event>
<event>
 8    1  0.3896452E-010  0.1104266E+03  0.7561462E-02  0.1259782E+00
          2   -1    0    0  501    0  0.00000000000E+00  0.00000000000E+00  0.41469000694E+03  0.41469000694E+03  0.00000000000E+00 0.  1.
         -2   -1    0    0    0  501 -0.00000000000E+00 -0.00000000000E+00 -0.36237680954E+02  0.36237680954E+02  0.00000000000E+00 0. -1.
         25    2    1    2    0    0  0.26391193839E+02 -0.75769741931E+01  0.17923010100E+03  0.22028829881E+03  0.12509836065E+03 0.  0.
         23    2    1    2    0    0 -0.26391193839E+02  0.75769741931E+01  0.19922222499E+03  0.23063938909E+03  0.11292088920E+03 0.  0.
          5    1    3    3  502    0  0.72838370535E+02 -0.17141732835E+02  0.13918491787E+03  0.15807966659E+03  0.41800000000E+01 0. -1.
         -5    1    3    3    0  502 -0.46447176696E+02  0.95647586415E+01  0.40045183134E+02  0.62208632224E+02  0.41800000000E+01 0. -1.
        -11    1    4    4    0    0 -0.60639726751E+02  0.16628115945E+02  0.59752428136E+02  0.86741128471E+02  0.00000000000E+00 0. -1.
         11    1    4    4    0    0  0.34248532912E+02 -0.90511417514E+01  0.13946979685E+03  0.14389826061E+03  0.00000000000E+00 0.  1.
</event>
<event>
 8    1  0.3896452E-010  0.9407555E+02  0.7561462E-02  0.1293272E+00
         -2   -1    0    0    0  501 -0.00000000000E+00  0.00000000000E+00  0.49506395685E+02  0.49506395685E+02  0.00000000000E+00 0.  1.
          2   -1    0    0  501    0  0.00000000000E+00 -0.00000000000E+00 -0.35796051285E+03  0.35796051285E+03  0.00000000000E+00 0. -1.
         25    2    1    2    0    0 -0.14502043542E+01 -0.49891807479E+02 -0.29412258924E+03  0.32349169186E+03  0.12508989430E+03 0.  0.
         23    2    1    2    0    0  0.14502043542E+01  0.49891807479E+02 -0.14331527924E+02  0.83975216672E+02  0.65993551020E+02 0.  0.
          5    1    3    3  502    0  0.29650228414E+02  0.33212500816E+02 -0.79532861503E+02  0.91242285779E+02  0.41800000000E+01 0.  1.
         -5    1    3    3    0  502 -0.31100432769E+02 -0.83104308295E+02 -0.21458972774E+03  0.23224940608E+03  0.41800000000E+01 0.  1.
        -11    1    4    4    0    0  0.87070590213E+01  0.72020458107E+01  0.23755711288E+02  0.26306200019E+02  0.00000000000E+00 0.  1.
         11    1    4    4    0    0 -0.72568546671E+01  0.42689761669E+02 -0.38087239212E+02  0.57669016653E+02  0.00000000000E+00 0. -1.
</event>
<event>
 7    1  0.3896452E-010  0.1094659E+03  0.7561462E-02  0.1261562E+00
         -1   -1    0    0    0  501 -0.00000000000E+00  0.00000000000E+00  0.27441356661E+02  0.27441356661E+02  0.00000000000E+00 0.  1.
          1   -1    0    0  501    0  0.00000000000E+00 -0.00000000000E+00 -0.50248154551E+03  0.50248154551E+03  0.00000000000E+00 0. -1.
         25    2    1    2    0    0  0.26612722484E+02 -0.70230554894E+02 -0.22796141223E+03  0.27065672966E+03  0.12509233393E+03 0.  0.
          5    1    3    3  502    0 -0.45684997556E+02 -0.57726903317E+01 -0.99485892669E+02  0.10970578014E+03  0.41800000000E+01 0.  1.
         -5    1    3    3    0  502  0.72297720040E+02 -0.64457864563E+02 -0.12847551956E+03  0.16095094952E+03  0.41800000000E+01 0.  1.
        -11    1    1    2    0    0 -0.21650081273E+02  0.43875295041E+02 -0.12408186668E+03  0.13337944809E+03  0.00000000000E+00 0.  1.
         11    1    1    2    0    0 -0.49626412109E+01  0.26355259854E+02 -0.12299690994E+03  0.12588672441E+03  0.00000000000E+00 0. -1.
</event>
<event>
 8    1  0.3896452E-010  0.3045297E+03  0.7561462E-02  0.1082998E+00
          1   -1    0    0  501    0  0.00000000000E+00  0.00000000000E+00  0.10060149372E+04  0.10060149372E+04  0.00000000000E+00 0. -1.
         -1   -1    0    0    0  501 -0.00000000000E+00 -0.00000000000E+00 -0.10301983100E+03  0.10301983100E+03  0.00000000000E+00 0.  1.
         25    2    1    2    0    0 -0.68257556904E+02  0.28714981888E+03  0.32903858605E+03  0.45937766117E+03  0.12508929576E+03 0.  0.
         23    2    1    2    0    0  0.68257556904E+02 -0.28714981888E+03  0.57395652012E+03  0.64965710699E+03  0.74257370827E+02 0.  0.
          5    1    3    3  502    0  0.26196097315E+02  0.10179208001E+03  0.66775484535E+02  0.12459655213E+03  0.41800000000E+01 0.  1.
         -5    1    3    3    0  502 -0.94453654218E+02  0.18535773887E+03  0.26226310151E+03  0.33478110904E+03  0.41800000000E+01 0.  1.
        -11    1    4    4    0    0  0.37296372124E+02 -0.19622268785E+03  0.45391173468E+03  0.49591352621E+03  0.00000000000E+00 0.  1.
         11    1    4    4    0    0  0.30961184779E+02 -0.90927131028E+02  0.12004478544E+03  0.15374358078E+03  0.00000000000E+00 0. -1.
</event>
<event>
 8    1  0.3896452E-010  0.9843431E+02  0.7561462E-02  0.1283623E+00
          1   -1    0    0  501    0  0.00000000000E+00  0.00000000000E+00  0.11153046381E+03  0.11153046381E+03  0.00000000000E+00 0. -1.
         -1   -1    0    0    0  501 -0.00000000000E+00 -0.00000000000E+00 -0.17614550199E+03  0.17614550199E+03  0.00000000000E+00 0.  1.
         25    2    1    2    0    0 -0.21600702383E+02  0.21631053537E+02 -0.10621648972E+03  0.16692335591E+03  0.12508785409E+03 0.  0.
         23    2    1    2    0    0  0.21600702383E+02 -0.21631053537E+02  0.41601451535E+02  0.12075260988E+03  0.10916052035E+03 0.  0.
          5    1    3    3  502    0 -0.14126204695E+02 -0.52204344061E+02 -0.49377626215E+02  0.73351656891E+02  0.41800000000E+01 0. -1.
         -5    1    3    3    0  502 -0.74744976885E+01  0.73835397598E+02 -0.56838863500E+02  0.93571699023E+02  0.41800000000E+01 0. -1.
        -11    1    4    4    0    0  0.45131957572E+01 -0.41696340061E+02 -0.25208076461E+02  0.48932615190E+02  0.00000000000E+00 0.  1.
         11    1    4    4    0    0  0.17087506626E+02  0.20065286525E+02  0.66809527996E+02  0.71819994689E+02  0.00000000000E+00 0. -1.
</event>
<event>
 8    1  0.3896452E-010  0.1620918E+03  0.7561462E-02  0.1186355E+00
         -2   -1    0    0    0  501 -0.00000000000E+00  0.00000000000E+00  0.64975661434E+03  0.64975661434E+03  0.00000000000E+00 0.  1.
          2   -1    0    0  501    0  0.00000000000E+00 -0.00000000000E+00 -0.55169265877E+02  0.55169265877E+02  0.00000000000E+00 0. -1.
         25    2    1    2    0    0  0.13930620124E+03  0.27564554529E+02  0.32575916772E+03  0.37674011402E+03  0.12509218915E+03 0.  0.
         23    2    1    2    0    0 -0.13930620124E+03 -0.27564554529E+02  0.26882818074E+03  0.32818576620E+03  0.12357703672E+03 0.  0.
          5    1    3    3  502    0 -0.13520386699E+01  0.40453329129E+02  0.35872767086E+02  0.54245992152E+02  0.41800000000E+01 0. -1.
         -5    1    3    3    0  502  0.14065823991E+03 -0.12888774600E+02  0.28988640064E+03  0.32249412187E+03  0.41800000000E+01 0. -1.
        -11    1    4    4    0    0 -0.38459186489E+02 -0.44015543905E+01  0.20046649730E+03  0.20416978045E+03  0.00000000000E+00 0.  1.
         11    1    4    4    0    0 -0.10084701475E+03 -0.23163000139E+02  0.68361683440E+02  0.12401598575E+03  0.00000000000E+00 0. -1.
</event>
<event>
 8    1  0.3896452E-010  0.2306685E+03  0.7561462E-02  0.1126170E+00
         -2   -1    0    0    0  501 -0.00000000000E+00  0.00000000000E+00  0.82072733025E+02  0.82072733025E+02  0.00000000000E+00 0. -1.
          2   -1    0    0  501    0  0.00000000000E+00 -0.00000000000E+00 -0.10449331699E+04  0.10449331699E+04  0.00000000000E+00 0.  1.
         25    2    1    2    0    0  0.14930123056E+03 -0.16117738486E+03 -0.19624808590E+03  0.32004615448E+03  0.12508886017E+03 0.  0.
         23    2    1    2    0    0 -0.14930123056E+03  0.16117738486E+03 -0.76661235102E+03  0.80695974849E+03  0.12337152068E+03 0.  0.
          5    1    3    3  502    0  0.14856682970E+03 -0.10897959825E+03 -0.19406173387E+03  0.26763050027E+03  0.41800000000E+01 0. -1.
         -5    1    3    3    0  502  0.73440086289E+00 -0.52197786606E+02 -0.21863520373E+01  0.52415654212E+02  0.41800000000E+01 0. -1.
        -11    1    4    4    0    0 -0.69904820176E+02  0.42274358892E+02 -0.12299696380E+03  0.14765520108E+03  0.00000000000E+00 0. -1.
         11    1    4    4    0    0 -0.79396410388E+02  0.11890302597E+03 -0.64361538722E+03  0.65930454741E+03  0.00000000000E+00 0.  1.
</event>
<event>
 8    1  0.3896452E-010  0.1965530E+03  0.7561462E-02  0.1152680E+00
          1   -1    0    0  501    0  0.00000000000E+00  0.00000000000E+00  0.10525046775E+04  0.10525046775E+04  0.00000000000E+00 0. -1.
         -1   -1    0    0    0  501 -0.00000000000E+00 -0.00000000000E+00 -0.46521392200E+02  0.46521392200E+02  0.00000000000E+00 0.  1.
         25    2    1    2    0    0  0.16894835105E+03  0.50968390859E+02  0.65228199066E+03  0.68721222770E+03  0.12509008104E+03 0.  0.
         23    2    1    2    0    0 -0.16894835105E+03 -0.50968390859E+02  0.35370129460E+03  0.41181384195E+03  0.11551931629E+03 0.  0.
          5    1    3    3  502    0 -0.14901447058E+02  0.26472327316E+02  0.84753513585E+02  0.90130281831E+02  0.41800000000E+01 0.  1.
         -5    1    3    3    0  502  0.18384979811E+03  0.24496063543E+02  0.56752847707E+03  0.59708194587E+03  0.41800000000E+01 0.  1.
        -11    1    4    4    0    0 -0.72252227679E+02 -0.15296444252E+02  0.45284941337E+02  0.86631931315E+02  0.00000000000E+00 0.  1.
         11    1    4    4    0    0 -0.96696123370E+02 -0.35671946607E+02  0.30841635326E+03  0.32518191064E+03  0.00000000000E+00 0. -1.
</event>
<event>
 8    1  0.3896452E-010  0.1851959E+03  0.7561462E-02  0.1162867E+00
         -2   -1    0    0    0  501 -0.00000000000E+00  0.00000000000E+00  0.34933147743E+02  0.34933147743E+02  0.00000000000E+00 0.  1.
          2   -1    0    0  501    0  0.00000000000E+00 -0.00000000000E+00 -0.14031399256E+04  0.14031399256E+04  0.00000000000E+00 0. -1.
         25    2    1    2    0    0 -0.17426000963E+03  0.14632254705E+02 -0.10104686908E+04  0.10330905152E+04  0.12509350037E+03 0.  0.
         23    2    1    2    0    0  0.17426000963E+03 -0.14632254705E+02 -0.35773808714E+03  0.40498255815E+03  0.73849032335E+02 0.  0.
          5    1    3    3  502    0 -0.43652626579E+02  0.42984543934E+02 -0.55537837241E+03  0.55876276878E+03  0.41800000000E+01 0. -1.
         -5    1    3    3    0  502 -0.13060738305E+03 -0.28352289229E+02 -0.45509031834E+03  0.47432774646E+03  0.41800000000E+01 0. -1.
        -11    1    4    4    0    0  0.15504906646E+02  0.20589452374E+01 -0.29220621582E+01  0.15911625714E+02  0.00000000000E+00 0.  1.
         11    1    4    4    0    0  0.15875510299E+03 -0.16691199942E+02 -0.35481602498E+03  0.38907093243E+03  0.00000000000E+00 0. -1.
</event>
<event>
 8    1  0.3896452E-010  0.2313729E+03  0.7561462E-02  0.1125677E+00
          2   -1    0    0  501    0  0.00000000000E+00  0.00000000000E+00  0.26502710292E+03  0.26502710292E+03  0.00000000000E+00 0. -1.
         -2   -1    0    0    0  501 -0.00000000000E+00 -0.00000000000E+00 -0.23612955278E+03  0.23612955278E+03  0.00000000000E+00 0.  1.
         25    2    1    2    0    0 -0.19260586347E+03  0.95870575018E+02 -0.37172701584E+02  0.25162969662E+03  0.12509000231E+03 0.  0.
         23    2    1    2    0    0  0.19260586347E+03 -0.95870575018E+02  0.66070251723E+02  0.24952695909E+03  0.10775082065E+03 0.  0.
          5    1    3    3  502    0 -0.82554277041E+02  0.11628208491E+02 -0.70229220927E+02  0.10908730340E+03  0.41800000000E+01 0. -1.
         -5    1    3    3    0  502 -0.11005158643E+03  0.84242366528E+02  0.33056519343E+02  0.14254239322E+03  0.41800000000E+01 0. -1.
        -11    1    4    4    0    0  0.84484388338E+02  0.14940245068E+02  0.22751585266E+02  0.88760675007E+02  0.00000000000E+00 0.  1.
         11    1    4    4    0    0  0.10812147513E+03 -0.11081082009E+03  0.43318666457E+02  0.16076628408E+03  0.00000000000E+00 0. -1.
</event>
<event>
 8    1  0.3896452E-010  0.8901611E+02  0.7561462E-02  0.1305252E+00
         -1   -1    0    0    0  501 -0.00000000000E+00  0.00000000000E+00  0.24874890075E+03  0.24874890075E+03  0.00000000000E+00 0.  1.
          1   -1    0    0  501    0  0.00000000000E+00 -0.00000000000E+00 -0.77297871087E+02  0.77297871087E+02  0.00000000000E+00 0. -1.
         25    2    1    2    0    0  0.28664809303E+02  0.54527754961E+02  0.14190528036E+02  0.14015807998E+03  0.12509184203E+03 0.  0.
         23    2    1    2    0    0 -0.28664809303E+02 -0.54527754961E+02  0.15726050163E+03  0.18588869186E+03  0.77645302732E+02 0.  0.
          5    1    3    3  502    0  0.34572472891E+02  0.12599085371E+02 -0.50564229082E+02  0.62675405835E+02  0.41800000000E+01 0. -1.
         -5    1    3    3    0  502 -0.59076635878E+01  0.41928669590E+02  0.64754757118E+02  0.77482674141E+02  0.41800000000E+01 0. -1.
        -11    1    4    4    0    0 -0.55187158354E+02 -0.40445592747E+02  0.11878931728E+03  0.13708526660E+03  0.00000000000E+00 0.  1.
         11    1    4    4    0    0  0.26522349051E+02 -0.14082162214E+02  0.38471184350E+02  0.48803425260E+02  0.00000000000E+00 0. -1.
</event>
<event>
 7    1  0.3896452E-010  0.8659317E+02  0.7561462E-02  0.1311318E+00
         -2   -1    0    0    0  501 -0.00000000000E+00  0.00000000000E+00  0.13728729563E+03  0.13728729563E+03  0.00000000000E+00 0.  1.
          2   -1    0    0  501    0  0.00000000000E+00 -0.00000000000E+00 -0.92214711549E+02  0.92214711549E+02  0.00000000000E+00 0. -1.
         25    2    1    2    0    0  0.56462311875E+02  0.18186543704E+02  0.70318176591E+00  0.13844181633E+03  0.12508756537E+03 0.  0.
          5    1    3    3  502    0  0.56790490110E+02 -0.27425130800E+02  0.42718390520E+02  0.76286505065E+02  0.41800000000E+01 0.  1.
         -5    1    3    3    0  502 -0.32817823574E+00  0.45611674504E+02 -0.42015208754E+02  0.62155311267E+02  0.41800000000E+01 0.  1.
        -11    1    1    2    0    0 -0.32193807492E+02 -0.22833070306E+02  0.51923936832E+02  0.65221818102E+02  0.00000000000E+00 0.  1.
         11    1    1    2    0    0 -0.24268504383E+02  0.46465266017E+01 -0.75545345166E+01  0.25838372747E+02  0.00000000000E+00 0. -1.
</event>
<event>
 8    1  0.3896452E-010  0.1042753E+03  0.7561462E-02  0.1271554E+00
         -1   -1    0    0    0  501 -0.00000000000E+00  0.00000000000E+00  0.62761004901E+02  0.62761004901E+02  0.00000000000E+00 0.  1.
          1   -1    0    0  501    0  0.00000000000E+00 -0.00000000000E+00 -0.23082951829E+03  0.23082951829E+03  0.00000000000E+00 0. -1.
         25    2    1    2    0    0 -0.43096602852E+02 -0.47061919550E+02 -0.10761171766E+03  0.17691393629E+03  0.12508444197E+03 0.  0.
         23    2    1    2    0    0  0.43096602852E+02  0.47061919550E+02 -0.60456795726E+02  0.11667658691E+03  0.76721967740E+02 0.  0.
          5    1    3    3  502    0  0.52308204032E+01 -0.60764451016E+02 -0.34886950212E+01  0.61231718761E+02  0.41800000000E+01 0.  1.
         -5    1    3    3    0  502 -0.48327423256E+02  0.13702531466E+02 -0.10412302264E+03  0.11568221752E+03  0.41800000000E+01 0.  1.
        -11    1    4    4    0    0 -0.20562243413E+02  0.16670281129E+02 -0.29517841682E+02  0.39648544799E+02  0.00000000000E+00 0.  1.
         11    1    4    4    0    0  0.63658846266E+02  0.30391638421E+02 -0.30938954044E+02  0.77028042109E+02  0.00000000000E+00 0. -1.
</event>
<event>
 7    1  0.3896452E-010  0.2058879E+03  0.7561462E-02  0.1144864E+00
         -1   -1    0    0    0  501 -0.00000000000E+00  0.00000000000E+00  0.33040307236E+03  0.33040307236E+03  0.00000000000E+00 0.  1.
          1   -1    0    0  501    0  0.00000000000E+00 -0.00000000000E+00 -0.19338178484E+03  0.19338178484E+03  0.00000000000E+00 0. -1.
         25    2    1    2    0    0 -0.10445806975E+02 -0.16736393926E+03  0.20319445498E+03  0.29164330725E+03  0.12509208240E+03 0.  0.
          5    1    3    3  502    0 -0.38222199272E+02 -0.29193903424E+02  0.11654849087E+03  0.12615166919E+03  0.41800000000E+01 0.  1.
         -5    1    3    3    0  502  0.27776392297E+02 -0.13817003583E+03  0.86645964112E+02  0.16549163806E+03  0.41800000000E+01 0.  1.
        -11    1    1    2    0    0  0.78527376410E+02  0.88474902700E+02 -0.36163774270E+02  0.12370196370E+03  0.00000000000E+00 0. -1.
         11    1    1    2    0    0 -0.68081569435E+02  0.78889036557E+02 -0.30009393196E+02  0.10843958625E+03  0.00000000000E+00 0.  1.
</event>
<event>
 8    1  0.3896452E-010  0.1321623E+03  0.7561462E-02  0.1224282E+00
          1   -1    0    0  501    0  0.00000000000E+00  0.00000000000E+00  0.42013608761E+03  0.42013608761E+03  0.00000000000E+00 0. -1.
         -1   -1    0    0    0  501 -0.00000000000E+00 -0.00000000000E+00 -0.55884652858E+02  0.55884652858E+02  0.00000000000E+00 0.  1.
         25    2    1    2    0    0  0.10451261635E+03  0.32556755480E+02  0.24840297642E+03  0.29888692572E+03  0.12508607585E+03 0.  0.
         23    2    1    2    0    0 -0.10451261635E+03 -0.32556755480E+02  0.11584845834E+03  0.17713381475E+03  0.77283204674E+02 0.  0.
          5    1    3    3  502    0  0.72424208953E+02  0.57013583316E+02  0.24046011933E+03  0.25755456920E+03  0.41800000000E+01 0. -1.
         -5    1    3    3    0  502  0.32088407396E+02 -0.24456827837E+02  0.79428570821E+01  0.41332356522E+02  0.41800000000E+01 0. -1.
        -11    1    4    4    0    0 -0.10336590944E+03 -0.49434384861E+02  0.11101878447E+03  0.15954134307E+03  0.00000000000E+00 0. -1.
         11    1    4    4    0    0 -0.11467069057E+01  0.16877629381E+02  0.48296738651E+01  0.17592471682E+02  0.00000000000E+00 0.  1.
</event>
<event>
 7    1  0.3896452E-010  0.8344182E+02  0.7561462E-02  0.1319558E+00
          2   -1    0    0  501    0  0.00000000000E+00  0.00000000000E+00  0.71850690826E+02  0.71850690826E+02  0.00000000000E+00 0.  1.
         -2   -1    0    0    0  501 -0.00000000000E+00 -0.00000000000E+00 -0.11770626604E+03  0.11770626604E+03  0.00000000000E+00 0. -1.
         25    2    1    2    0    0  0.51186029526E+01 -0.20353094489E+01 -0.11348302477E+02  0.12571235575E+03  0.12507785511E+03 0.  0.
          5    1    3    3  502    0  0.57607419845E+02  0.15038530696E+02 -0.30643894353E+02  0.67091675250E+02  0.41800000000E+01 0.  1.
         -5    1    3    3    0  502 -0.52488816893E+02 -0.17073840145E+02  0.19295591876E+02  0.58620680497E+02  0.41800000000E+01 0.  1.
        -11    1    1    2    0    0 -0.16738315140E+02 -0.20515021390E+02 -0.92482452749E+01  0.28045807833E+02  0.00000000000E+00 0.  1.
         11    1    1    2    0    0  0.11619712187E+02  0.22550330839E+02 -0.25259027458E+02  0.35798793281E+02  0.00000000000E+00 0. -1.
</event>
<event>
 8    1  0.3896452E-010  0.9793371E+02  0.7561462E-02  0.1284702E+00
          3   -1    0    0  501    0  0.00000000000E+00  0.00000000000E+00  0.92186106413E+03  0.92186106413E+03  0.00000000000E+00 0. -1.
         -3   -1    0    0    0  501 -0.00000000000E+00 -0.00000000000E+00 -0.13142899254E+02  0.13142899254E+02  0.00000000000E+00 0.  1.
         25    2    1    2    0    0 -0.45024163383E+02  0.50792873492E+01  0.50567204634E+03  0.52288085516E+03  0.12508875164E+03 0.  0.
         23    2    1    2    0    0  0.45024163383E+02 -0.50792873492E+01  0.40304611853E+03  0.41212310823E+03  0.73118453367E+02 0.  0.
          5    1    3    3  502    0 -0.71833768114E+02  0.25021360351E+02  0.45928404650E+03  0.46555930501E+03  0.41800000000E+01 0. -1.
         -5    1    3    3    0  502  0.26809604731E+02 -0.19942073001E+02  0.46387999848E+02  0.57321550148E+02  0.41800000000E+01 0. -1.
        -11    1    4    4    0    0  0.43451181187E+02 -0.35157290772E+02  0.26438409972E+03  0.27022766777E+03  0.00000000000E+00 0.  1.
         11    1    4    4    0    0  0.15729821959E+01  0.30078003423E+02  0.13866201881E+03  0.14189544046E+03  0.00000000000E+00 0. -1.
</event>
<event>
 8    1  0.3896452E-010  0.1684282E+03  0.7561462E-02  0.1179497E+00
          2   -1    0    0  501    0  0.00000000000E+00  0.00000000000E+00  0.26630183012E+03  0.26630183012E+03  0.00000000000E+00 0.  1.
         -2   -1    0    0    0  501 -0.00000000000E+00 -0.00000000000E+00 -0.13833926930E+03  0.13833926930E+03  0.00000000000E+00 0. -1.
         25    2    1    2    0    0  0.96386860128E+02  0.83758540853E+02  0.14956872780E+03  0.23307544356E+03  0.12508972013E+03 0.  0.
         23    2    1    2    0    0 -0.96386860128E+02 -0.83758540853E+02 -0.21606166976E+02  0.17156565586E+03  0.11252567639E+03 0.  0.
          5    1    3    3  502    0  0.43248188246E+02  0.10393351461E+03  0.61975945918E+02  0.12857321462E+03  0.41800000000E+01 0. -1.
         -5    1    3    3    0  502  0.53138671882E+02 -0.20174973753E+02  0.87592781882E+02  0.10450222894E+03  0.41800000000E+01 0. -1.
        -11    1    4    4    0    0 -0.41421429477E+02 -0.10136098018E+03 -0.29273531214E+02  0.11334338425E+03  0.00000000000E+00 0. -1.
         11    1    4    4    0    0 -0.54965430651E+02  0.17602439330E+02  0.76673642375E+01  0.58222271609E+02  0.00000000000E+00 0.  1.
</event>
<event>
 7    1  0.3896452E-010  0.1678313E+03  0.7561462E-02  0.1180129E+00
         -2   -1    0    0    0  501 -0.00000000000E+00  0.00000000000E+00  0.49601449580E+03  0.49601449580E+03  0.00000000000E+00 0. -1.
          2   -1    0    0  501    0  0.00000000000E+00 -0.00000000000E+00 -0.75538535209E+02  0.75538535209E+02  0.00000000000E+00 0.  1.
         25    2    1    2    0    0  0.11496601275E+03  0.57362682101E+02  0.26536810028E+03  0.32027399934E+03  0.12509014599E+03 0.  0.
          5    1    3    3  502    0  0.50723878158E+02 -0.31626092798E+02  0.14727953004E+03  0.15900268529E+03  0.41800000000E+01 0.  1.
         -5    1    3    3    0  502  0.64242134592E+02  0.88988774899E+02  0.11808857024E+03  0.16127131405E+03  0.41800000000E+01 0.  1.
        -11    1    1    2    0    0 -0.12658525599E+03 -0.21741792004E+02  0.46843408194E+02  0.13671443758E+03  0.00000000000E+00 0.  1.
         11    1    1    2    0    0  0.11619243235E+02 -0.35620890098E+02  0.10826445212E+03  0.11456459408E+03  0.00000000000E+00 0. -1.
</event>
<event>
 7    1  0.3896452E-010  0.1743115E+03  0.7561462E-02  0.1173425E+00
         -1   -1    0    0    0  501 -0.00000000000E+00  0.00000000000E+00  0.20060268688E+03  0.20060268688E+03  0.00000000000E+00 0.  1.
          1   -1    0    0  501    0  0.00000000000E+00 -0.00000000000E+00 -0.19383741736E+03  0.19383741736E+03  0.00000000000E+00 0. -1.
         25    2    1    2    0    0 -0.59528109897E+01  0.13617091651E+03  0.67264755510E+02  0.19685014644E+03  0.12508988111E+03 0.  0.
          5    1    3    3  502    0 -0.32219927873E+02  0.13357956662E+03  0.15179651906E+02  0.13830950294E+03  0.41800000000E+01 0.  1.
         -5    1    3    3    0  502  0.26267116884E+02  0.25913498877E+01  0.52085103604E+02  0.58540643497E+02  0.41800000000E+01 0.  1.
        -11    1    1    2    0    0  0.65133110478E+02 -0.68341149209E+02 -0.11515052027E+02  0.95107471730E+02  0.00000000000E+00 0. -1.
         11    1    1    2    0    0 -0.59180299488E+02 -0.67829767302E+02 -0.48984433967E+02  0.10248248607E+03  0.00000000000E+00 0.  1.
</event>
<event>
 8    1  0.3896452E-010  0.1017163E+03  0.7561462E-02  0.1276728E+00
         -1   -1    0    0    0  501 -0.00000000000E+00  0.00000000000E+00  0.56697379691E+02  0.56697379691E+02  0.00000000000E+00 0.  1.
          1   -1    0    0  501    0  0.00000000000E+00 -0.00000000000E+00 -0.19162996083E+03  0.19162996083E+03  0.00000000000E+00 0. -1.
         25    2    1    2    0    0  0.19624959678E+02 -0.75938745085E+01 -0.73435890058E+02  0.14656684000E+03  0.12508478191E+03 0.  0.
         23    2    1    2    0    0 -0.19624959678E+02  0.75938745085E+01 -0.61496691084E+02  0.10176050053E+03  0.78297831903E+02 0.  0.
          5    1    3    3  502    0 -0.29848218736E+02  0.44257111382E+02 -0.20347269868E+02  0.57280815817E+02  0.41800000000E+01 0.  1.
         -5    1    3    3    0  502  0.49473178414E+02 -0.51850985890E+02 -0.53088620190E+02  0.89286024180E+02  0.41800000000E+01 0.  1.
        -11    1    4    4    0    0 -0.47378727765E+02  0.14407789629E+02 -0.25201389591E+02  0.55564721577E+02  0.00000000000E+00 0. -1.
         11    1    4    4    0    0  0.27753768087E+02 -0.68139151204E+01 -0.36295301493E+02  0.46195778950E+02  0.00000000000E+00 0.  1.
</event>
<event>
 8    1  0.3896452E-010  0.9590587E+02  0.7561462E-02  0.1289149E+00
         -2   -1    0    0    0  501 -0.00000000000E+00  0.00000000000E+00  0.10131757072E+03  0.10131757072E+03  0.00000000000E+00 0. -1.
          2   -1    0    0  501    0  0.00000000000E+00 -0.00000000000E+00 -0.13170231377E+03  0.13170231377E+03  0.00000000000E+00 0.  1.
         25    2    1    2    0    0 -0.19086909785E+02  0.35419531749E+02  0.34463906933E+02  0.13584768218E+03  0.12509188031E+03 0.  0.
         23    2    1    2    0    0  0.19086909785E+02 -0.35419531749E+02 -0.64848649981E+02  0.97172202307E+02  0.60151775888E+02 0.  0.
          5    1    3    3  502    0  0.35960005420E+02 -0.20162804777E+02 -0.13988183066E+02  0.43735595935E+02  0.41800000000E+01 0. -1.
         -5    1    3    3    0  502 -0.55046915206E+02  0.55582336526E+02  0.48452089999E+02  0.92112086246E+02  0.41800000000E+01 0. -1.
        -11    1    4    4    0    0 -0.18206100836E+02 -0.28928267343E+02 -0.35439220870E+02  0.49236623920E+02  0.00000000000E+00 0.  1.
         11    1    4    4    0    0  0.37293010621E+02 -0.64912644063E+01 -0.29409429110E+02  0.47935578388E+02  0.00000000000E+00 0. -1.
</event>
<event>
 8    1  0.3896452E-010  0.5664870E+02  0.7561462E-02  0.1412459E+00
         -3   -1    0    0    0  501 -0.00000000000E+00  0.00000000000E+00  0.94252416273E+01  0.94252416273E+01  0.00000000000E+00 0.  1.
          3   -1    0    0  501    0  0.00000000000E+00 -0.00000000000E+00 -0.10713994770E+04  0.10713994770E+04  0.00000000000E+00 0. -1.
         25    2    1    2    0    0  0.77496653222E+00  0.12934032663E+01 -0.69213225909E+03  0.70334768802E+03  0.12509449507E+03 0.  0.
         23    2    1    2    0    0 -0.77496653222E+00 -0.12934032663E+01 -0.36984197627E+03  0.37747703060E+03  0.75521836271E+02 0.  0.
          5    1    3    3  502    0  0.39915016964E+01 -0.18058717355E+02 -0.67923814940E+03  0.67950274860E+03  0.41800000000E+01 0. -1.
         -5    1    3    3    0  502 -0.32165351642E+01  0.19352120621E+02 -0.12894109695E+02  0.23844939417E+02  0.41800000000E+01 0. -1.
        -11    1    4    4    0    0  0.24821450270E+00  0.36485120595E+02 -0.14747174619E+03  0.15191820680E+03  0.00000000000E+00 0. -1.
         11    1    4    4    0    0 -0.10231810349E+01 -0.37778523861E+02 -0.22237023008E+03  0.22555882379E+03  0.00000000000E+00 0.  1.
</event>
<event>
 8    1  0.3896452E-010  0.1033088E+03  0.7561462E-02  0.1273488E+00
         -1   -1    0    0    0  501 -0.00000000000E+00  0.00000000000E+00  0.29287911502E+02  0.29287911502E+02  0.00000000000E+00 0.  1.
          1   -1    0    0  501    0  0.00000000000E+00 -0.00000000000E+00 -0.49664119040E+03  0.49664119040E+03  0.00000000000E+00 0. -1.
         25    2    1    2    0    0  0.59072684134E+02 -0.46538108046E+02 -0.31400591597E+03  0.34626965260E+03  0.12509028553E+03 0.  0.
         23    2    1    2    0    0 -0.59072684134E+02  0.46538108046E+02 -0.15334736293E+03  0.17965944930E+03  0.55738016610E+02 0.  0.
          5    1    3    3  502    0 -0.11940110906E+02 -0.41149198393E+02 -0.23864861069E+03  0.24250042178E+03  0.41800000000E+01 0.  1.
         -5    1    3    3    0  502  0.71012795040E+02 -0.53889096538E+01 -0.75357305283E+02  0.10376923083E+03  0.41800000000E+01 0.  1.
        -11    1    4    4    0    0 -0.22791764273E+02 -0.10129381531E+02 -0.56194550892E+02  0.61480862379E+02  0.00000000000E+00 0.  1.
         11    1    4    4    0    0 -0.36280919861E+02  0.56667489577E+02 -0.97152812034E+02  0.11817858692E+03  0.00000000000E+00 0. -1.
</event>
<event>
 8    1  0.3896452E-010  0.1105627E+03  0.7561462E-02  0.1259531E+00
          2   -1    0    0  501    0  0.00000000000E+00  0.00000000000E+00  0.84714059845E+03  0.84714059845E+03  0.00000000000E+00 0. -1.
         -2   -1    0    0    0  501 -0.00000000000E+00 -0.00000000000E+00 -0.16237656478E+02  0.16237656478E+02  0.00000000000E+00 0.  1.
         25    2    1    2    0    0 -0.88721490003E+01 -0.15966417422E+02  0.40474879013E+03  0.42403151869E+03  0.12508998446E+03 0.  0.
         23    2    1    2    0    0  0.88721490003E+01  0.15966417422E+02  0.42615415184E+03  0.43934673624E+03  0.10528319906E+03 0.  0.
          5    1    3    3  502    0 -0.60976191659E+02 -0.11915135155E+02  0.12779164909E+03  0.14215570468E+03  0.41800000000E+01 0. -1.
         -5    1    3    3    0  502  0.52104042659E+02 -0.40512822669E+01  0.27695714104E+03  0.28187581401E+03  0.41800000000E+01 0. -1.
        -11    1    4    4    0    0  0.44178341888E+02  0.43236947182E+02  0.22784437972E+03  0.23608096251E+03  0.00000000000E+00 0. -1.
         11    1    4    4    0    0 -0.35306192888E+02 -0.27270529760E+02  0.19830977212E+03  0.20326577373E+03  0.00000000000E+00 0.  1.
</event>
<event>
 8    1  0.3896452E-010  0.3136958E+03  0.7561462E-02  0.1078588E+00
          1   -1    0    0  501    0  0.00000000000E+00  0.00000000000E+00  0.11317036540E+04  0.11317036540E+04  0.00000000000E+00 0. -1.
         -1   -1    0    0    0  501 -0.00000000000E+00 -0.00000000000E+00 -0.95715603993E+02  0.95715603993E+02  0.00000000000E+00 0.  1.
         25    2    1    2    0    0  0.25441467808E+03 -0.16730121602E+03  0.53438517175E+03  0.62764110525E+03  0.12509724181E+03 0.  0.
         23    2    1    2    0    0 -0.25441467808E+03  0.16730121602E+03  0.50160287822E+03  0.59977815270E+03  0.12414451142E+03 0.  0.
          5    1    3    3  502    0  0.26820314817E+02  0.13895393950E+01  0.13655370639E+03  0.13923234982E+03  0.41800000000E+01 0. -1.
         -5    1    3    3    0  502  0.22759436327E+03 -0.16869075542E+03  0.39783146535E+03  0.48840875543E+03  0.41800000000E+01 0. -1.
        -11    1    4    4    0    0 -0.24755012056E+03  0.13125846731E+03  0.48360046023E+03  0.55890898415E+03  0.00000000000E+00 0. -1.
         11    1    4    4    0    0 -0.68645575294E+01  0.36042748709E+02  0.18002417981E+02  0.40869168547E+02  0.00000000000E+00 0.  1.
</event>
<event>
 8    1  0.3896452E-010  0.1047292E+03  0.7561462E-02  0.1270654E+00
         -1   -1    0    0    0  501 -0.00000000000E+00  0.00000000000E+00  0.62385181745E+02  0.62385181745E+02  0.00000000000E+00 0.  1.
          1   -1    0    0  501    0  0.00000000000E+00 -0.00000000000E+00 -0.26584053449E+03  0.26584053449E+03  0.00000000000E+00 0. -1.
         25    2    1    2    0    0  0.32035658250E+02 -0.45817891620E+01 -0.85092606162E+02  0.15470215332E+03  0.12507888881E+03 0.  0.
         23    2    1    2    0    0 -0.32035658250E+02  0.45817891620E+01 -0.11836274659E+03  0.17352356292E+03  0.12269234254E+03 0.  0.
          5    1    3    3  502    0 -0.32369137122E+02 -0.43079900946E+02 -0.35553549114E+02  0.64692860179E+02  0.41800000000E+01 0.  1.
         -5    1    3    3    0  502  0.64404795372E+02  0.38498111784E+02 -0.49539057048E+02  0.90009293137E+02  0.41800000000E+01 0.  1.
        -11    1    4    4    0    0  0.22384581711E+02  0.11899478570E+02  0.14890246686E+02  0.29400451272E+02  0.00000000000E+00 0.  1.
         11    1    4    4    0    0 -0.54420239961E+02 -0.73176894084E+01 -0.13325299327E+03  0.14412311165E+03  0.00000000000E+00 0. -1.
</event>
<event>
 8    1  0.3896452E-010  0.1257750E+03  0.7561462E-02  0.1233863E+00
          2   -1    0    0  501    0  0.00000000000E+00  0.00000000000E+00  0.20714128691E+03  0.20714128691E+03  0.00000000000E+00 0. -1.
         -2   -1    0    0    0  501 -0.00000000000E+00 -0.00000000000E+00 -0.11222891354E+03  0.11222891354E+03  0.00000000000E+00 0.  1.
         25    2    1    2    0    0 -0.93920192539E+02  0.73004088847E+02  0.42534682309E+02  0.17777065265E+03  0.12507040493E+03 0.  0.
         23    2    1    2    0    0  0.93920192539E+02 -0.73004088847E+02  0.52377691059E+02  0.14159954780E+03  0.56181935357E+02 0.  0.
          5    1    3    3  502    0 -0.87639099798E+02  0.82193452343E+02 -0.13048329544E+02  0.12093017293E+03  0.41800000000E+01 0. -1.
         -5    1    3    3    0  502 -0.62810927413E+01 -0.91893634965E+01  0.55583011853E+02  0.56840479714E+02  0.41800000000E+01 0. -1.
        -11    1    4    4    0    0  0.27847775227E+02 -0.15657950830E+02 -0.10756798884E+02  0.33710217020E+02  0.00000000000E+00 0.  1.
         11    1    4    4    0    0  0.66072417313E+02 -0.57346138017E+02  0.63134489944E+02  0.10788933078E+03  0.00000000000E+00 0. -1.
</event>
<event>
 7    1  0.3896452E-010  0.1207773E+03  0.7561462E-02  0.1241820E+00
         -2   -1    0    0    0  501 -0.00000000000E+00  0.00000000000E+00  0.43912968122E+02  0.43912968122E+02  0.00000000000E+00 0.  1.
          2   -1    0    0  501    0  0.00000000000E+00 -0.00000000000E+00 -0.51879860133E+03  0.51879860133E+03  0.00000000000E+00 0. -1.
         25    2    1    2    0    0 -0.61220160880E+02 -0.27190479929E+02 -0.15399260513E+03  0.20939940752E+03  0.12508860514E+03 0.  0.
          5    1    3    3  502    0  0.28680854237E+02 -0.35773868966E+01 -0.94623491031E+02  0.99027604998E+02  0.41800000000E+01 0. -1.
         -5    1    3    3    0  502 -0.89901015117E+02 -0.23613093033E+02 -0.59369114103E+02  0.11037180252E+03  0.41800000000E+01 0. -1.
        -11    1    1    2    0    0  0.13405359826E+02 -0.36949004769E+02 -0.22510316944E+03  0.22850901408E+03  0.00000000000E+00 0. -1.
         11    1    1    2    0    0  0.47814801055E+02  0.64139484698E+02 -0.95789858641E+02  0.12480314786E+03  0.00000000000E+00 0.  1.
</event>
<event>
 8    1  0.3896452E-010  0.9259962E+02  0.7561462E-02  0.1296676E+00
         -1   -1    0    0    0  501 -0.00000000000E+00  0.00000000000E+00  0.10050541498E+03  0.10050541498E+03  0.00000000000E+00 0.  1.
          1   -1    0    0  501    0  0.00000000000E+00 -0.00000000000E+00 -0.12209122141E+03  0.12209122141E+03  0.00000000000E+00 0. -1.
         25    2    1    2    0    0  0.14710964970E+02  0.23168880452E+01  0.36790442108E+02  0.13123302739E+03  0.12508713118E+03 0.  0.
         23    2    1    2    0    0 -0.14710964970E+02 -0.23168880452E+01 -0.58376248535E+02  0.91363609001E+02  0.68685822380E+02 0.  0.
          5    1    3    3  502    0  0.15955267412E+02  0.57765023135E+02 -0.69505017013E+01  0.60474377466E+02  0.41800000000E+01 0.  1.
         -5    1    3    3    0  502 -0.12443024417E+01 -0.55448135090E+02  0.43740943809E+02  0.70758649923E+02  0.41800000000E+01 0.  1.
        -11    1    4    4    0    0  0.27162357124E+02 -0.46962336931E+01 -0.16659323217E+02  0.32208404268E+02  0.00000000000E+00 0.  1.
         11    1    4    4    0    0 -0.41873322095E+02  0.23793456478E+01 -0.41716925318E+02  0.59155204732E+02  0.00000000000E+00 0. -1.
</event>
<event>
 8    1  0.3896452E-010  0.2157668E+03  0.7561462E-02  0.1137079E+00
          1   -1    0    0  501    0  0.00000000000E+00  0.00000000000E+00  0.46327263057E+03  0.46327263057E+03  0.00000000000E+00 0. -1.
         -1   -1    0    0    0  501 -0.00000000000E+00 -0.00000000000E+00 -0.12011146805E+03  0.12011146805E+03  0.00000000000E+00 0.  1.
         25    2    1    2    0    0 -0.19776868160E+03  0.35208807097E+02  0.22300880620E+03  0.32516495821E+03  0.12508881200E+03 0.  0.
         23    2    1    2    0    0  0.19776868160E+03 -0.35208807097E+02  0.12015235633E+03  0.25821914041E+03  0.10903405074E+03 0.  0.
          5    1    3    3  502    0 -0.50040024707E+02 -0.37488835133E+02  0.24640649709E+02  0.67335361070E+02  0.41800000000E+01 0. -1.
         -5    1    3    3    0  502 -0.14772865690E+03  0.72697642231E+02  0.19836815649E+03  0.25782959714E+03  0.41800000000E+01 0. -1.
        -11    1    4    4    0    0  0.38842063291E+02 -0.22131371017E+02  0.83322348138E+02  0.94557480735E+02  0.00000000000E+00 0. -1.
         11    1    4    4    0    0  0.15892661831E+03 -0.13077436080E+02  0.36830008194E+02  0.16366165967E+03  0.00000000000E+00 0.  1.
</event>
<event>
 7    1  0.3896452E-010  0.1514267E+03  0.7561462E-02  0.1198731E+00
          1   -1    0    0  501    0  0.00000000000E+00  0.00000000000E+00  0.88602883203E+03  0.88602883203E+03  0.00000000000E+00 0. -1.
         -1   -1    0    0    0  501 -0.00000000000E+00 -0.00000000000E+00 -0.41134923633E+02  0.41134923633E+02  0.00000000000E+00 0.  1.
         25    2    1    2    0    0  0.10245212712E+03  0.56000554104E-01  0.32030412096E+03  0.35880154244E+03  0.12508946985E+03 0.  0.
          5    1    3    3  502    0  0.95894987329E+02  0.23605430998E+00  0.10091245694E+03  0.13927203841E+03  0.41800000000E+01 0.  1.
         -5    1    3    3    0  502  0.65571397951E+01 -0.18005375588E+00  0.21939166401E+03  0.21952950403E+03  0.41800000000E+01 0.  1.
        -11    1    1    2    0    0  0.40226213861E+02 -0.33723435732E+02  0.53339222994E+02  0.74836429022E+02  0.00000000000E+00 0.  1.
         11    1    1    2    0    0 -0.14267834099E+03  0.33667435178E+02  0.47125056444E+03  0.49352578420E+03  0.00000000000E+00 0. -1.
</event>
<event>
 8    1  0.3896452E-010  0.1265763E+03  0.7561462E-02  0.1232626E+00
          1   -1    0    0  501    0  0.00000000000E+00  0.00000000000E+00  0.19308567899E+02  0.19308567899E+02  0.00000000000E+00 0. -1.
         -1   -1    0    0    0  501 -0.00000000000E+00 -0.00000000000E+00 -0.10053594573E+04  0.10053594573E+04  0.00000000000E+00 0.  1.
         25    2    1    2    0    0 -0.39278618733E+02 -0.44815839347E+02 -0.66860142550E+03  0.68280719132E+03  0.12508607036E+03 0.  0.
         23    2    1    2    0    0  0.39278618733E+02  0.44815839347E+02 -0.31744946395E+03  0.34186083392E+03  0.11199731364E+03 0.  0.
          5    1    3    3  502    0  0.31489072764E+02 -0.50092157682E+02 -0.19259507111E+03  0.20152200818E+03  0.41800000000E+01 0.  1.
         -5    1    3    3    0  502 -0.70767691498E+02  0.52763183351E+01 -0.47600635439E+03  0.48128518314E+03  0.41800000000E+01 0.  1.
        -11    1    4    4    0    0 -0.16070609275E+02 -0.27398955391E+02 -0.48848743906E+02  0.58268061751E+02  0.00000000000E+00 0. -1.
         11    1    4    4    0    0  0.55349228009E+02  0.72214794739E+02 -0.26860072004E+03  0.28359277217E+03  0.00000000000E+00 0.  1.
</event>
<event>
 8    1  0.3896452E-010  0.1497029E+03  0.7561462E-02  0.1200839E+00
         -2   -1    0    0    0  501 -0.00000000000E+00  0.00000000000E+00  0.29155020940E+03  0.29155020940E+03  0.00000000000E+00 0.  1.
          2   -1    0    0  501    0  0.00000000000E+00 -0.00000000000E+00 -0.10168442039E+03  0.10168442039E+03  0.00000000000E+00 0. -1.
         25    2    1    2    0    0  0.13758450913E+03  0.19182665925E+01  0.11139750626E+03  0.21677208692E+03  0.12509019292E+03 0.  0.
         23    2    1    2    0    0 -0.13758450913E+03 -0.19182665925E+01  0.78468282750E+02  0.17646254287E+03  0.77772622038E+02 0.  0.
          5    1    3    3  502    0 -0.96492528008E+01  0.85460346954E+01 -0.16665527733E+02  0.21479176038E+02  0.41800000000E+01 0. -1.
         -5    1    3    3    0  502  0.14723376193E+03 -0.66277681030E+01  0.12806303400E+03  0.19529291088E+03  0.41800000000E+01 0. -1.
        -11    1    4    4    0    0 -0.63163594482E+02 -0.83582304285E+01  0.79342740059E+02  0.10175839073E+03  0.00000000000E+00 0.  1.
         11    1    4    4    0    0 -0.74420914649E+02  0.64399638360E+01 -0.87445730887E+00  0.74704152140E+02  0.00000000000E+00 0. -1.
</event>
<event>
 8    1  0.3896452E-010  0.1570157E+03  0.7561462E-02  0.1192108E+00
         -2   -1    0    0    0  501 -0.00000000000E+00  0.00000000000E+00  0.62848491911E+02  0.62848491911E+02  0.00000000000E+00 0. -1.
          2   -1    0    0  501    0  0.00000000000E+00 -0.00000000000E+00 -0.41911571969E+03  0.41911571969E+03  0.00000000000E+00 0.  1.
         25    2    1    2    0    0 -0.66522296868E+02  0.78367496726E+02 -0.21675339419E+03  0.27054766886E+03  0.12508927495E+03 0.  0.
         23    2    1    2    0    0  0.66522296868E+02 -0.78367496726E+02 -0.13951383360E+03  0.21141654275E+03  0.12110393990E+03 0.  0.
          5    1    3    3  502    0 -0.10024003499E+03  0.68865345071E+02 -0.19249420679E+03  0.22773228233E+03  0.41800000000E+01 0.  1.
         -5    1    3    3    0  502  0.33717738125E+02  0.95021516558E+01 -0.24259187397E+02  0.42815386527E+02  0.41800000000E+01 0.  1.
        -11    1    4    4    0    0 -0.18402627862E+02 -0.69246959214E+02 -0.48039203735E+02  0.86264495409E+02  0.00000000000E+00 0. -1.
         11    1    4    4    0    0  0.84924924730E+02 -0.91205375123E+01 -0.91474629860E+02  0.12515204734E+03  0.00000000000E+00 0.  1.
</event>
<event>
 8    1  0.3896452E-010  0.1127957E+03  0.7561462E-02  0.1255478E+00
          2   -1    0    0  501    0  0.00000000000E+00  0.00000000000E+00  0.33674675675E+03  0.33674675675E+03  0.00000000000E+00 0. -1.
         -2   -1    0    0    0  501 -0.00000000000E+00 -0.00000000000E+00 -0.48203845717E+02  0.48203845717E+02  0.00000000000E+00 0.  1.
         25    2    1    2    0    0 -0.25452948383E+02  0.70239831541E+02  0.12633214735E+03  0.19284858654E+03  0.12509707975E+03 0.  0.
         23    2    1    2    0    0  0.25452948383E+02 -0.70239831541E+02  0.16221076368E+03  0.19210201592E+03  0.70776875819E+02 0.  0.
          5    1    3    3  502    0  0.18548380048E+02 -0.30362142673E+02  0.30903227068E+02  0.47311562575E+02  0.41800000000E+01 0.  1.
         -5    1    3    3    0  502 -0.44001328431E+02  0.10060197421E+03  0.95428920279E+02  0.14553702397E+03  0.41800000000E+01 0.  1.
        -11    1    4    4    0    0 -0.42350824405E+01 -0.27623065519E+02  0.75419957495E+01  0.28945662401E+02  0.00000000000E+00 0.  1.
         11    1    4    4    0    0  0.29688030824E+02 -0.42616766022E+02  0.15466876793E+03  0.16315635352E+03  0.00000000000E+00 0. -1.
</event>
<event>
 8    1  0.3896452E-010  0.1108974E+03  0.7561462E-02  0.1258917E+00
          1   -1    0    0  501    0  0.00000000000E+00  0.00000000000E+00  0.37824941812E+03  0.37824941812E+03  0.00000000000E+00 0. -1.
         -1   -1    0    0    0  501 -0.00000000000E+00 -0.00000000000E+00 -0.68262414012E+02  0.68262414012E+02  0.00000000000E+00 0.  1.
         25    2    1    2    0    0  0.32984330365E+02  0.75215511082E+02  0.40165142095E+02  0.15493484244E+03  0.12508488161E+03 0.  0.
         23    2    1    2    0    0 -0.32984330365E+02 -0.75215511082E+02  0.26982186201E+03  0.29157698969E+03  0.73945686414E+02 0.  0.
          5    1    3    3  502    0 -0.31572640737E+02  0.54129331787E+01  0.49711954015E+02  0.59286442470E+02  0.41800000000E+01 0.  1.
         -5    1    3    3    0  502  0.64556971102E+02  0.69802577903E+02 -0.95468119200E+01  0.95648399974E+02  0.41800000000E+01 0.  1.
        -11    1    4    4    0    0 -0.38328933121E+02 -0.29695516975E+02  0.61718683971E+02  0.78486475228E+02  0.00000000000E+00 0.  1.
         11    1    4    4    0    0  0.53446027566E+01 -0.45519994107E+02  0.20810317804E+03  0.21309051446E+03  0.00000000000E+00 0. -1.
</event>
<event>
 8    1  0.3896452E-010  0.1121246E+03  0.7561462E-02  0.1256685E+00
         -1   -1    0    0    0  501 -0.00000000000E+00  0.00000000000E+00  0.15951742002E+02  0.15951742002E+02  0.00000000000E+00 0.  1.
          1   -1    0    0  501    0  0.00000000000E+00 -0.00000000000E+00 -0.96897938401E+03  0.96897938401E+03  0.00000000000E+00 0. -1.
         25    2    1    2    0    0 -0.68906639647E+02 -0.20115764438E+02 -0.64681034147E+03  0.66269443013E+03  0.12509005126E+03 0.  0.
         23    2    1    2    0    0  0.68906639647E+02  0.20115764438E+02 -0.30621730054E+03  0.32223669589E+03  0.70104807672E+02 0.  0.
          5    1    3    3  502    0 -0.92820799648E+02 -0.47248601236E+02 -0.40701627004E+03  0.42015217201E+03  0.41800000000E+01 0.  1.
         -5    1    3    3    0  502  0.23914160001E+02  0.27132836798E+02 -0.23979407143E+03  0.24254225812E+03  0.41800000000E+01 0.  1.
        -11    1    4    4    0    0  0.43305712656E+02 -0.96236606748E+01 -0.24859214754E+03  0.25251941591E+03  0.00000000000E+00 0. -1.
         11    1    4    4    0    0  0.25600926991E+02  0.29739425112E+02 -0.57625153002E+02  0.69717279976E+02  0.00000000000E+00 0.  1.
</event>
<event>
 8    1  0.3896452E-010  0.1241053E+03  0.7561462E-02  0.1236474E+00
          1   -1    0    0  501    0  0.00000000000E+00  0.00000000000E+00  0.12368966843E+03  0.12368966843E+03  0.00000000000E+00 0. -1.
         -1   -1    0    0    0  501 -0.00000000000E+00 -0.00000000000E+00 -0.26785961687E+03  0.26785961687E+03  0.00000000000E+00 0.  1.
         25    2    1    2    0    0 -0.40151707315E+02  0.49269170801E+02 -0.20935596458E+03  0.25202668224E+03  0.12509163785E+03 0.  0.
         23    2    1    2    0    0  0.40151707315E+02 -0.49269170801E+02  0.65186016144E+02  0.13952260306E+03  0.10572478078E+03 0.  0.
          5    1    3    3  502    0  0.37521997328E+02  0.21091210794E+02 -0.13147190909E+03  0.13840185958E+03  0.41800000000E+01 0.  1.
         -5    1    3    3    0  502 -0.77673704643E+02  0.28177960007E+02 -0.77884055495E+02  0.11362482266E+03  0.41800000000E+01 0.  1.
        -11    1    4    4    0    0 -0.10646173950E+02  0.27889849545E+02  0.24332068346E+02  0.38512780702E+02  0.00000000000E+00 0. -1.
         11    1    4    4    0    0  0.50797881265E+02 -0.77159020346E+02  0.40853947797E+02  0.10100982236E+03  0.00000000000E+00 0.  1.
</event>
<event>
 8    1  0.3896452E-010  0.8594960E+02  0.7561462E-02  0.1312968E+00
          1   -1    0    0  501    0  0.00000000000E+00  0.00000000000E+00  0.80376758001E+02  0.80376758001E+02  0.00000000000E+00 0. -1.
         -1   -1    0    0    0  501 -0.00000000000E+00 -0.00000000000E+00 -0.18784620527E+03  0.18784620527E+03  0.00000000000E+00 0.  1.
         25    2    1    2    0    0 -0.48798568912E+02  0.48916502831E+02 -0.88701807560E+02  0.16819455449E+03  0.12508905995E+03 0.  0.
         23    2    1    2    0    0  0.48798568912E+02 -0.48916502831E+02 -0.18767639707E+02  0.10002840878E+03  0.69852227488E+02 0.  0.
          5    1    3    3  502    0 -0.66664839065E+02  0.24387728478E+02  0.33422413561E+01  0.71187112915E+02  0.41800000000E+01 0.  1.
         -5    1    3    3    0  502  0.17866270153E+02  0.24528774353E+02 -0.92044048916E+02  0.97007441577E+02  0.41800000000E+01 0.  1.
        -11    1    4    4    0    0  0.16294394187E+02 -0.87750444975E+01  0.25838090320E+02  0.31782315826E+02  0.00000000000E+00 0. -1.
         11    1    4    4    0    0  0.32504174724E+02 -0.40141458334E+02 -0.44605730027E+02  0.68246092950E+02  0.00000000000E+00 0.  1.
</event>
<event>
 8    1  0.3896452E-010  0.1411976E+03  0.7561462E-02  0.1211727E+00
          2   -1    0    0  501    0  0.00000000000E+00  0.00000000000E+00  0.72394132939E+03  0.72394132939E+03  0.00000000000E+00 0.  1.
         -2   -1    0    0    0  501 -0.00000000000E+00 -0.00000000000E+00 -0.31956486328E+02  0.31956486328E+02  0.00000000000E+00 0. -1.
         25    2    1    2    0    0  0.79542954412E+02  0.66468811889E+02  0.27100870559E+03  0.31597150870E+03  0.12508833382E+03 0.  0.
         23    2    1    2    0    0 -0.79542954412E+02 -0.66468811889E+02  0.42097613748E+03  0.43992630702E+03  0.74626153106E+02 0.  0.
          5    1    3    3  502    0 -0.29084941214E+02  0.35713754706E+02  0.10955353832E+03  0.11891533222E+03  0.41800000000E+01 0. -1.
         -5    1    3    3    0  502  0.10862789563E+03  0.30755057184E+02  0.16145516727E+03  0.19705617648E+03  0.41800000000E+01 0. -1.
        -11    1    4    4    0    0 -0.47806382689E+02  0.18495335901E+01  0.22365991022E+03  0.22871953664E+03  0.00000000000E+00 0.  1.
         11    1    4    4    0    0 -0.31736571723E+02 -0.68318345479E+02  0.19731622726E+03  0.21120677038E+03  0.00000000000E+00 0. -1.
</event>
<event>
 8    1  0.3896452E-010  0.9129504E+02  0.7561462E-02  0.1299746E+00
         -1   -1    0    0    0  501 -0.00000000000E+00  0.00000000000E+00  0.82135455752E+02  0.82135455752E+02  0.00000000000E+00 0.  1.
          1   -1    0    0  501    0  0.00000000000E+00 -0.00000000000E+00 -0.15560030675E+03  0.15560030675E+03  0.00000000000E+00 0. -1.
         25    2    1    2    0    0  0.33209967119E+02  0.44219329240E+02 -0.48169327610E+02  0.14499689988E+03  0.12508223638E+03 0.  0.
         23    2    1    2    0    0 -0.33209967119E+02 -0.44219329240E+02 -0.25295523385E+02  0.92738862621E+02  0.70017013235E+02 0.  0.
          5    1    3    3  502    0 -0.75649454272E+01  0.51099323275E+02 -0.78134228425E+02  0.93759262423E+02  0.41800000000E+01 0.  1.
         -5    1    3    3    0  502  0.40774912546E+02 -0.68799940347E+01  0.29964900815E+02  0.51237637455E+02  0.41800000000E+01 0.  1.
        -11    1    4    4    0    0 -0.85537872582E+00 -0.55070559564E+02 -0.14677171025E+02  0.56999276774E+02  0.00000000000E+00 0.  1.
         11    1    4    4    0    0 -0.32354588393E+02  0.10851230324E+02 -0.10618352360E+02  0.35739585846E+02  0.00000000000E+00 0. -1.
</event>
<event>
 8    1  0.3896452E-010  0.7731608E+02  0.7561462E-02  0.1336845E+00
         -1   -1    0    0    0  501 -0.00000000000E+00  0.00000000000E+00  0.12228281009E+03  0.12228281009E+03  0.00000000000E+00 0.  1.
          1   -1    0    0  501    0  0.00000000000E+00 -0.00000000000E+00 -0.12491793868E+03  0.12491793868E+03  0.00000000000E+00 0. -1.
         25    2    1    2    0    0 -0.29639092181E+02 -0.34575179261E+02 -0.32919370274E+01  0.13314889897E+03  0.12507547178E+03 0.  0.
         23    2    1    2    0    0  0.29639092181E+02  0.34575179261E+02  0.65680843540E+00  0.11405184980E+03  0.10456325473E+03 0.  0.
          5    1    3    3  502    0 -0.11870901261E+02 -0.34451560943E+02  0.58317131431E+02  0.68892587167E+02  0.41800000000E+01 0. -1.
         -5    1    3    3    0  502 -0.17768190920E+02 -0.12361831761E+00 -0.61609068458E+02  0.64256311802E+02  0.41800000000E+01 0. -1.
        -11    1    4    4    0    0  0.49333232667E+02  0.53228521251E+02 -0.24955395021E+02  0.76745130533E+02  0.00000000000E+00 0. -1.
         11    1    4    4    0    0 -0.19694140485E+02 -0.18653341990E+02  0.25612203457E+02  0.37306719271E+02  0.00000000000E+00 0.  1.
</event>
<event>
 8    1  0.3896452E-010  0.5593302E+02  0.7561462E-02  0.1415737E+00
          2   -1    0    0  501    0  0.00000000000E+00  0.00000000000E+00  0.66521958956E+03  0.66521958956E+03  0.00000000000E+00 0. -1.
         -2   -1    0    0    0  501 -0.00000000000E+00 -0.00000000000E+00 -0.42053941613E+02  0.42053941613E+02  0.00000000000E+00 0.  1.
         25    2    1    2    0    0 -0.21327258246E+02  0.16636456769E+02  0.61158948184E+03  0.62483508008E+03  0.12508221043E+03 0.  0.
         23    2    1    2    0    0  0.21327258246E+02 -0.16636456769E+02  0.11576166112E+02  0.82438451095E+02  0.77009525119E+02 0.  0.
          5    1    3    3  502    0 -0.87172290767E+01  0.35839960048E+02  0.47604118245E+02  0.60366524605E+02  0.41800000000E+01 0.  1.
         -5    1    3    3    0  502 -0.12610029170E+02 -0.19203503279E+02  0.56398536359E+03  0.56446855547E+03  0.41800000000E+01 0.  1.
        -11    1    4    4    0    0 -0.10079142493E+02 -0.17253533864E+02 -0.26428591796E+02  0.33132220097E+02  0.00000000000E+00 0.  1.
         11    1    4    4    0    0  0.31406400740E+02  0.61707709560E+00  0.38004757909E+02  0.49306230998E+02  0.00000000000E+00 0. -1.
</event>
<event>
 8    1  0.3896452E-010  0.1627343E+03  0.7561462E-02  0.1185644E+00
          1   -1    0    0  501    0  0.00000000000E+00  0.00000000000E+00  0.11047445071E+04  0.11047445071E+04  0.00000000000E+00 0. -1.
         -1   -1    0    0    0  501 -0.00000000000E+00 -0.00000000000E+00 -0.41974900021E+02  0.41974900021E+02  0.00000000000E+00 0.  1.
         25    2    1    2    0    0 -0.15038521292E+03  0.14549803097E+00  0.80379019694E+03  0.82724995348E+03  0.12509225156E+03 0.  0.
         23    2    1    2    0    0  0.15038521292E+03 -0.14549803097E+00  0.25897941014E+03  0.31946945364E+03  0.11124146484E+03 0.  0.
          5    1    3    3  502    0  0.29009847394E+01 -0.10464474433E+02  0.30707657480E+03  0.30729695106E+03  0.41800000000E+01 0.  1.
         -5    1    3    3    0  502 -0.15328619766E+03  0.10609972464E+02  0.49671362214E+03  0.51995300242E+03  0.41800000000E+01 0.  1.
        -11    1    4    4    0    0  0.46467486552E+02  0.25614902522E+02  0.18428890478E+02  0.56169160061E+02  0.00000000000E+00 0.  1.
         11    1    4    4    0    0  0.10391772637E+03 -0.25760400553E+02  0.24055051966E+03  0.26330029358E+03  0.00000000000E+00 0. -1.
</event>
<event>
 8    1  0.3896452E-010  0.1763463E+03  0.7561462E-02  0.1171387E+00
         -1   -1    0    0    0  501 -0.00000000000E+00  0.00000000000E+00  0.19373978710E+03  0.19373978710E+03  0.00000000000E+00 0.  1.
          1   -1    0    0  501    0  0.00000000000E+00 -0.00000000000E+00 -0.22914854393E+03  0.22914854393E+03  0.00000000000E+00 0. -1.
         25    2    1    2    0    0 -0.13860725662E+03  0.87079971711E+02 -0.81451657708E+02  0.22153273265E+03  0.12508991180E+03 0.  0.
         23    2    1    2    0    0  0.13860725662E+03 -0.87079971711E+02  0.46042900874E+02  0.20135559838E+03  0.10783893183E+03 0.  0.
          5    1    3    3  502    0 -0.41330488511E+02  0.63790015007E+02  0.20303978083E+02  0.78785145943E+02  0.41800000000E+01 0.  1.
         -5    1    3    3    0  502 -0.97276768107E+02  0.23289956704E+02 -0.10175563579E+03  0.14274758671E+03  0.41800000000E+01 0.  1.
        -11    1    4    4    0    0  0.81280929853E+02 -0.12262654244E+02 -0.22015392150E+02  0.85097824522E+02  0.00000000000E+00 0. -1.
         11    1    4    4    0    0  0.57326326765E+02 -0.74817317467E+02  0.68058293025E+02  0.11625777386E+03  0.00000000000E+00 0.  1.
</event>
<event>
 8    1  0.3896452E-010  0.7278717E+02  0.7561462E-02  0.1350864E+00
         -2   -1    0    0    0  501 -0.00000000000E+00  0.00000000000E+00  0.11069884532E+03  0.11069884532E+03  0.00000000000E+00 0.  1.
          2   -1    0    0  501    0  0.00000000000E+00 -0.00000000000E+00 -0.23141186863E+03  0.23141186863E+03  0.00000000000E+00 0. -1.
         25    2    1    2    0    0 -0.17622507547E+02 -0.36325586022E+02  0.57994111768E+02  0.14367168866E+03  0.12509251037E+03 0.  0.
         23    2    1    2    0    0  0.17622507547E+02  0.36325586022E+02 -0.17870713507E+03  0.19843902529E+03  0.76234543748E+02 0.  0.
          5    1    3    3  502    0 -0.33861599224E+02  0.56428780103E+01 -0.29330330824E+02  0.45345238785E+02  0.41800000000E+01 0.  1.
         -5    1    3    3    0  502  0.16239091676E+02 -0.41968464032E+02  0.87324442591E+02  0.98326449878E+02  0.41800000000E+01 0.  1.
        -11    1    4    4    0    0  0.36239512983E+02  0.23567577644E+02 -0.43376239277E+02  0.61239130881E+02  0.00000000000E+00 0.  1.
         11    1    4    4    0    0 -0.18617005436E+02  0.12758008378E+02 -0.13533089580E+03  0.13719989441E+03  0.00000000000E+00 0. -1.
</event>
<event>
 8    1  0.3896452E-010  0.1117509E+03  0.7561462E-02  0.1257361E+00
          2   -1    0    0  501    0  0.00000000000E+00  0.00000000000E+00  0.13898573987E+03  0.13898573987E+03  0.00000000000E+00 0.  1.
         -2   -1    0    0    0  501 -0.00000000000E+00 -0.00000000000E+00 -0.10228326255E+03  0.10228326255E+03  0.00000000000E+00 0. -1.
         25    2    1    2    0    0  0.14070602326E+02  0.49082112646E+00  0.42248305826E+02  0.13278065622E+03  0.12509020971E+03 0.  0.
         23    2    1    2    0    0 -0.14070602326E+02 -0.49082112646E+00 -0.55458285053E+01  0.10848834621E+03  0.10742784692E+03 0.  0.
          5    1    3    3  502    0 -0.49684951187E+02  0.23862740339E+02  0.32306584875E+02  0.64025093340E+02  0.41800000000E+01 0.  1.
         -5    1    3    3    0  502  0.63755553513E+02 -0.23371919213E+02  0.99417209515E+01  0.68755562879E+02  0.41800000000E+01 0.  1.
        -11    1    4    4    0    0 -0.56885302733E+02 -0.51843375748E+01 -0.23576531892E+02  0.61795371017E+02  0.00000000000E+00 0. -1.
         11    1    4    4    0    0  0.42814700407E+02  0.46935164483E+01  0.18030703387E+02  0.46692975192E+02  0.00000000000E+00 0.  1.
</event>
<event>
 8    1  0.3896452E-010  0.2393586E+03  0.7561462E-02  0.1120221E+00
          2   -1    0    0  501    0  0.00000000000E+00  0.00000000000E+00  0.44192417893E+03  0.44192417893E+03  0.00000000000E+00 0. -1.
         -2   -1    0    0    0  501 -0.00000000000E+00 -0.00000000000E+00 -0.14804182714E+03  0.14804182714E+03  0.00000000000E+00 0.  1.
         25    2    1    2    0    0  0.13003724104E+03  0.18673624664E+03  0.16876769772E+03  0.30969367363E+03  0.12509007086E+03 0.  0.
         23    2    1    2    0    0 -0.13003724104E+03 -0.18673624664E+03  0.12511465407E+03  0.28027233244E+03  0.10544569124E+03 0.  0.
          5    1    3    3  502    0 -0.15808915837E+01  0.67462119378E+02  0.96634359727E+02  0.11793773208E+03  0.41800000000E+01 0. -1.
         -5    1    3    3    0  502  0.13161813263E+03  0.11927412726E+03  0.72133337989E+02  0.19175594155E+03  0.41800000000E+01 0. -1.
        -11    1    4    4    0    0  0.45720070706E+01 -0.12149293776E+02 -0.14394586519E+02  0.19383310062E+02  0.00000000000E+00 0.  1.
         11    1    4    4    0    0 -0.13460924811E+03 -0.17458695286E+03  0.13950924059E+03  0.26088902238E+03  0.00000000000E+00 0. -1.
</event>
<event>
 8    1  0.3896452E-010  0.1989776E+03  0.7561462E-02  0.1150604E+00
         -1   -1    0    0    0  501 -0.00000000000E+00  0.00000000000E+00  0.13214292954E+04  0.13214292954E+04  0.00000000000E+00 0.  1.
          1   -1    0    0  501    0  0.00000000000E+00 -0.00000000000E+00 -0.32376307557E+02  0.32376307557E+02  0.00000000000E+00 0. -1.
         25    2    1    2    0    0  0.16494676523E+03 -0.66062666620E+02  0.80936740762E+03  0.83803030755E+03  0.12508990598E+03 0.  0.
         23    2    1    2    0    0 -0.16494676523E+03  0.66062666620E+02  0.47968558023E+03  0.51577529541E+03  0.65986272800E+02 0.  0.
          5    1    3    3  502    0 -0.19724938295E+02 -0.16479947048E+02  0.97799684677E+02  0.10120727527E+03  0.41800000000E+01 0. -1.
         -5    1    3    3    0  502  0.18467170352E+03 -0.49582719572E+02  0.71156772295E+03  0.73682303228E+03  0.41800000000E+01 0. -1.
        -11    1    4    4    0    0 -0.37896956665E+02  0.98634921238E+00  0.17841128304E+03  0.18239445750E+03  0.00000000000E+00 0. -1.
         11    1    4    4    0    0 -0.12704980856E+03  0.65076317408E+02  0.30127429719E+03  0.33338083791E+03  0.00000000000E+00 0.  1.
</event>
<event>
 7    1  0.3896452E-010  0.1680780E+03  0.7561462E-02  0.1179867E+00
         -1   -1    0    0    0  501 -0.00000000000E+00  0.00000000000E+00  0.25826302752E+02  0.25826302752E+02  0.00000000000E+00 0.  1.
          1   -1    0    0  501    0  0.00000000000E+00 -0.00000000000E+00 -0.13145287442E+04  0.13145287442E+04  0.00000000000E+00 0. -1.
         25    2    1    2    0    0 -0.33344861000E+02  0.15559774848E+03 -0.76078408803E+03  0.78725051894E+03  0.12509361249E+03 0.  0.
          5    1    3    3  502    0 -0.48713556765E+02  0.52894497203E+02 -0.13615541641E+03  0.15403443857E+03  0.41800000000E+01 0. -1.
         -5    1    3    3    0  502  0.15368695765E+02  0.10270325128E+03 -0.62462867163E+03  0.63321608038E+03  0.41800000000E+01 0. -1.
        -11    1    1    2    0    0  0.19739349500E+01 -0.49928443650E+02 -0.10866022019E+03  0.11959845047E+03  0.00000000000E+00 0. -1.
         11    1    1    2    0    0  0.31370926050E+02 -0.10566930483E+03 -0.41925813328E+03  0.43350607758E+03  0.00000000000E+00 0.  1.
</event>
<event>
 8    1  0.4201942E-010  0.2002677E+03  0.7561462E-02  0.1149513E+00
          1   -1    0    0  501    0  0.00000000000E+00  0.00000000000E+00  0.17995470948E+03  0.17995470948E+03  0.00000000000E+00 0. -1.
         -1   -1    0    0    0  501 -0.00000000000E+00 -0.00000000000E+00 -0.24692299453E+03  0.24692299453E+03  0.00000000000E+00 0.  1.
         25    2    1    2    0    0 -0.17947187299E+03 -0.47922615541E+01 -0.73445782333E+02  0.23081762727E+03  0.12509746260E+03 0.  0.
         23    2    1    2    0    0  0.17947187299E+03  0.47922615541E+01  0.64774972810E+01  0.19606007674E+03  0.78514181860E+02 0.  0.
          5    1    3    3  502    0 -0.59200597961E+02 -0.48772600722E+02  0.10655762754E+02  0.77553175693E+02  0.41800000000E+01 0. -1.
         -5    1    3    3    0  502 -0.12027127503E+03  0.43980339168E+02 -0.84101545087E+02  0.15326445158E+03  0.41800000000E+01 0. -1.
        -11    1    4    4    0    0  0.11626552021E+03 -0.34363174997E+02  0.98101141291E+01  0.12163361922E+03  0.00000000000E+00 0.  1.
         11    1    4    4    0    0  0.63206352788E+02  0.39155436551E+02 -0.33326168481E+01  0.74426457523E+02  0.00000000000E+00 0. -1.
</event>
<event>
 8    1  0.3896452E-010  0.1517256E+03  0.7561462E-02  0.1198368E+00
          3   -1    0    0  501    0  0.00000000000E+00  0.00000000000E+00  0.84945967551E+02  0.84945967551E+02  0.00000000000E+00 0. -1.
         -3   -1    0    0    0  501 -0.00000000000E+00 -0.00000000000E+00 -0.36877008009E+03  0.36877008009E+03  0.00000000000E+00 0.  1.
         25    2    1    2    0    0 -0.11782890087E+02  0.14164331493E+03 -0.17787156239E+03  0.25978376159E+03  0.12509054686E+03 0.  0.
         23    2    1    2    0    0  0.11782890087E+02 -0.14164331493E+03 -0.10595255015E+03  0.19393228605E+03  0.78626481083E+02 0.  0.
          5    1    3    3  502    0 -0.25120175168E+02  0.12499272500E+03 -0.19437228683E+03  0.23249142520E+03  0.41800000000E+01 0. -1.
         -5    1    3    3    0  502  0.13337285081E+02  0.16650589928E+02  0.16500724442E+02  0.27292336386E+02  0.41800000000E+01 0. -1.
        -11    1    4    4    0    0 -0.21723304739E+02 -0.26681862355E+02 -0.52567231590E+02  0.62826249168E+02  0.00000000000E+00 0.  1.
         11    1    4    4    0    0  0.33506194826E+02 -0.11496145257E+03 -0.53385318556E+02  0.13110603688E+03  0.00000000000E+00 0. -1.
</event>
<event>
 8    1  0.3896452E-010  0.1024437E+03  0.7561462E-02  0.1275240E+00
         -1   -1    0    0    0  501 -0.00000000000E+00  0.00000000000E+00  0.15586850861E+03  0.15586850861E+03  0.00000000000E+00 0.  1.
          1   -1    0    0  501    0  0.00000000000E+00 -0.00000000000E+00 -0.83815250828E+02  0.83815250828E+02  0.00000000000E+00 0. -1.
         25    2    1    2    0    0  0.43477640494E+02  0.36605682710E+02  0.26396882800E+02  0.13991439848E+03  0.12509581229E+03 0.  0.
         23    2    1    2    0    0 -0.43477640494E+02 -0.36605682710E+02  0.45656374983E+02  0.99769360955E+02  0.68111229465E+02 0.  0.
          5    1    3    3  502    0  0.85780214867E+02  0.28922303139E+02  0.32531636823E+02  0.96283563893E+02  0.41800000000E+01 0. -1.
         -5    1    3    3    0  502 -0.42302574373E+02  0.76833795711E+01 -0.61347540227E+01  0.43630834591E+02  0.41800000000E+01 0. -1.
        -11    1    4    4    0    0 -0.30314120071E+02  0.19014766932E+01  0.50352625300E+02  0.58804322663E+02  0.00000000000E+00 0.  1.
         11    1    4    4    0    0 -0.13163520424E+02 -0.38507159403E+02 -0.46962503168E+01  0.40965038293E+02  0.00000000000E+00 0. -1.
</event>
<event>
 7    1  0.3896452E-010  0.1642789E+03  0.7561462E-02  0.1183949E+00
          2   -1    0    0  501    0  0.00000000000E+00  0.00000000000E+00  0.10381801804E+04  0.10381801804E+04  0.00000000000E+00 0. -1.
         -2   -1    0    0    0  501 -0.00000000000E+00 -0.00000000000E+00 -0.31977163576E+02  0.31977163576E+02  0.00000000000E+00 0.  1.
         25    2    1    2    0    0  0.10220884002E+03 -0.72283170506E+02  0.39547968081E+03  0.43326950631E+03  0.12508710345E+03 0.  0.
          5    1    3    3  502    0  0.12321869316E+03 -0.57561326299E+02  0.24221188616E+03  0.27781328771E+03  0.41800000000E+01 0.  1.
         -5    1    3    3    0  502 -0.21009853141E+02 -0.14721844207E+02  0.15326779464E+03  0.15545621860E+03  0.41800000000E+01 0.  1.
        -11    1    1    2    0    0 -0.11726116209E+03  0.29169777617E+02  0.53487019463E+03  0.54834950640E+03  0.00000000000E+00 0.  1.
         11    1    1    2    0    0  0.15052322067E+02  0.43113392888E+02  0.75853141381E+02  0.88538331266E+02  0.00000000000E+00 0. -1.
</event>
<event>
 8    1  0.3896452E-010  0.7241555E+02  0.7561462E-02  0.1352066E+00
          1   -1    0    0  501    0  0.00000000000E+00  0.00000000000E+00  0.18929004411E+03  0.18929004411E+03  0.00000000000E+00 0. -1.
         -1   -1    0    0    0  501 -0.00000000000E+00 -0.00000000000E+00 -0.71199782659E+02  0.71199782659E+02  0.00000000000E+00 0.  1.
         25    2    1    2    0    0 -0.69857239249E+01  0.20385209147E+01  0.13902596462E+03  0.18715574854E+03  0.12508436940E+03 0.  0.
         23    2    1    2    0    0  0.69857239249E+01 -0.20385209147E+01 -0.20935703162E+02  0.73334078228E+02  0.69904416573E+02 0.  0.
          5    1    3    3  502    0  0.21626632711E+02  0.48824024647E+02  0.11553851430E+03  0.12735037224E+03  0.41800000000E+01 0. -1.
         -5    1    3    3    0  502 -0.28612356636E+02 -0.46785503733E+02  0.23487450321E+02  0.59805376300E+02  0.41800000000E+01 0. -1.
        -11    1    4    4    0    0 -0.14362711072E+02  0.21203296480E+01  0.21329022608E+02  0.25801365711E+02  0.00000000000E+00 0. -1.
         11    1    4    4    0    0  0.21348434997E+02 -0.41588505628E+01 -0.42264725770E+02  0.47532712517E+02  0.00000000000E+00 0.  1.
</event>
<event>
 7    1  0.3896452E-010  0.8049649E+02  0.7561462E-02  0.1327648E+00
          1   -1    0    0  501    0  0.00000000000E+00  0.00000000000E+00  0.13850635372E+02  0.13850635372E+02  0.00000000000E+00 0. -1.
         -1   -1    0    0    0  501 -0.00000000000E+00 -0.00000000000E+00 -0.64172871213E+03  0.64172871213E+03  0.00000000000E+00 0.  1.
         25    2    1    2    0    0 -0.21855198282E+02  0.23864200320E+02 -0.46928539662E+03  0.48674819935E+03  0.12509147190E+03 0.  0.
          5    1    3    3  502    0 -0.48486793670E+02  0.47511865672E+02 -0.14139159108E+03  0.15689933387E+03  0.41800000000E+01 0.  1.
         -5    1    3    3    0  502  0.26631595389E+02 -0.23647665352E+02 -0.32789380554E+03  0.32984886549E+03  0.41800000000E+01 0.  1.
        -11    1    1    2    0    0  0.24169781633E+02 -0.36773123002E+02 -0.13270844626E+03  0.13981406449E+03  0.00000000000E+00 0.  1.
         11    1    1    2    0    0 -0.23145833512E+01  0.12908922682E+02 -0.25884233875E+02  0.29017083661E+02  0.00000000000E+00 0. -1.
</event>
<event>
 8    1  0.3896452E-010  0.7817650E+02  0.7561462E-02  0.1334307E+00
         -1   -1    0    0    0  501 -0.00000000000E+00  0.00000000000E+00  0.33874760752E+03  0.33874760752E+03  0.00000000000E+00 0.  1.
          1   -1    0    0  501    0  0.00000000000E+00 -0.00000000000E+00 -0.52323127131E+02  0.52323127131E+02  0.00000000000E+00 0. -1.
         25    2    1    2    0    0 -0.15105078830E+02  0.39647418207E+02  0.80528284229E+02  0.15470197232E+03  0.12509122473E+03 0.  0.
         23    2    1    2    0    0  0.15105078830E+02 -0.39647418207E+02  0.20589619616E+03  0.23636876233E+03  0.10805955318E+03 0.  0.
          5    1    3    3  502    0  0.24129746513E+01  0.29217502647E+02 -0.30045663690E+02  0.42186481415E+02  0.41800000000E+01 0.  1.
         -5    1    3    3    0  502 -0.17518053481E+02  0.10429915560E+02  0.11057394792E+03  0.11251549091E+03  0.41800000000E+01 0.  1.
        -11    1    4    4    0    0 -0.24057351301E+02 -0.57915952944E+02  0.16639696625E+03  0.17782284480E+03  0.00000000000E+00 0.  1.
         11    1    4    4    0    0  0.39162430131E+02  0.18268534736E+02  0.39499229915E+02  0.58545917527E+02  0.00000000000E+00 0. -1.
</event>
<event>
 8    1  0.3896452E-010  0.1135245E+03  0.7561462E-02  0.1254179E+00
          1   -1    0    0  501    0  0.00000000000E+00  0.00000000000E+00  0.17378558508E+03  0.17378558508E+03  0.00000000000E+00 0. -1.
         -1   -1    0    0    0  501 -0.00000000000E+00 -0.00000000000E+00 -0.80934784095E+02  0.80934784095E+02  0.00000000000E+00 0.  1.
         25    2    1    2    0    0 -0.23552697934E+02  0.49644613681E+02  0.84227264320E+02  0.16049987223E+03  0.12508660873E+03 0.  0.
         23    2    1    2    0    0  0.23552697934E+02 -0.49644613681E+02  0.86235366637E+01  0.94220496944E+02  0.76051426103E+02 0.  0.
          5    1    3    3  502    0  0.26682104111E+02 -0.30780155005E+02  0.17816074466E+02  0.44656886718E+02  0.41800000000E+01 0.  1.
         -5    1    3    3    0  502 -0.50234802045E+02  0.80424768685E+02  0.66411189854E+02  0.11584298551E+03  0.41800000000E+01 0.  1.
        -11    1    4    4    0    0  0.25420687676E+02  0.12971873855E+02  0.13129304562E+02  0.31414320167E+02  0.00000000000E+00 0.  1.
         11    1    4    4    0    0 -0.18679897428E+01 -0.62616487536E+02 -0.45057678988E+01  0.62806176777E+02  0.00000000000E+00 0. -1.
</event>
<event>
 8    1  0.3896452E-010  0.1111511E+03  0.7561462E-02  0.1258453E+00
         -1   -1    0    0    0  501 -0.00000000000E+00  0.00000000000E+00  0.61631065017E+02  0.61631065017E+02  0.00000000000E+00 0.  1.
          1   -1    0    0  501    0  0.00000000000E+00 -0.00000000000E+00 -0.25287234089E+03  0.25287234089E+03  0.00000000000E+00 0. -1.
         25    2    1    2    0    0  0.22080426325E+02 -0.82371518056E+01 -0.13173145292E+03  0.18318257792E+03  0.12508910930E+03 0.  0.
         23    2    1    2    0    0 -0.22080426325E+02  0.82371518056E+01 -0.59509822947E+02  0.13132082799E+03  0.11466623278E+03 0.  0.
          5    1    3    3  502    0 -0.14857011466E+02  0.47158605314E+02 -0.94622969261E+02  0.10684401507E+03  0.41800000000E+01 0. -1.
         -5    1    3    3    0  502  0.36937437790E+02 -0.55395757120E+02 -0.37108483661E+02  0.76338562844E+02  0.41800000000E+01 0. -1.
        -11    1    4    4    0    0  0.13357034653E+02  0.49678491536E+02 -0.56935003244E+02  0.76733027377E+02  0.00000000000E+00 0. -1.
         11    1    4    4    0    0 -0.35437460978E+02 -0.41441339730E+02 -0.25748197033E+01  0.54587800612E+02  0.00000000000E+00 0.  1.
</event>
<event>
 8    1  0.3896452E-010  0.1292459E+03  0.7561462E-02  0.1228579E+00
          1   -1    0    0  501    0  0.00000000000E+00  0.00000000000E+00  0.40031621340E+03  0.40031621340E+03  0.00000000000E+00 0. -1.
         -1   -1    0    0    0  501 -0.00000000000E+00 -0.00000000000E+00 -0.10407651699E+03  0.10407651699E+03  0.00000000000E+00 0.  1.
         25    2    1    2    0    0  0.11978596453E+03  0.36456695056E+02  0.28844214019E+03  0.33841528439E+03  0.12509303961E+03 0.  0.
         23    2    1    2    0    0 -0.11978596453E+03 -0.36456695056E+02  0.77975562279E+01  0.16597744600E+03  0.10867356066E+03 0.  0.
          5    1    3    3  502    0  0.13693472545E+01 -0.58630306867E+01  0.15439437266E+03  0.15456825337E+03  0.41800000000E+01 0. -1.
         -5    1    3    3    0  502  0.11841661728E+03  0.42319725742E+02  0.13404776752E+03  0.18384703101E+03  0.41800000000E+01 0. -1.
        -11    1    4    4    0    0 -0.94204288270E+02 -0.31096749649E+02 -0.43563989215E+02  0.10834794379E+03  0.00000000000E+00 0.  1.
         11    1    4    4    0    0 -0.25581676263E+02 -0.53599454064E+01  0.51361545443E+02  0.57629502214E+02  0.00000000000E+00 0. -1.
</event>
<event>
 8    1  0.4277092E-010  0.1272128E+03  0.7561462E-02  0.1231651E+00
         -2   -1    0    0    0  501 -0.00000000000E+00  0.00000000000E+00  0.13567690369E+03  0.13567690369E+03  0.00000000000E+00 0. -1.
          2   -1    0    0  501    0  0.00000000000E+00 -0.00000000000E+00 -0.15901924776E+03  0.15901924776E+03  0.00000000000E+00 0.  1.
         25    2    1    2    0    0  0.75141136030E+02  0.61819407187E+02  0.25772591423E+02  0.16055642828E+03  0.12508521402E+03 0.  0.
         23    2    1    2    0    0 -0.75141136030E+02 -0.61819407187E+02 -0.49114935500E+02  0.13413972317E+03  0.78187972310E+02 0.  0.
          5    1    3    3  502    0  0.10671898667E+03  0.56140552690E+02  0.37168867776E+02  0.12625252830E+03  0.41800000000E+01 0. -1.
         -5    1    3    3    0  502 -0.31577850635E+02  0.56788544969E+01 -0.11396276353E+02  0.34303899980E+02  0.41800000000E+01 0. -1.
        -11    1    4    4    0    0 -0.40689431141E+02 -0.51122463749E+02 -0.67249672887E+02  0.93763823566E+02  0.00000000000E+00 0.  1.
         11    1    4    4    0    0 -0.34451704889E+02 -0.10696943438E+02  0.18134737387E+02  0.40375899603E+02  0.00000000000E+00 0. -1.
</event>
<event>
 8    1  0.3896452E-010  0.7611793E+02  0.7561462E-02  0.1340444E+00
          1   -1    0    0  501    0  0.00000000000E+00  0.00000000000E+00  0.20085097023E+03  0.20085097023E+03  0.00000000000E+00 0. -1.
         -1   -1    0    0    0  501 -0.00000000000E+00 -0.00000000000E+00 -0.42356957767E+02  0.42356957767E+02  0.00000000000E+00 0.  1.
         25    2    1    2    0    0 -0.57470827803E+01 -0.92173567462E+01  0.12778888172E+03  0.17915083477E+03  0.12508810768E+03 0.  0.
         23    2    1    2    0    0  0.57470827803E+01  0.92173567462E+01  0.30705130738E+02  0.64057093220E+02  0.55159020226E+02 0.  0.
          5    1    3    3  502    0  0.45171867844E+02  0.10462276528E+02  0.77237688144E+01  0.47192010758E+02  0.41800000000E+01 0. -1.
         -5    1    3    3    0  502 -0.50918950624E+02 -0.19679633274E+02  0.12006511291E+03  0.13195882402E+03  0.41800000000E+01 0. -1.
        -11    1    4    4    0    0  0.18255268103E+02  0.24897408623E+02  0.31335648147E+02  0.43989301136E+02  0.00000000000E+00 0. -1.
         11    1    4    4    0    0 -0.12508185323E+02 -0.15680051877E+02 -0.63051740859E+00  0.20067792084E+02  0.00000000000E+00 0.  1.
</event>
<event>
 8    1  0.4713308E-010  0.4615986E+02  0.7561462E-02  0.1467228E+00
         -2   -1    0    0    0  501 -0.00000000000E+00  0.00000000000E+00  0.54852272090E+02  0.54852272090E+02  0.00000000000E+00 0.  1.
          2   -1    0    0  501    0  0.00000000000E+00 -0.00000000000E+00 -0.19879540591E+03  0.19879540591E+03  0.00000000000E+00 0. -1.
         25    2    1    2    0    0 -0.74447406951E+01 -0.13886202192E+02 -0.65726661596E+02  0.14217321714E+03  0.12507988988E+03 0.  0.
         23    2    1    2    0    0  0.74447406951E+01  0.13886202192E+02 -0.78216472221E+02  0.11147446086E+03  0.77849136934E+02 0.  0.
          5    1    3    3  502    0  0.14906695652E+01 -0.20699858998E+02 -0.10189426234E+03  0.10407026163E+03  0.41800000000E+01 0. -1.
         -5    1    3    3    0  502 -0.89354102603E+01  0.68136568063E+01  0.36167600739E+02  0.38102955513E+02  0.41800000000E+01 0. -1.
        -11    1    4    4    0    0  0.18112148848E+02  0.32786928124E+02 -0.84339607615E+01  0.38394847126E+02  0.00000000000E+00 0.  1.
         11    1    4    4    0    0 -0.10667408153E+02 -0.18900725932E+02 -0.69782511459E+02  0.73079613731E+02  0.00000000000E+00 0. -1.
</event>
<event>
 7    1  0.3896452E-010  0.2078380E+03  0.7561462E-02  0.1143290E+00
         -2   -1    0    0    0  501 -0.00000000000E+00  0.00000000000E+00  0.14002048041E+03  0.14002048041E+03  0.00000000000E+00 0.  1.
          2   -1    0    0  501    0  0.00000000000E+00 -0.00000000000E+00 -0.32128542342E+03  0.32128542342E+03  0.00000000000E+00 0. -1.
         25    2    1    2    0    0  0.16346516010E+03  0.10042509658E+03 -0.10269229437E+03  0.25099651777E+03  0.12508991176E+03 0.  0.
          5    1    3    3  502    0  0.17549955646E+03  0.72005436094E+02 -0.10956241980E+03  0.21910333949E+03  0.41800000000E+01 0. -1.
         -5    1    3    3    0  502 -0.12034396361E+02  0.28419660482E+02  0.68701254305E+01  0.31893178285E+02  0.41800000000E+01 0. -1.
        -11    1    1    2    0    0 -0.28352984428E+02 -0.33878398317E+02 -0.22702358733E+02  0.49669252970E+02  0.00000000000E+00 0.  1.
         11    1    1    2    0    0 -0.13511217567E+03 -0.66546698259E+02 -0.55870289908E+02  0.16064013308E+03  0.00000000000E+00 0. -1.
</event>
<event>
 8    1  0.3896452E-010  0.1178432E+03  0.7561462E-02  0.1246698E+00
         -2   -1    0    0    0  501 -0.00000000000E+00  0.00000000000E+00  0.30108227512E+02  0.30108227512E+02  0.00000000000E+00 0.  1.
          2   -1    0    0  501    0  0.00000000000E+00 -0.00000000000E+00 -0.11692288018E+04  0.11692288018E+04  0.00000000000E+00 0. -1.
         25    2    1    2    0    0  0.77320079551E+02 -0.77274608701E+02 -0.84745808576E+03  0.86358723899E+03  0.12509177583E+03 0.  0.
         23    2    1    2    0    0 -0.77320079551E+02  0.77274608701E+02 -0.29166248853E+03  0.33574979032E+03  0.12534414479E+03 0.  0.
          5    1    3    3  502    0  0.60751324862E+02 -0.51605932745E+02 -0.81469168455E+03  0.81859263925E+03  0.41800000000E+01 0. -1.
         -5    1    3    3    0  502  0.16568754689E+02 -0.25668675956E+02 -0.32766401207E+02  0.44994599735E+02  0.41800000000E+01 0. -1.
        -11    1    4    4    0    0 -0.38476513803E+02 -0.72363967409E-01 -0.81639028315E+01  0.39333149638E+02  0.00000000000E+00 0.  1.
         11    1    4    4    0    0 -0.38843565748E+02  0.77346972669E+02 -0.28349858570E+03  0.29641664068E+03  0.00000000000E+00 0. -1.
</event>
<event>
 7    1  0.3896452E-010  0.1527781E+03  0.7561462E-02  0.1197100E+00
         -2   -1    0    0    0  501 -0.00000000000E+00  0.00000000000E+00  0.66708486421E+02  0.66708486421E+02  0.00000000000E+00 0. -1.
          2   -1    0    0  501    0  0.00000000000E+00 -0.00000000000E+00 -0.50315772848E+03  0.50315772848E+03  0.00000000000E+00 0.  1.
         25    2    1    2    0    0 -0.73679377635E+02  0.27522786778E+02 -0.36887417807E+03  0.39736542401E+03  0.12507984038E+03 0.  0.
          5    1    3    3  502    0 -0.10751267415E+03  0.72898452731E+01 -0.28006938772E+03  0.30011406379E+03  0.41800000000E+01 0. -1.
         -5    1    3    3    0  502  0.33833296514E+02  0.20232941505E+02 -0.88804790352E+02  0.97251360219E+02  0.41800000000E+01 0. -1.
        -11    1    1    2    0    0  0.10934162884E+03 -0.45144422489E+02 -0.43704662713E+02  0.12610990533E+03  0.00000000000E+00 0. -1.
         11    1    1    2    0    0 -0.35662251207E+02  0.17621635712E+02 -0.23870401277E+02  0.46390885564E+02  0.00000000000E+00 0.  1.
</event>
<event>
 8    1  0.3896452E-010  0.9281612E+02  0.7561462E-02  0.1296172E+00
         -2   -1    0    0    0  501 -0.00000000000E+00  0.00000000000E+00  0.55550456341E+02  0.55550456341E+02  0.00000000000E+00 0.  1.
          2   -1    0    0  501    0  0.00000000000E+00 -0.00000000000E+00 -0.28370812001E+03  0.28370812001E+03  0.00000000000E+00 0. -1.
         25    2    1    2    0    0 -0.23677837948E+02  0.68975332280E+02 -0.11947404781E+03  0.18771558159E+03  0.12507939478E+03 0.  0.
         23    2    1    2    0    0  0.23677837948E+02 -0.68975332280E+02 -0.10868361585E+03  0.15154299475E+03  0.76386611595E+02 0.  0.
          5    1    3    3  502    0 -0.53426972633E+02  0.36252803775E+02 -0.12712268518E+03  0.14264065575E+03  0.41800000000E+01 0.  1.
         -5    1    3    3    0  502  0.29749134685E+02  0.32722528505E+02  0.76486373646E+01  0.45074925843E+02  0.41800000000E+01 0.  1.
        -11    1    4    4    0    0  0.24541580687E+02 -0.36265012619E+02 -0.11040945782E+03  0.11877579173E+03  0.00000000000E+00 0. -1.
         11    1    4    4    0    0 -0.86374273874E+00 -0.32710319660E+02  0.17258419710E+01  0.32767203028E+02  0.00000000000E+00 0.  1.
</event>
<event>
 8    1  0.3896452E-010  0.2257219E+03  0.7561462E-02  0.1129688E+00
         -1   -1    0    0    0  501 -0.00000000000E+00  0.00000000000E+00  0.75280224090E+02  0.75280224090E+02  0.00000000000E+00 0.  1.
          1   -1    0    0  501    0  0.00000000000E+00 -0.00000000000E+00 -0.70148403110E+03  0.70148403110E+03  0.00000000000E+00 0. -1.
         25    2    1    2    0    0  0.54127078867E+02 -0.19855881531E+03 -0.32840244068E+03  0.40724881873E+03  0.12509233991E+03 0.  0.
         23    2    1    2    0    0 -0.54127078867E+02  0.19855881531E+03 -0.29780136632E+03  0.36951543646E+03  0.74166435739E+02 0.  0.
          5    1    3    3  502    0  0.82717238744E+02 -0.99218556131E+02 -0.12900338015E+03  0.18260834580E+03  0.41800000000E+01 0.  1.
         -5    1    3    3    0  502 -0.28590159877E+02 -0.99340259183E+02 -0.19939906054E+03  0.22464047293E+03  0.41800000000E+01 0.  1.
        -11    1    4    4    0    0 -0.69384481073E+02  0.11913658389E+03 -0.18545718054E+03  0.23108893883E+03  0.00000000000E+00 0.  1.
         11    1    4    4    0    0  0.15257402206E+02  0.79422231426E+02 -0.11234418578E+03  0.13842649763E+03  0.00000000000E+00 0. -1.
</event>
<event>
 7    1  0.3896452E-010  0.5342918E+02  0.7561462E-02  0.1427677E+00
         -1   -1    0    0    0  501 -0.00000000000E+00  0.00000000000E+00  0.82667242072E+02  0.82667242072E+02  0.00000000000E+00 0.  1.
          1   -1    0    0  501    0  0.00000000000E+00 -0.00000000000E+00 -0.11781869258E+03  0.11781869258E+03  0.00000000000E+00 0. -1.
         25    2    1    2    0    0 -0.41297961470E+02  0.12124992565E+02 -0.60384178229E+01  0.13242416712E+03  0.12508861052E+03 0.  0.
          5    1    3    3  502    0 -0.35311206951E+02 -0.12545305245E+02  0.54714164185E+02  0.66448312111E+02  0.41800000000E+01 0. -1.
         -5    1    3    3    0  502 -0.59867545196E+01  0.24670297810E+02 -0.60752582008E+02  0.65975855010E+02  0.41800000000E+01 0. -1.
        -11    1    1    2    0    0  0.31207120433E+02 -0.11687684768E+02 -0.40757897223E+02  0.52646866260E+02  0.00000000000E+00 0. -1.
         11    1    1    2    0    0  0.10090841038E+02 -0.43730779697E+00  0.11644864541E+02  0.15414901269E+02  0.00000000000E+00 0.  1.
</event>
<event>
 8    1  0.3896452E-010  0.1389392E+03  0.7561462E-02  0.1214764E+00
          2   -1    0    0  501    0  0.00000000000E+00  0.00000000000E+00  0.53919944826E+03  0.53919944826E+03  0.00000000000E+00 0.  1.
         -2   -1    0    0    0  501 -0.00000000000E+00 -0.00000000000E+00 -0.55580172355E+02  0.55580172355E+02  0.00000000000E+00 0. -1.
         25    2    1    2    0    0 -0.30755309202E+02 -0.11504314916E+03  0.18736702253E+03  0.25482425477E+03  0.12509270352E+03 0.  0.
         23    2    1    2    0    0  0.30755309202E+02  0.11504314916E+03  0.29625225337E+03  0.33995536585E+03  0.11671948392E+03 0.  0.
          5    1    3    3  502    0 -0.69758455336E+02 -0.68317790557E+02  0.16104809373E+03  0.18838132469E+03  0.41800000000E+01 0.  1.
         -5    1    3    3    0  502  0.39003146133E+02 -0.46725358601E+02  0.26318928803E+02  0.66442930083E+02  0.41800000000E+01 0.  1.
        -11    1    4    4    0    0  0.61307774469E+01  0.29149374211E+02 -0.75662397964E+00  0.29796726815E+02  0.00000000000E+00 0. -1.
         11    1    4    4    0    0  0.24624531755E+02  0.85893774946E+02  0.29700887735E+03  0.31015863903E+03  0.00000000000E+00 0.  1.
</event>
<event>
 8    1  0.5068240E-010  0.2380429E+03  0.7561462E-02  0.1121104E+00
          1   -1    0    0  501    0  0.00000000000E+00  0.00000000000E+00  0.97182579510E+03  0.97182579510E+03  0.00000000000E+00 0. -1.
         -1   -1    0    0    0  501 -0.00000000000E+00 -0.00000000000E+00 -0.72481289038E+02  0.72481289038E+02  0.00000000000E+00 0.  1.
         25    2    1    2    0    0  0.24972861293E+01 -0.22330994013E+03  0.62605488406E+03  0.67636116305E+03  0.12508452832E+03 0.  0.
         23    2    1    2    0    0 -0.24972861293E+01  0.22330994013E+03  0.27328962200E+03  0.36794592109E+03  0.10403565519E+03 0.  0.
          5    1    3    3  502    0  0.30176675422E+02 -0.69205158642E+02  0.88251418658E+02  0.11621433224E+03  0.41800000000E+01 0.  1.
         -5    1    3    3    0  502 -0.27679389293E+02 -0.15410478149E+03  0.53780346541E+03  0.56014683082E+03  0.41800000000E+01 0.  1.
        -11    1    4    4    0    0  0.46650723010E+02  0.83496889609E+02  0.13344841023E+03  0.16418434373E+03  0.00000000000E+00 0. -1.
         11    1    4    4    0    0 -0.49148009139E+02  0.13981305053E+03  0.13984121177E+03  0.20376157736E+03  0.00000000000E+00 0.  1.
</event>
<event>
 8    1  0.3896452E-010  0.1101833E+03  0.7561462E-02  0.1260231E+00
          1   -1    0    0  501    0  0.00000000000E+00  0.00000000000E+00  0.89887546560E+03  0.89887546560E+03  0.00000000000E+00 0. -1.
         -1   -1    0    0    0  501 -0.00000000000E+00 -0.00000000000E+00 -0.14265092867E+02  0.14265092867E+02  0.00000000000E+00 0.  1.
         25    2    1    2    0    0 -0.23639659089E+02  0.57644064712E+02  0.54696874915E+03  0.56453860590E+03  0.12508938134E+03 0.  0.
         23    2    1    2    0    0  0.23639659089E+02 -0.57644064712E+02  0.33764162358E+03  0.34860195257E+03  0.60330619770E+02 0.  0.
          5    1    3    3  502    0 -0.68118879061E+02  0.10736367226E+02  0.36255217012E+03  0.36907587258E+03  0.41800000000E+01 0.  1.
         -5    1    3    3    0  502  0.44479219972E+02  0.46907697485E+02  0.18441657904E+03  0.19546273332E+03  0.41800000000E+01 0.  1.
        -11    1    4    4    0    0 -0.19066316739E+02 -0.30275561622E+02  0.15214451528E+03  0.15629487387E+03  0.00000000000E+00 0.  1.
         11    1    4    4    0    0  0.42705975828E+02 -0.27368503090E+02  0.18549710829E+03  0.19230707870E+03  0.00000000000E+00 0. -1.
</event>
<event>
 8    1  0.3896452E-010  0.1106135E+03  0.7561462E-02  0.1259438E+00
         -2   -1    0    0    0  501 -0.00000000000E+00  0.00000000000E+00  0.21862840074E+03  0.21862840074E+03  0.00000000000E+00 0.  1.
          2   -1    0    0  501    0  0.00000000000E+00 -0.00000000000E+00 -0.80541489419E+02  0.80541489419E+02  0.00000000000E+00 0. -1.
         25    2    1    2    0    0  0.80712180910E+02  0.68243003462E+01  0.46803520963E+02  0.15620758873E+03  0.12509681843E+03 0.  0.
         23    2    1    2    0    0 -0.80712180910E+02 -0.68243003462E+01  0.91283390355E+02  0.14296230142E+03  0.74461634761E+02 0.  0.
          5    1    3    3  502    0  0.44240967430E+02 -0.39922439408E+02 -0.23457451567E+02  0.64177790562E+02  0.41800000000E+01 0. -1.
         -5    1    3    3    0  502  0.36471213481E+02  0.46746739754E+02  0.70260972530E+02  0.92029798170E+02  0.41800000000E+01 0. -1.
        -11    1    4    4    0    0  0.49562618001E+01  0.13177981730E+02  0.37004131871E+02  0.39592038455E+02  0.00000000000E+00 0.  1.
         11    1    4    4    0    0 -0.85668442710E+02 -0.20002282076E+02  0.54279258484E+02  0.10337026297E+03  0.00000000000E+00 0. -1.
</event>
<event>
 7    1  0.3896452E-010  0.8493993E+02  0.7561462E-02  0.1315590E+00
          2   -1    0    0  501    0  0.00000000000E+00  0.00000000000E+00  0.10890481904E+03  0.10890481904E+03  0.00000000000E+00 0.  1.
         -2   -1    0    0    0  501 -0.00000000000E+00 -0.00000000000E+00 -0.70732735216E+02  0.70732735216E+02  0.00000000000E+00 0. -1.
         25    2    1    2    0    0 -0.17496538379E+02 -0.35862482264E+02  0.18728568047E+02  0.13262814140E+03  0.12508884100E+03 0.  0.
          5    1    3    3  502    0  0.47503791282E+02 -0.39398506847E+02 -0.75236292943E+01  0.62313160133E+02  0.41800000000E+01 0. -1.
         -5    1    3    3    0  502 -0.65000329661E+02  0.35360245835E+01  0.26252197341E+02  0.70314981271E+02  0.41800000000E+01 0. -1.
        -11    1    1    2    0    0  0.44914308480E+01  0.26220884388E+02  0.11649602009E+02  0.29041710626E+02  0.00000000000E+00 0.  1.
         11    1    1    2    0    0  0.13005107531E+02  0.96415978763E+01  0.77939137686E+01  0.17967702227E+02  0.00000000000E+00 0. -1.
</event>
<event>
 8    1  0.3896452E-010  0.1811418E+03  0.7561462E-02  0.1166703E+00
         -2   -1    0    0    0  501 -0.00000000000E+00  0.00000000000E+00  0.63769554778E+02  0.63769554778E+02  0.00000000000E+00 0.  1.
          2   -1    0    0  501    0  0.00000000000E+00 -0.00000000000E+00 -0.65479452822E+03  0.65479452822E+03  0.00000000000E+00 0. -1.
         25    2    1    2    0    0  0.14993093795E+03  0.92896838166E+02 -0.32533659664E+03  0.39064059522E+03  0.12508822814E+03 0.  0.
         23    2    1    2    0    0 -0.14993093795E+03 -0.92896838166E+02 -0.26568837680E+03  0.32792348778E+03  0.76383189087E+02 0.  0.
          5    1    3    3  502    0  0.14193845113E+03  0.96939842555E+02 -0.19517806176E+03  0.26010729551E+03  0.41800000000E+01 0.  1.
         -5    1    3    3    0  502  0.79924868238E+01 -0.40430043893E+01 -0.13015853488E+03  0.13053329971E+03  0.41800000000E+01 0.  1.
        -11    1    4    4    0    0 -0.66241816276E+02 -0.19240885888E+02 -0.50229150984E+02  0.85329698944E+02  0.00000000000E+00 0.  1.
         11    1    4    4    0    0 -0.83689121679E+02 -0.73655952278E+02 -0.21545922582E+03  0.24259378884E+03  0.00000000000E+00 0. -1.
</event>
<event>
 8    1  0.3896452E-010  0.1192072E+03  0.7561462E-02  0.1244411E+00
          1   -1    0    0  501    0  0.00000000000E+00  0.00000000000E+00  0.96364330559E+02  0.96364330559E+02  0.00000000000E+00 0. -1.
         -1   -1    0    0    0  501 -0.00000000000E+00 -0.00000000000E+00 -0.17624014818E+03  0.17624014818E+03  0.00000000000E+00 0.  1.
         25    2    1    2    0    0  0.76935524384E+02  0.26195983558E+02 -0.57018323234E+02  0.15969926809E+03  0.12508981803E+03 0.  0.
         23    2    1    2    0    0 -0.76935524384E+02 -0.26195983558E+02 -0.22857494389E+02  0.11290521066E+03  0.74965439214E+02 0.  0.
          5    1    3    3  502    0  0.70700105250E+02 -0.27579807779E+02  0.63278979763E+01  0.76267066105E+02  0.41800000000E+01 0. -1.
         -5    1    3    3    0  502  0.62354191344E+01  0.53775791337E+02 -0.63346221210E+02  0.83432201980E+02  0.41800000000E+01 0. -1.
        -11    1    4    4    0    0  0.19444379022E-02  0.18922116930E+02 -0.13459002053E+02  0.23220492009E+02  0.00000000000E+00 0.  1.
         11    1    4    4    0    0 -0.76937468822E+02 -0.45118100489E+02 -0.93984923363E+01  0.89684718646E+02  0.00000000000E+00 0. -1.
</event>
<event>
 8    1  0.3896452E-010  0.1287051E+03  0.7561462E-02  0.1229390E+00
          2   -1    0    0  501    0  0.00000000000E+00  0.00000000000E+00  0.47899137972E+03  0.47899137972E+03  0.00000000000E+00 0. -1.
         -2   -1    0    0    0  501 -0.00000000000E+00 -0.00000000000E+00 -0.36691319063E+02  0.36691319063E+02  0.00000000000E+00 0.  1.
         25    2    1    2    0    0 -0.56267709403E+02  0.20448003266E+02  0.20368430391E+03  0.24640411659E+03  0.12507404628E+03 0.  0.
         23    2    1    2    0    0  0.56267709403E+02 -0.20448003266E+02  0.23861575674E+03  0.26927858219E+03  0.10949565974E+03 0.  0.
          5    1    3    3  502    0 -0.93846997688E+02  0.19227321219E+02  0.11334681267E+03  0.14846521882E+03  0.41800000000E+01 0. -1.
         -5    1    3    3    0  502  0.37579288285E+02  0.12206820478E+01  0.90337491240E+02  0.97938897769E+02  0.41800000000E+01 0. -1.
        -11    1    4    4    0    0  0.80572048986E+02  0.13750172239E+02  0.17392635637E+03  0.19217517986E+03  0.00000000000E+00 0.  1.
         11    1    4    4    0    0 -0.24304339583E+02 -0.34198175505E+02  0.64689400373E+02  0.77103402331E+02  0.00000000000E+00 0. -1.
</event>
<event>
 7    1  0.3896452E-010  0.1003111E+03  0.7561462E-02  0.1279643E+00
          1   -1    0    0  501    0  0.00000000000E+00  0.00000000000E+00  0.69235014826E+03  0.69235014826E+03  0.00000000000E+00 0. -1.
         -1   -1    0    0    0  501 -0.00000000000E+00 -0.00000000000E+00 -0.16292881390E+02  0.16292881390E+02  0.00000000000E+00 0.  1.
         25    2    1    2    0    0  0.48663591593E+02 -0.42345733105E+02  0.40157471424E+03  0.42552459808E+03  0.12509047202E+03 0.  0.
          5    1    3    3  502    0  0.75978629120E+02 -0.63409385951E+02  0.22926636385E+03  0.24974795355E+03  0.41800000000E+01 0. -1.
         -5    1    3    3    0  502 -0.27315037527E+02  0.21063652846E+02  0.17230835039E+03  0.17577664453E+03  0.41800000000E+01 0. -1.
        -11    1    1    2    0    0 -0.15899379382E+02  0.25331122725E+02  0.85938345060E+02  0.90993709645E+02  0.00000000000E+00 0.  1.
         11    1    1    2    0    0 -0.32764212211E+02  0.17014610380E+02  0.18854420757E+03  0.19212472193E+03  0.00000000000E+00 0. -1.
</event>
<event>
 8    1  0.3896452E-010  0.1858228E+03  0.7561462E-02  0.1162284E+00
          1   -1    0    0  501    0  0.00000000000E+00  0.00000000000E+00  0.14951560505E+04  0.14951560505E+04  0.00000000000E+00 0. -1.
         -1   -1    0    0    0  501 -0.00000000000E+00 -0.00000000000E+00 -0.27040877169E+02  0.27040877169E+02  0.00000000000E+00 0.  1.
         25    2    1    2    0    0  0.16868291994E+03 -0.46759361127E+02  0.70707368156E+03  0.73908036145E+03  0.12508486797E+03 0.  0.
         23    2    1    2    0    0 -0.16868291994E+03  0.46759361127E+02  0.76104149178E+03  0.78311656623E+03  0.58711487444E+02 0.  0.
          5    1    3    3  502    0  0.68143132235E+01  0.12292632663E+02  0.25255432945E+03  0.25297965414E+03  0.41800000000E+01 0. -1.
         -5    1    3    3    0  502  0.16186860671E+03 -0.59051993790E+02  0.45451935211E+03  0.48610070732E+03  0.41800000000E+01 0. -1.
        -11    1    4    4    0    0 -0.14077318550E+03  0.60851110811E+02  0.63183915946E+03  0.65018510508E+03  0.00000000000E+00 0.  1.
         11    1    4    4    0    0 -0.27909734439E+02 -0.14091749684E+02  0.12920233232E+03  0.13293146115E+03  0.00000000000E+00 0. -1.
</event>
<event>
 8    1  0.3896452E-010  0.9140610E+02  0.7561462E-02  0.1299482E+00
         -1   -1    0    0    0  501 -0.00000000000E+00  0.00000000000E+00  0.94432604068E+02  0.94432604068E+02  0.00000000000E+00 0.  1.
          1   -1    0    0  501    0  0.00000000000E+00 -0.00000000000E+00 -0.15204454330E+03  0.15204454330E+03  0.00000000000E+00 0. -1.
         25    2    1    2    0    0  0.23684121619E+02 -0.21200292937E+02 -0.22414334617E+02  0.13099741709E+03  0.12509009094E+03 0.  0.
         23    2    1    2    0    0 -0.23684121619E+02  0.21200292937E+02 -0.35197604611E+02  0.11547973027E+03  0.10529153193E+03 0.  0.
          5    1    3    3  502    0  0.54171272086E+02 -0.14797851108E+02 -0.59809648370E+02  0.82147243137E+02  0.41800000000E+01 0.  1.
         -5    1    3    3    0  502 -0.30487150467E+02 -0.64024418298E+01  0.37395313752E+02  0.48850173957E+02  0.41800000000E+01 0.  1.
        -11    1    4    4    0    0 -0.48789565936E+02 -0.14975087549E+02  0.10407068603E+02  0.52086294438E+02  0.00000000000E+00 0.  1.
         11    1    4    4    0    0  0.25105444317E+02  0.36175380487E+02 -0.45604673214E+02  0.63393435833E+02  0.00000000000E+00 0. -1.
</event>
<event>
 8    1  0.3896452E-010  0.2107632E+03  0.7561462E-02  0.1140963E+00
         -3   -1    0    0    0  501 -0.00000000000E+00  0.00000000000E+00  0.68815886187E+02  0.68815886187E+02  0.00000000000E+00 0.  1.
          3   -1    0    0  501    0  0.00000000000E+00 -0.00000000000E+00 -0.71959221911E+03  0.71959221911E+03  0.00000000000E+00 0. -1.
         25    2    1    2    0    0  0.16663270239E+03  0.89248754832E+02 -0.34062310681E+03  0.40914932261E+03  0.12508904651E+03 0.  0.
         23    2    1    2    0    0 -0.16663270239E+03 -0.89248754832E+02 -0.31015322611E+03  0.37925878268E+03  0.10913479203E+03 0.  0.
          5    1    3    3  502    0  0.49568130580E+02  0.89298512321E+02 -0.21089045097E+03  0.23435758700E+03  0.41800000000E+01 0.  1.
         -5    1    3    3    0  502  0.11706457181E+03 -0.49757489703E-01 -0.12973265583E+03  0.17479173561E+03  0.41800000000E+01 0.  1.
        -11    1    4    4    0    0 -0.12515266080E+03 -0.98979386153E+02 -0.29239702012E+03  0.33310077269E+03  0.00000000000E+00 0. -1.
         11    1    4    4    0    0 -0.41480041582E+02  0.97306313214E+01 -0.17756205989E+02  0.46158009995E+02  0.00000000000E+00 0.  1.
</event>
<event>
 8    1  0.3896452E-010  0.1169541E+03  0.7561462E-02  0.1248208E+00
          2   -1    0    0  501    0  0.00000000000E+00  0.00000000000E+00  0.70959089336E+03  0.70959089336E+03  0.00000000000E+00 0. -1.
         -2   -1    0    0    0  501 -0.00000000000E+00 -0.00000000000E+00 -0.27504247966E+02  0.27504247966E+02  0.00000000000E+00 0.  1.
         25    2    1    2    0    0  0.77836438055E+02 -0.84354232384E+01  0.32743279772E+03  0.35915127148E+03  0.12509089228E+03 0.  0.
         23    2    1    2    0    0 -0.77836438055E+02  0.84354232384E+01  0.35465384768E+03  0.37794386985E+03  0.10455883333E+03 0.  0.
          5    1    3    3  502    0  0.68343793927E+02 -0.34226321668E+02  0.82107677999E+02  0.11225621787E+03  0.41800000000E+01 0.  1.
         -5    1    3    3    0  502  0.94926441284E+01  0.25790898429E+02  0.24532511972E+03  0.24689505362E+03  0.41800000000E+01 0.  1.
        -11    1    4    4    0    0 -0.42845100000E+02 -0.47256882223E+02  0.19869824561E+03  0.20868614789E+03  0.00000000000E+00 0.  1.
         11    1    4    4    0    0 -0.34991338056E+02  0.55692305461E+02  0.15595560206E+03  0.16925772196E+03  0.00000000000E+00 0. -1.
</event>
<event>
 8    1  0.3896452E-010  0.1957602E+03  0.7561462E-02  0.1153366E+00
          2   -1    0    0  501    0  0.00000000000E+00  0.00000000000E+00  0.10353171638E+04  0.10353171638E+04  0.00000000000E+00 0. -1.
         -2   -1    0    0    0  501 -0.00000000000E+00 -0.00000000000E+00 -0.52055351640E+02  0.52055351640E+02  0.00000000000E+00 0.  1.
         25    2    1    2    0    0 -0.17587573385E+03  0.64343178246E+02  0.33466156153E+03  0.40338234504E+03  0.12508651880E+03 0.  0.
         23    2    1    2    0    0  0.17587573385E+03 -0.64343178246E+02  0.64860025061E+03  0.68399017038E+03  0.10994521243E+03 0.  0.
          5    1    3    3  502    0 -0.53437162975E+02 -0.12349967938E+02  0.22586051030E+02  0.59461367256E+02  0.41800000000E+01 0.  1.
         -5    1    3    3    0  502 -0.12243857087E+03  0.76693146184E+02  0.31207551050E+03  0.34392097779E+03  0.41800000000E+01 0.  1.
        -11    1    4    4    0    0  0.88328333578E+02 -0.54721794623E+02  0.50463181924E+03  0.51521805316E+03  0.00000000000E+00 0. -1.
         11    1    4    4    0    0  0.87547400268E+02 -0.96213836227E+01  0.14396843138E+03  0.16877211722E+03  0.00000000000E+00 0.  1.
</event>
<event>
 8    1  0.3896452E-010  0.2338484E+03  0.7561462E-02  0.1123960E+00
         -2   -1    0    0    0  501 -0.00000000000E+00  0.00000000000E+00  0.15599999958E+03  0.15599999958E+03  0.00000000000E+00 0. -1.
          2   -1    0    0  501    0  0.00000000000E+00 -0.00000000000E+00 -0.10238877006E+04  0.10238877006E+04  0.00000000000E+00 0.  1.
         25    2    1    2    0    0 -0.18692337332E+03 -0.99792775707E+02 -0.90512494259E+03  0.93797566375E+03  0.12509291951E+03 0.  0.
         23    2    1    2    0    0  0.18692337332E+03  0.99792775707E+02  0.37237241546E+02  0.24191203646E+03  0.11061589239E+03 0.  0.
          5    1    3    3  502    0 -0.18480167921E+03 -0.12323170908E+03 -0.81729030554E+03  0.84694665162E+03  0.41800000000E+01 0.  1.
         -5    1    3    3    0  502 -0.21216941037E+01  0.23438933369E+02 -0.87834637052E+02  0.91029012131E+02  0.41800000000E+01 0.  1.
        -11    1    4    4    0    0 -0.12035672956E+01  0.15395622763E+02  0.32140966395E+02  0.35658315935E+02  0.00000000000E+00 0. -1.
         11    1    4    4    0    0  0.18812694061E+03  0.84397152944E+02  0.50962751503E+01  0.20625372052E+03  0.00000000000E+00 0.  1.
</event>
<event>
 8    1  0.3896452E-010  0.3449229E+03  0.7561462E-02  0.1064718E+00
         -1   -1    0    0    0  501 -0.00000000000E+00  0.00000000000E+00  0.58908893829E+03  0.58908893829E+03  0.00000000000E+00 0.  1.
          1   -1    0    0  501    0  0.00000000000E+00 -0.00000000000E+00 -0.28248218734E+03  0.28248218734E+03  0.00000000000E+00 0. -1.
         25    2    1    2    0    0  0.30746167007E+03  0.13007103931E+03  0.38213051546E+03  0.52261054599E+03  0.12508756175E+03 0.  0.
         23    2    1    2    0    0 -0.30746167007E+03 -0.13007103931E+03 -0.75523764518E+02  0.34896057964E+03  0.67959497565E+02 0.  0.
          5    1    3    3  502    0  0.81981030855E+02 -0.20735633821E+02  0.78880302275E+02  0.11571702734E+03  0.41800000000E+01 0. -1.
         -5    1    3    3    0  502  0.22548063921E+03  0.15080667313E+03  0.30325021319E+03  0.40689351865E+03  0.41800000000E+01 0. -1.
        -11    1    4    4    0    0 -0.16819612362E+03 -0.73969737409E+02 -0.68789442669E+01  0.18387163438E+03  0.00000000000E+00 0. -1.
         11    1    4    4    0    0 -0.13926554645E+03 -0.56101301896E+02 -0.68644820251E+02  0.16508894527E+03  0.00000000000E+00 0.  1.
</event>
<event>
 8    1  0.4460553E-010  0.1215427E+03  0.7561462E-02  0.1240574E+00
         -2   -1    0    0    0  501 -0.00000000000E+00  0.00000000000E+00  0.35986373746E+02  0.35986373746E+02  0.00000000000E+00 0.  1.
          2   -1    0    0  501    0  0.00000000000E+00 -0.00000000000E+00 -0.79164032413E+03  0.79164032413E+03  0.00000000000E+00 0. -1.
         25    2    1    2    0    0 -0.57931213625E+02  0.66821476761E+02 -0.60094519737E+03  0.62016511597E+03  0.12509398691E+03 0.  0.
         23    2    1    2    0    0  0.57931213625E+02 -0.66821476761E+02 -0.15470875301E+03  0.20746158190E+03  0.10622793624E+03 0.  0.
          5    1    3    3  502    0  0.32284404362E+02  0.52455378728E+02 -0.23805264251E+03  0.24592759611E+03  0.41800000000E+01 0. -1.
         -5    1    3    3    0  502 -0.90215617987E+02  0.14366098033E+02 -0.36289255485E+03  0.37423751986E+03  0.41800000000E+01 0. -1.
        -11    1    4    4    0    0  0.20423126630E+02 -0.12687782765E+02 -0.13723411737E+03  0.13932439450E+03  0.00000000000E+00 0. -1.
         11    1    4    4    0    0  0.37508086995E+02 -0.54133693996E+02 -0.17474635641E+02  0.68137187398E+02  0.00000000000E+00 0.  1.
</event>
<event>
 8    1  0.3896452E-010  0.8985981E+02  0.7561462E-02  0.1303192E+00
         -1   -1    0    0    0  501 -0.00000000000E+00  0.00000000000E+00  0.24348721721E+02  0.24348721721E+02  0.00000000000E+00 0.  1.
          1   -1    0    0  501    0  0.00000000000E+00 -0.00000000000E+00 -0.66085192358E+03  0.66085192358E+03  0.00000000000E+00 0. -1.
         25    2    1    2    0    0  0.15309423434E+01  0.47802871234E+02 -0.55122711723E+03  0.56726233696E+03  0.12509103038E+03 0.  0.
         23    2    1    2    0    0 -0.15309423434E+01 -0.47802871234E+02 -0.85276084627E+02  0.11793830834E+03  0.65954345436E+02 0.  0.
          5    1    3    3  502    0  0.45926722704E+02 -0.40731657769E+01 -0.38102836582E+03  0.38383061694E+03  0.41800000000E+01 0.  1.
         -5    1    3    3    0  502 -0.44395780361E+02  0.51876037011E+02 -0.17019875141E+03  0.18343172002E+03  0.41800000000E+01 0.  1.
        -11    1    4    4    0    0 -0.11521121104E+02  0.40479923233E+01 -0.56494723182E+02  0.57799448273E+02  0.00000000000E+00 0.  1.
         11    1    4    4    0    0  0.99901787610E+01 -0.51850863557E+02 -0.28781361445E+02  0.60138860065E+02  0.00000000000E+00 0. -1.
</event>
<event>
 8    1  0.3896452E-010  0.8093278E+02  0.7561462E-02  0.1326425E+00
          2   -1    0    0  501    0  0.00000000000E+00  0.00000000000E+00  0.44074947910E+03  0.44074947910E+03  0.00000000000E+00 0. -1.
         -2   -1    0    0    0  501 -0.00000000000E+00 -0.00000000000E+00 -0.38852067890E+02  0.38852067890E+02  0.00000000000E+00 0.  1.
         25    2    1    2    0    0 -0.13217130234E+02 -0.20082774373E+02  0.11930526704E+03  0.17452789472E+03  0.12509288122E+03 0.  0.
         23    2    1    2    0    0  0.13217130234E+02  0.20082774373E+02  0.28259214417E+03  0.30507365228E+03  0.11239930164E+03 0.  0.
          5    1    3    3  502    0  0.18251033884E+02 -0.15152862088E+02  0.13614319466E+03  0.13825755429E+03  0.41800000000E+01 0.  1.
         -5    1    3    3    0  502 -0.31468164118E+02 -0.49299122846E+01 -0.16837927615E+02  0.36270340424E+02  0.41800000000E+01 0.  1.
        -11    1    4    4    0    0  0.46531063723E+02 -0.22419981763E+02  0.19869641734E+03  0.20529993117E+03  0.00000000000E+00 0. -1.
         11    1    4    4    0    0 -0.33313933489E+02  0.42502756136E+02  0.83895726831E+02  0.99773721110E+02  0.00000000000E+00 0.  1.
</event>
<event>
 8    1  0.4284663E-010  0.9661141E+02  0.7561462E-02  0.1287587E+00
         -4   -1    0    0    0  501 -0.00000000000E+00  0.00000000000E+00  0.51522900363E+02  0.51522900363E+02  0.00000000000E+00 0.  1.
          4   -1    0    0  501    0  0.00000000000E+00 -0.00000000000E+00 -0.24344758810E+03  0.24344758810E+03  0.00000000000E+00 0. -1.
         25    2    1    2    0    0 -0.29041706019E+02  0.25158522356E+02 -0.14758334190E+03  0.19724197174E+03  0.12508869123E+03 0.  0.
         23    2    1    2    0    0  0.29041706019E+02 -0.25158522356E+02 -0.44341345834E+02  0.97728516724E+02  0.78155844920E+02 0.  0.
          5    1    3    3  502    0  0.12824077738E+02  0.54647194634E+02 -0.20055745998E+02  0.59753478549E+02  0.41800000000E+01 0.  1.
         -5    1    3    3    0  502 -0.41865783756E+02 -0.29488672279E+02 -0.12752759591E+03  0.13748849319E+03  0.41800000000E+01 0.  1.
        -11    1    4    4    0    0  0.55304845902E+02 -0.14198380252E+02 -0.37955000631E+02  0.68562395341E+02  0.00000000000E+00 0.  1.
         11    1    4    4    0    0 -0.26263139884E+02 -0.10960142103E+02 -0.63863452030E+01  0.29166121383E+02  0.00000000000E+00 0. -1.
</event>
<event>
 8    1  0.3896452E-010  0.8044865E+02  0.7561462E-02  0.1327783E+00
         -1   -1    0    0    0  501 -0.00000000000E+00  0.00000000000E+00  0.74596271955E+03  0.74596271955E+03  0.00000000000E+00 0.  1.
          1   -1    0    0  501    0  0.00000000000E+00 -0.00000000000E+00 -0.16453757648E+02  0.16453757648E+02  0.00000000000E+00 0. -1.
         25    2    1    2    0    0 -0.44655579507E+02 -0.89494424510E+01  0.46654764274E+03  0.48516560470E+03  0.12507896603E+03 0.  0.
         23    2    1    2    0    0  0.44655579507E+02  0.89494424510E+01  0.26296131917E+03  0.27725087250E+03  0.75134397049E+02 0.  0.
          5    1    3    3  502    0  0.13814232721E+02 -0.18073160008E+01 -0.34864278699E+00  0.14549686202E+02  0.41800000000E+01 0.  1.
         -5    1    3    3    0  502 -0.58469812228E+02 -0.71421264502E+01  0.46689628552E+03  0.47061591850E+03  0.41800000000E+01 0.  1.
        -11    1    4    4    0    0  0.16550920672E+02 -0.32934751407E+02  0.95838240108E+02  0.10268202906E+03  0.00000000000E+00 0. -1.
         11    1    4    4    0    0  0.28104658835E+02  0.41884193858E+02  0.16712307906E+03  0.17456884344E+03  0.00000000000E+00 0.  1.
</event>
<event>
 8    1  0.3896452E-010  0.9920087E+02  0.7561462E-02  0.1281985E+00
          1   -1    0    0  501    0  0.00000000000E+00  0.00000000000E+00  0.12397994483E+03  0.12397994483E+03  0.00000000000E+00 0. -1.
         -1   -1    0    0    0  501 -0.00000000000E+00 -0.00000000000E+00 -0.10554642219E+03  0.10554642219E+03  0.00000000000E+00 0.  1.
         25    2    1    2    0    0  0.34635456439E+02  0.42470321588E+02  0.16940138035E+02  0.13761542808E+03  0.12509074590E+03 0.  0.
         23    2    1    2    0    0 -0.34635456439E+02 -0.42470321588E+02  0.14933846139E+01  0.91910938938E+02  0.73770234107E+02 0.  0.
          5    1    3    3  502    0  0.56562393134E+02  0.72022080268E+02  0.32749859066E+02  0.97347367874E+02  0.41800000000E+01 0. -1.
         -5    1    3    3    0  502 -0.21926936695E+02 -0.29551758680E+02 -0.15809721031E+02  0.40268060208E+02  0.41800000000E+01 0. -1.
        -11    1    4    4    0    0  0.64888869117E+01 -0.23546953116E+02  0.29792053629E+02  0.38524422303E+02  0.00000000000E+00 0. -1.
         11    1    4    4    0    0 -0.41124343351E+02 -0.18923368473E+02 -0.28298669015E+02  0.53386516635E+02  0.00000000000E+00 0.  1.
</event>
<event>
 8    1  0.3896452E-010  0.1299100E+03  0.7561462E-02  0.1227589E+00
         -3   -1    0    0    0  501 -0.00000000000E+00  0.00000000000E+00  0.10250614866E+04  0.10250614866E+04  0.00000000000E+00 0.  1.
          3   -1    0    0  501    0  0.00000000000E+00 -0.00000000000E+00 -0.19116582809E+02  0.19116582809E+02  0.00000000000E+00 0. -1.
         25    2    1    2    0    0  0.25836612119E+02  0.61188447464E+02  0.67050303375E+03  0.68529813097E+03  0.12509058080E+03 0.  0.
         23    2    1    2    0    0 -0.25836612119E+02 -0.61188447464E+02  0.33544187000E+03  0.35887993841E+03  0.10891283401E+03 0.  0.
          5    1    3    3  502    0 -0.10763061096E+02  0.90710674119E+02  0.50418016645E+03  0.51240548643E+03  0.41800000000E+01 0.  1.
         -5    1    3    3    0  502  0.36599673215E+02 -0.29522226656E+02  0.16632286731E+03  0.17289264454E+03  0.41800000000E+01 0.  1.
        -11    1    4    4    0    0 -0.51459206917E+02  0.35134743045E+01  0.20078051012E+03  0.20729980155E+03  0.00000000000E+00 0. -1.
         11    1    4    4    0    0  0.25622594798E+02 -0.64701921768E+02  0.13466135988E+03  0.15158013686E+03  0.00000000000E+00 0.  1.
</event>
<event>
 7    1  0.3896452E-010  0.1615888E+03  0.7561462E-02  0.1186915E+00
          4   -1    0    0  501    0  0.00000000000E+00  0.00000000000E+00  0.78687395138E+03  0.78687395138E+03  0.00000000000E+00 0.  1.
         -4   -1    0    0    0  501 -0.00000000000E+00 -0.00000000000E+00 -0.43290463525E+02  0.43290463525E+02  0.00000000000E+00 0. -1.
         25    2    1    2    0    0 -0.79152085672E+02 -0.48197392183E+02  0.19666582200E+03  0.25082448427E+03  0.12508970816E+03 0.  0.
          5    1    3    3  502    0 -0.10195425155E+03 -0.64896610671E+02  0.12619546105E+03  0.17478274022E+03  0.41800000000E+01 0.  1.
         -5    1    3    3    0  502  0.22802165883E+02  0.16699218488E+02  0.70470360946E+02  0.76041744055E+02  0.41800000000E+01 0.  1.
        -11    1    1    2    0    0 -0.31984425741E+02  0.53592424154E+02  0.32670959144E+03  0.33261736057E+03  0.00000000000E+00 0.  1.
         11    1    1    2    0    0  0.11113651141E+03 -0.53950319715E+01  0.22020807441E+03  0.24672257006E+03  0.00000000000E+00 0. -1.
</event>
<event>
 7    1  0.3896452E-010  0.1555268E+03  0.7561462E-02  0.1193842E+00
         -2   -1    0    0    0  501 -0.00000000000E+00  0.00000000000E+00  0.16230657574E+03  0.16230657574E+03  0.00000000000E+00 0.  1.
          2   -1    0    0  501    0  0.00000000000E+00 -0.00000000000E+00 -0.18815707486E+03  0.18815707486E+03  0.00000000000E+00 0. -1.
         25    2    1    2    0    0  0.72133994549E+02 -0.88985575006E+02  0.19657306382E+02  0.17075655845E+03  0.12509854847E+03 0.  0.
          5    1    3    3  502    0 -0.20370749305E+02 -0.35169641770E+02  0.44913747498E+02  0.60717281261E+02  0.41800000000E+01 0. -1.
         -5    1    3    3    0  502  0.92504743854E+02 -0.53815933236E+02 -0.25256441115E+02  0.11003927719E+03  0.41800000000E+01 0. -1.
        -11    1    1    2    0    0 -0.97671209080E+02  0.35674404255E+02 -0.58322754446E+02  0.11922194382E+03  0.00000000000E+00 0. -1.
         11    1    1    2    0    0  0.25537214531E+02  0.53311170750E+02  0.12814948937E+02  0.60485148335E+02  0.00000000000E+00 0.  1.
</event>
<event>
 8    1  0.3896452E-010  0.1193076E+03  0.7561462E-02  0.1244244E+00
          1   -1    0    0  501    0  0.00000000000E+00  0.00000000000E+00  0.67618467226E+02  0.67618467226E+02  0.00000000000E+00 0. -1.
         -1   -1    0    0    0  501 -0.00000000000E+00 -0.00000000000E+00 -0.27183333562E+03  0.27183333562E+03  0.00000000000E+00 0.  1.
         25    2    1    2    0    0 -0.64177295910E+02  0.25210972909E+02 -0.99153430046E+02  0.17387793571E+03  0.12509122819E+03 0.  0.
         23    2    1    2    0    0  0.64177295910E+02 -0.25210972909E+02 -0.10506143835E+03  0.16557386714E+03  0.10780761191E+03 0.  0.
          5    1    3    3  502    0  0.11258557723E+02 -0.32611360717E+02  0.22570636217E+01  0.34825604172E+02  0.41800000000E+01 0.  1.
         -5    1    3    3    0  502 -0.75435853632E+02  0.57822333625E+02 -0.10141049367E+03  0.13905233153E+03  0.41800000000E+01 0.  1.
        -11    1    4    4    0    0  0.55195754549E+02  0.22917481100E+02 -0.12789516214E+02  0.61117542368E+02  0.00000000000E+00 0. -1.
         11    1    4    4    0    0  0.89815413610E+01 -0.48128454009E+02 -0.92271922133E+02  0.10445632477E+03  0.00000000000E+00 0.  1.
</event>
<event>
 8    1  0.3896452E-010  0.7482893E+02  0.7561462E-02  0.1344402E+00
          1   -1    0    0  501    0  0.00000000000E+00  0.00000000000E+00  0.95647296205E+02  0.95647296205E+02  0.00000000000E+00 0. -1.
         -1   -1    0    0    0  501 -0.00000000000E+00 -0.00000000000E+00 -0.16011376947E+03  0.16011376947E+03  0.00000000000E+00 0.  1.
         25    2    1    2    0    0  0.33133036419E+02  0.15911060974E+02 -0.13648769674E+02  0.13110075997E+03  0.12510060107E+03 0.  0.
         23    2    1    2    0    0 -0.33133036419E+02 -0.15911060974E+02 -0.50817703590E+02  0.12466030570E+03  0.10773482657E+03 0.  0.
          5    1    3    3  502    0  0.58061807902E+02  0.14774850807E+02 -0.55773527341E+02  0.81961140215E+02  0.41800000000E+01 0. -1.
         -5    1    3    3    0  502 -0.24928771483E+02  0.11362101666E+01  0.42124757666E+02  0.49139619755E+02  0.41800000000E+01 0. -1.
        -11    1    4    4    0    0 -0.47439408786E+02 -0.15765898480E+02  0.18934219422E+02  0.53456203812E+02  0.00000000000E+00 0. -1.
         11    1    4    4    0    0  0.14306372367E+02 -0.14516249341E+00 -0.69751923013E+02  0.71204101893E+02  0.00000000000E+00 0.  1.
</event>
<event>
 8    1  0.3896452E-010  0.1989463E+03  0.7561462E-02  0.1150631E+00
          1   -1    0    0  501    0  0.00000000000E+00  0.00000000000E+00  0.40678726243E+03  0.40678726243E+03  0.00000000000E+00 0. -1.
         -1   -1    0    0    0  501 -0.00000000000E+00 -0.00000000000E+00 -0.14037422244E+03  0.14037422244E+03  0.00000000000E+00 0.  1.
         25    2    1    2    0    0  0.17716110762E+01  0.19444414988E+03  0.25202238523E+03  0.34201679525E+03  0.12509412274E+03 0.  0.
         23    2    1    2    0    0 -0.17716110762E+01 -0.19444414988E+03  0.14390654755E+02  0.20514468963E+03  0.63761953474E+02 0.  0.
          5    1    3    3  502    0 -0.23324371632E+02  0.63184304299E+02  0.17535768229E+03  0.18789377786E+03  0.41800000000E+01 0.  1.
         -5    1    3    3    0  502  0.25095982708E+02  0.13125984558E+03  0.76664702943E+02  0.15412301738E+03  0.41800000000E+01 0.  1.
        -11    1    4    4    0    0 -0.13846446271E+02 -0.54033519876E+02 -0.21397386617E+02  0.59742727579E+02  0.00000000000E+00 0.  1.
         11    1    4    4    0    0  0.12074835194E+02 -0.14041063000E+03  0.35788041372E+02  0.14540196205E+03  0.00000000000E+00 0. -1.
</event>
<event>
 8    1  0.3896452E-010  0.1731563E+03  0.7561462E-02  0.1174596E+00
          1   -1    0    0  501    0  0.00000000000E+00  0.00000000000E+00  0.25741181684E+03  0.25741181684E+03  0.00000000000E+00 0. -1.
         -1   -1    0    0    0  501 -0.00000000000E+00 -0.00000000000E+00 -0.13418055652E+03  0.13418055652E+03  0.00000000000E+00 0.  1.
         25    2    1    2    0    0  0.11292725444E+03 -0.89871857286E+02  0.65116810712E+01  0.19110180139E+03  0.12509189013E+03 0.  0.
         23    2    1    2    0    0 -0.11292725444E+03  0.89871857286E+02  0.11671957925E+03  0.20049057197E+03  0.75785841302E+02 0.  0.
          5    1    3    3  502    0  0.13223522808E+03 -0.41608159125E+02  0.81129757685E+01  0.13892691326E+03  0.41800000000E+01 0.  1.
         -5    1    3    3    0  502 -0.19307973644E+02 -0.48263698161E+02 -0.16012946973E+01  0.52174888127E+02  0.41800000000E+01 0.  1.
        -11    1    4    4    0    0 -0.36382595345E+02 -0.13287606270E+01  0.56109176597E+02  0.66885712579E+02  0.00000000000E+00 0. -1.
         11    1    4    4    0    0 -0.76544659095E+02  0.91200617913E+02  0.60610402657E+02  0.13360485939E+03  0.00000000000E+00 0.  1.
</event>
<event>
 8    1  0.3896452E-010  0.1220093E+03  0.7561462E-02  0.1239819E+00
          2   -1    0    0  501    0  0.00000000000E+00  0.00000000000E+00  0.15321306998E+04  0.15321306998E+04  0.00000000000E+00 0. -1.
         -2   -1    0    0    0  501 -0.00000000000E+00 -0.00000000000E+00 -0.12480542020E+02  0.12480542020E+02  0.00000000000E+00 0.  1.
         25    2    1    2    0    0  0.43772969314E+02  0.24413901590E+02  0.98786945347E+03  0.99701903177E+03  0.12509508852E+03 0.  0.
         23    2    1    2    0    0 -0.43772969314E+02 -0.24413901590E+02  0.53178070435E+03  0.54759221010E+03  0.12064161639E+03 0.  0.
          5    1    3    3  502    0 -0.10720576543E+02 -0.33563105926E+02  0.60012613020E+03  0.60117406580E+03  0.41800000000E+01 0. -1.
         -5    1    3    3    0  502  0.54493545857E+02  0.57977007516E+02  0.38774332327E+03  0.39584496597E+03  0.41800000000E+01 0. -1.
        -11    1    4    4    0    0  0.24058879650E+02 -0.50696455835E+02  0.27715054285E+03  0.28277443967E+03  0.00000000000E+00 0.  1.
         11    1    4    4    0    0 -0.67831848964E+02  0.26282554245E+02  0.25463016150E+03  0.26481777043E+03  0.00000000000E+00 0. -1.
</event>
<event>
 7    1  0.3896452E-010  0.1288393E+03  0.7561462E-02  0.1229188E+00
         -2   -1    0    0    0  501 -0.00000000000E+00  0.00000000000E+00  0.94615373052E+02  0.94615373052E+02  0.00000000000E+00 0.  1.
          2   -1    0    0  501    0  0.00000000000E+00 -0.00000000000E+00 -0.25203531179E+03  0.25203531179E+03  0.00000000000E+00 0. -1.
         25    2    1    2    0    0 -0.26250722875E+02 -0.38949383814E+02 -0.15880787126E+03  0.20754162432E+03  0.12508969141E+03 0.  0.
          5    1    3    3  502    0 -0.38764143452E+02  0.35977049947E+02 -0.39913209916E+02  0.66389333980E+02  0.41800000000E+01 0.  1.
         -5    1    3    3    0  502  0.12513420577E+02 -0.74926433761E+02 -0.11889466135E+03  0.14115229034E+03  0.41800000000E+01 0.  1.
        -11    1    1    2    0    0 -0.16054916758E+02  0.72685701984E+02  0.27078407031E+02  0.79209922057E+02  0.00000000000E+00 0.  1.
         11    1    1    2    0    0  0.42305639633E+02 -0.33736318170E+02 -0.25690474499E+02  0.59899138462E+02  0.00000000000E+00 0. -1.
</event>
<event>
 8    1  0.3896452E-010  0.2338005E+03  0.7561462E-02  0.1123993E+00
          1   -1    0    0  501    0  0.00000000000E+00  0.00000000000E+00  0.10234888337E+04  0.10234888337E+04  0.00000000000E+00 0. -1.
         -1   -1    0    0    0  501 -0.00000000000E+00 -0.00000000000E+00 -0.59886370497E+02  0.59886370497E+02  0.00000000000E+00 0.  1.
         25    2    1    2    0    0 -0.95340606249E+02 -0.18373390629E+03  0.37025646331E+03  0.44225062202E+03  0.12509110494E+03 0.  0.
         23    2    1    2    0    0  0.95340606249E+02  0.18373390629E+03  0.59334599992E+03  0.64112458221E+03  0.12701682867E+03 0.  0.
          5    1    3    3  502    0 -0.11166085291E+03 -0.85468348488E+02  0.19222189110E+03  0.23820099178E+03  0.41800000000E+01 0.  1.
         -5    1    3    3    0  502  0.16320246660E+02 -0.98265557798E+02  0.17803457220E+03  0.20404963024E+03  0.41800000000E+01 0.  1.
        -11    1    4    4    0    0 -0.13596262641E+02 -0.30049381243E-01  0.38749479040E+01  0.14137697197E+02  0.00000000000E+00 0.  1.
         11    1    4    4    0    0  0.10893686889E+03  0.18376395567E+03  0.58947105202E+03  0.62698688501E+03  0.00000000000E+00 0. -1.
</event>
<event>
 8    1  0.3896452E-010  0.8705237E+02  0.7561462E-02  0.1310151E+00
         -2   -1    0    0    0  501 -0.00000000000E+00  0.00000000000E+00  0.77639968787E+01  0.77639968787E+01  0.00000000000E+00 0.  1.
          2   -1    0    0  501    0  0.00000000000E+00 -0.00000000000E+00 -0.14713348914E+04  0.14713348914E+04  0.00000000000E+00 0. -1.
         25    2    1    2    0    0  0.26802584014E+02  0.16239534414E+02 -0.12399803549E+04  0.12466681396E+04  0.12509224133E+03 0.  0.
         23    2    1    2    0    0 -0.26802584014E+02 -0.16239534414E+02 -0.22359053970E+03  0.23243074872E+03  0.55219765691E+02 0.  0.
          5    1    3    3  502    0 -0.40186479788E+02 -0.12539021758E+02 -0.75871638882E+03  0.75989486858E+03  0.41800000000E+01 0. -1.
         -5    1    3    3    0  502  0.66989063803E+02  0.28778556173E+02 -0.48126396605E+03  0.48677327102E+03  0.41800000000E+01 0. -1.
        -11    1    4    4    0    0 -0.29940853735E+02  0.10590480715E+02 -0.16338258492E+03  0.16644062623E+03  0.00000000000E+00 0.  1.
         11    1    4    4    0    0  0.31382697206E+01 -0.26830015129E+02 -0.60207954775E+02  0.65990122495E+02  0.00000000000E+00 0. -1.
</event>
<event>
 8    1  0.3896452E-010  0.1590570E+03  0.7561462E-02  0.1189766E+00
          2   -1    0    0  501    0  0.00000000000E+00  0.00000000000E+00  0.88071163722E+03  0.88071163722E+03  0.00000000000E+00 0. -1.
         -2   -1    0    0    0  501 -0.00000000000E+00 -0.00000000000E+00 -0.42860933011E+02  0.42860933011E+02  0.00000000000E+00 0.  1.
         25    2    1    2    0    0 -0.11980504272E+03 -0.68066882260E+02  0.22482863419E+03  0.29185758499E+03  0.12508631597E+03 0.  0.
         23    2    1    2    0    0  0.11980504272E+03  0.68066882260E+02  0.61302207002E+03  0.63171498524E+03  0.65432526512E+02 0.  0.
          5    1    3    3  502    0 -0.71189725730E+01 -0.51041322185E+02  0.14140103811E+03  0.15055770428E+03  0.41800000000E+01 0. -1.
         -5    1    3    3    0  502 -0.11268607015E+03 -0.17025560075E+02  0.83427596088E+02  0.14129988071E+03  0.41800000000E+01 0. -1.
        -11    1    4    4    0    0  0.81894518568E+02  0.92823559942E+01  0.31667837042E+03  0.32722784813E+03  0.00000000000E+00 0. -1.
         11    1    4    4    0    0  0.37910524150E+02  0.58784526266E+02  0.29634369960E+03  0.30448713710E+03  0.00000000000E+00 0.  1.
</event>
<event>
 8    1  0.3896452E-010  0.9750395E+02  0.7561462E-02  0.1285634E+00
         -2   -1    0    0    0  501 -0.00000000000E+00  0.00000000000E+00  0.30964797240E+02  0.30964797240E+02  0.00000000000E+00 0.  1.
          2   -1    0    0  501    0  0.00000000000E+00 -0.00000000000E+00 -0.40969610098E+03  0.40969610098E+03  0.00000000000E+00 0. -1.
         25    2    1    2    0    0  0.28090942410E+02 -0.40526450081E+02 -0.21792528654E+03  0.25606696494E+03  0.12508943128E+03 0.  0.
         23    2    1    2    0    0 -0.28090942410E+02  0.40526450081E+02 -0.16080601720E+03  0.18459393328E+03  0.76058206888E+02 0.  0.
          5    1    3    3  502    0  0.77420484808E+02 -0.27452491129E+02 -0.11873759005E+03  0.14444257831E+03  0.41800000000E+01 0.  1.
         -5    1    3    3    0  502 -0.49329542398E+02 -0.13073958952E+02 -0.99187696489E+02  0.11162438663E+03  0.41800000000E+01 0.  1.
        -11    1    4    4    0    0 -0.21315764719E+02  0.88068605466E+00 -0.27615753080E+01  0.21511943930E+02  0.00000000000E+00 0.  1.
         11    1    4    4    0    0 -0.67751776912E+01  0.39645764026E+02 -0.15804444189E+03  0.16308198935E+03  0.00000000000E+00 0. -1.
</event>
<event>
 8    1  0.3896452E-010  0.1175050E+03  0.7561462E-02  0.1247271E+00
         -1   -1    0    0    0  501 -0.00000000000E+00  0.00000000000E+00  0.41403818395E+02  0.41403818395E+02  0.00000000000E+00 0.  1.
          1   -1    0    0  501    0  0.00000000000E+00 -0.00000000000E+00 -0.41449230593E+03  0.41449230593E+03  0.00000000000E+00 0. -1.
         25    2    1    2    0    0 -0.84077078726E+01 -0.77355604888E+02 -0.28963572016E+03  0.32494643306E+03  0.12508698895E+03 0.  0.
         23    2    1    2    0    0  0.84077078726E+01  0.77355604888E+02 -0.83452767369E+02  0.13094969126E+03  0.64256346773E+02 0.  0.
          5    1    3    3  502    0 -0.36212224452E+02 -0.99923452083E+02 -0.24814001022E+03  0.26997584808E+03  0.41800000000E+01 0. -1.
         -5    1    3    3    0  502  0.27804516579E+02  0.22567847195E+02 -0.41495709946E+02  0.54970584981E+02  0.41800000000E+01 0. -1.
        -11    1    4    4    0    0 -0.12287951920E+02  0.69303406280E+02 -0.82882055873E+02  0.10873541774E+03  0.00000000000E+00 0. -1.
         11    1    4    4    0    0  0.20695659792E+02  0.80521986078E+01 -0.57071149573E+00  0.22214273525E+02  0.00000000000E+00 0.  1.
</event>
<event>
 8    1  0.3896452E-010  0.1124132E+03  0.7561462E-02  0.1256165E+00
         -2   -1    0    0    0  501 -0.00000000000E+00  0.00000000000E+00  0.57567759974E+02  0.57567759974E+02  0.00000000000E+00 0.  1.
          2   -1    0    0  501    0  0.00000000000E+00 -0.00000000000E+00 -0.31530840318E+03  0.31530840318E+03  0.00000000000E+00 0. -1.
         25    2    1    2    0    0  0.62547825335E+02 -0.18875005799E+02 -0.13435885248E+03  0.19485550486E+03  0.12509144749E+03 0.  0.
         23    2    1    2    0    0 -0.62547825335E+02  0.18875005799E+02 -0.12338179072E+03  0.17802065829E+03  0.11045266950E+03 0.  0.
          5    1    3    3  502    0 -0.23810333167E+02 -0.10408812716E+02 -0.96617960936E+02  0.10013879430E+03  0.41800000000E+01 0. -1.
         -5    1    3    3    0  502  0.86358158502E+02 -0.84661930830E+01 -0.37740891545E+02  0.94716710563E+02  0.41800000000E+01 0. -1.
        -11    1    4    4    0    0  0.40312699811E+01 -0.29222040019E+02  0.35983912472E+00  0.29500987182E+02  0.00000000000E+00 0.  1.
         11    1    4    4    0    0 -0.66579095316E+02  0.48097045818E+02 -0.12374162985E+03  0.14851967111E+03  0.00000000000E+00 0. -1.
</event>
<event>
 8    1  0.3896452E-010  0.1105706E+03  0.7561462E-02  0.1259517E+00
          1   -1    0    0  501    0  0.00000000000E+00  0.00000000000E+00  0.32432342945E+03  0.32432342945E+03  0.00000000000E+00 0. -1.
         -1   -1    0    0    0  501 -0.00000000000E+00 -0.00000000000E+00 -0.61242852094E+02  0.61242852094E+02  0.00000000000E+00 0.  1.
         25    2    1    2    0    0 -0.38367575647E+02  0.32262581832E+02  0.25943909745E+03  0.29235175988E+03  0.12509181096E+03 0.  0.
         23    2    1    2    0    0  0.38367575647E+02 -0.32262581832E+02  0.36414799077E+01  0.93214521669E+02  0.78503131317E+02 0.  0.
          5    1    3    3  502    0 -0.79473473122E+02  0.36813568769E+01  0.11908616497E+03  0.14327795506E+03  0.41800000000E+01 0. -1.
         -5    1    3    3    0  502  0.41105897475E+02  0.28581224955E+02  0.14035293249E+03  0.14907380482E+03  0.41800000000E+01 0. -1.
        -11    1    4    4    0    0  0.44630924956E+02  0.12250105827E+02 -0.75444229565E+01  0.46892460726E+02  0.00000000000E+00 0. -1.
         11    1    4    4    0    0 -0.62633493089E+01 -0.44512687658E+02  0.11185902864E+02  0.46322060943E+02  0.00000000000E+00 0.  1.
</event>
<event>
 8    1  0.3896452E-010  0.3382390E+02  0.7561462E-02  0.1559300E+00
          1   -1    0    0  501    0  0.00000000000E+00  0.00000000000E+00  0.61011482531E+02  0.61011482531E+02  0.00000000000E+00 0. -1.
         -1   -1    0    0    0  501 -0.00000000000E+00 -0.00000000000E+00 -0.48140105197E+03  0.48140105197E+03  0.00000000000E+00 0.  1.
         25    2    1    2    0    0 -0.12803850940E+02  0.15591080345E+02 -0.39987226919E+03  0.41946653054E+03  0.12508924091E+03 0.  0.
         23    2    1    2    0    0  0.12803850940E+02 -0.15591080345E+02 -0.20517300246E+02  0.12294600396E+03  0.11953133436E+03 0.  0.
          5    1    3    3  502    0 -0.18571711124E+02  0.20032126844E+02 -0.40731291259E+03  0.40824928135E+03  0.41800000000E+01 0. -1.
         -5    1    3    3    0  502  0.57678601838E+01 -0.44410464990E+01  0.74406434026E+01  0.11217249188E+02  0.41800000000E+01 0. -1.
        -11    1    4    4    0    0 -0.62562404390E+01 -0.99290971947E+01  0.49132003666E+02  0.50514169297E+02  0.00000000000E+00 0. -1.
         11    1    4    4    0    0  0.19060091379E+02 -0.56619831504E+01 -0.69649303912E+02  0.72431834659E+02  0.00000000000E+00 0.  1.
</event>
<event>
 8    1  0.3896452E-010  0.1035897E+03  0.7561462E-02  0.1272923E+00
          2   -1    0    0  501    0  0.00000000000E+00  0.00000000000E+00  0.60038112448E+03  0.60038112448E+03  0.00000000000E+00 0. -1.
         -2   -1    0    0    0  501 -0.00000000000E+00 -0.00000000000E+00 -0.18846730453E+02  0.18846730453E+02  0.00000000000E+00 0.  1.
         25    2    1    2    0    0  0.13593899419E+02 -0.30946251244E+02  0.32739691601E+03  0.35210372217E+03  0.12508327619E+03 0.  0.
         23    2    1    2    0    0 -0.13593899419E+02  0.30946251244E+02  0.25413747802E+03  0.26712413277E+03  0.75013198880E+02 0.  0.
          5    1    3    3  502    0  0.53800061232E+02  0.24233892798E+02  0.12135911753E+03  0.13500828107E+03  0.41800000000E+01 0. -1.
         -5    1    3    3    0  502 -0.40206161813E+02 -0.55180144042E+02  0.20603779848E+03  0.21709544110E+03  0.41800000000E+01 0. -1.
        -11    1    4    4    0    0 -0.72084429477E+01 -0.23614382510E+02  0.50576578407E+02  0.56281355655E+02  0.00000000000E+00 0.  1.
         11    1    4    4    0    0 -0.63854564709E+01  0.54560633754E+02  0.20356089961E+03  0.21084277711E+03  0.00000000000E+00 0. -1.
</event>
<event>
 8    1  0.3896452E-010  0.7303959E+02  0.7561462E-02  0.1350052E+00
         -3   -1    0    0    0  501 -0.00000000000E+00  0.00000000000E+00  0.46747865192E+03  0.46747865192E+03  0.00000000000E+00 0.  1.
          3   -1    0    0  501    0  0.00000000000E+00 -0.00000000000E+00 -0.22710074699E+02  0.22710074699E+02  0.00000000000E+00 0. -1.
         25    2    1    2    0    0 -0.26642210722E+02  0.24835335997E+02  0.22748041236E+03  0.26214539378E+03  0.12508504375E+03 0.  0.
         23    2    1    2    0    0  0.26642210722E+02 -0.24835335997E+02  0.21728816486E+03  0.22804333284E+03  0.58847376788E+02 0.  0.
          5    1    3    3  502    0  0.16272142247E+02  0.29046201635E+02  0.21422973708E+03  0.21684168670E+03  0.41800000000E+01 0. -1.
         -5    1    3    3    0  502 -0.42914352970E+02 -0.42108656381E+01  0.13250675283E+02  0.45303707085E+02  0.41800000000E+01 0. -1.
        -11    1    4    4    0    0  0.37634253426E+02  0.44736266263E+01  0.11757731213E+03  0.12353450811E+03  0.00000000000E+00 0. -1.
         11    1    4    4    0    0 -0.10992042704E+02 -0.29308962623E+02  0.99710852734E+02  0.10450882473E+03  0.00000000000E+00 0.  1.
</event>
<event>
 7    1  0.3896452E-010  0.1038908E+03  0.7561462E-02  0.1272321E+00
          1   -1    0    0  501    0  0.00000000000E+00  0.00000000000E+00  0.18071884792E+03  0.18071884792E+03  0.00000000000E+00 0. -1.
         -1   -1    0    0    0  501 -0.00000000000E+00 -0.00000000000E+00 -0.70961217607E+02  0.70961217607E+02  0.00000000000E+00 0.  1.
         25    2    1    2    0    0  0.51209736967E+02  0.19227808633E+02  0.11294536096E+03  0.17718978421E+03  0.12508964498E+03 0.  0.
          5    1    3    3  502    0  0.85095469323E+02 -0.14133910382E+02  0.56210208364E+02  0.10304400151E+03  0.41800000000E+01 0. -1.
         -5    1    3    3    0  502 -0.33885732356E+02  0.33361719014E+02  0.56735152592E+02  0.74145782703E+02  0.41800000000E+01 0. -1.
        -11    1    1    2    0    0 -0.28716607929E+02 -0.35690652515E+02  0.31069400226E+01  0.45914260576E+02  0.00000000000E+00 0. -1.
         11    1    1    2    0    0 -0.22493129038E+02  0.16462843883E+02 -0.62946706657E+01  0.28576020742E+02  0.00000000000E+00 0.  1.
</event>
<event>
 8    1  0.3896452E-010  0.2883369E+03  0.7561462E-02  0.1091221E+00
          2   -1    0    0  501    0  0.00000000000E+00  0.00000000000E+00  0.87777650372E+03  0.87777650372E+03  0.00000000000E+00 0.  1.
         -2   -1    0    0    0  501 -0.00000000000E+00 -0.00000000000E+00 -0.12534912735E+03  0.12534912735E+03  0.00000000000E+00 0. -1.
         25    2    1    2    0    0 -0.27571501743E+03  0.10547443052E+02  0.61501890194E+03  0.68558418109E+03  0.12508956883E+03 0.  0.
         23    2    1    2    0    0  0.27571501743E+03 -0.10547443052E+02  0.13740847443E+03  0.31754144997E+03  0.76298520384E+02 0.  0.
          5    1    3    3  502    0 -0.27472374415E+03  0.33846946971E+02  0.53863571704E+03  0.60561098032E+03  0.41800000000E+01 0. -1.
         -5    1    3    3    0  502 -0.99127327880E+00 -0.23299503919E+02  0.76383184903E+02  0.79973200771E+02  0.41800000000E+01 0. -1.
        -11    1    4    4    0    0  0.10019469754E+03  0.16179678998E+01  0.91527429091E+02  0.13571612105E+03  0.00000000000E+00 0.  1.
         11    1    4    4    0    0  0.17552031989E+03 -0.12165410951E+02  0.45881045337E+02  0.18182532892E+03  0.00000000000E+00 0. -1.
</event>
<event>
 8    1  0.3896452E-010  0.5391485E+02  0.7561462E-02  0.1425301E+00
          2   -1    0    0  501    0  0.00000000000E+00  0.00000000000E+00  0.24548282132E+03  0.24548282132E+03  0.00000000000E+00 0. -1.
         -2   -1    0    0    0  501 -0.00000000000E+00 -0.00000000000E+00 -0.37837411849E+02  0.37837411849E+02  0.00000000000E+00 0.  1.
         25    2    1    2    0    0  0.35398748404E+00  0.14313916571E+02  0.11757725376E+03  0.17226958334E+03  0.12508950887E+03 0.  0.
         23    2    1    2    0    0 -0.35398748404E+00 -0.14313916571E+02  0.90068155718E+02  0.11105064983E+03  0.63363717055E+02 0.  0.
          5    1    3    3  502    0  0.10717522537E+02  0.32978777258E+02 -0.14932665970E+02  0.37985812506E+02  0.41800000000E+01 0. -1.
         -5    1    3    3    0  502 -0.10363535053E+02 -0.18664860687E+02  0.13250991973E+03  0.13428377083E+03  0.41800000000E+01 0. -1.
        -11    1    4    4    0    0  0.16535139520E+02  0.11612528596E+02  0.72934061077E+02  0.75681166247E+02  0.00000000000E+00 0. -1.
         11    1    4    4    0    0 -0.16889127005E+02 -0.25926445167E+02  0.17134094641E+02  0.35369483586E+02  0.00000000000E+00 0.  1.
</event>
<event>
 8    1  0.3896452E-010  0.1028678E+03  0.7561462E-02  0.1274378E+00
         -1   -1    0    0    0  501 -0.00000000000E+00  0.00000000000E+00  0.66491040450E+03  0.66491040450E+03  0.00000000000E+00 0.  1.
          1   -1    0    0  501    0  0.00000000000E+00 -0.00000000000E+00 -0.23698440201E+02  0.23698440201E+02  0.00000000000E+00 0. -1.
         25    2    1    2    0    0  0.30493265680E+02  0.15431275121E+02  0.26491784304E+03  0.29495199977E+03  0.12508898873E+03 0.  0.
         23    2    1    2    0    0 -0.30493265680E+02 -0.15431275121E+02  0.37629412126E+03  0.39365684494E+03  0.11045579372E+03 0.  0.
          5    1    3    3  502    0  0.19496498253E+01  0.51575191108E+02  0.40278718852E+02  0.65602203200E+02  0.41800000000E+01 0. -1.
         -5    1    3    3    0  502  0.28543615855E+02 -0.36143915987E+02  0.22463912419E+03  0.22934979657E+03  0.41800000000E+01 0. -1.
        -11    1    4    4    0    0 -0.28796130616E+02 -0.58185807588E+02  0.29193606484E+03  0.29906767009E+03  0.00000000000E+00 0.  1.
         11    1    4    4    0    0 -0.16971350648E+01  0.42754532467E+02  0.84358056427E+02  0.94589174846E+02  0.00000000000E+00 0. -1.
</event>
<event>
 8    1  0.3896452E-010  0.1700273E+03  0.7561462E-02  0.1177819E+00
         -1   -1    0    0    0  501 -0.00000000000E+00  0.00000000000E+00  0.48653035984E+03  0.48653035984E+03  0.00000000000E+00 0.  1.
          1   -1    0    0  501    0  0.00000000000E+00 -0.00000000000E+00 -0.75476140513E+02  0.75476140513E+02  0.00000000000E+00 0. -1.
         25    2    1    2    0    0 -0.43110868103E+02  0.14049725505E+03  0.22585224706E+03  0.29707973259E+03  0.12509638040E+03 0.  0.
         23    2    1    2    0    0  0.43110868103E+02 -0.14049725505E+03  0.18520197226E+03  0.26492676776E+03  0.11953407933E+03 0.  0.
          5    1    3    3  502    0  0.24145673332E+02  0.11925555534E+03  0.13150919403E+03  0.17921228065E+03  0.41800000000E+01 0. -1.
         -5    1    3    3    0  502 -0.67256541435E+02  0.21241699705E+02  0.94343053031E+02  0.11786745194E+03  0.41800000000E+01 0. -1.
        -11    1    4    4    0    0  0.18880476215E+02 -0.39374736290E+02  0.14828827431E+03  0.15458413417E+03  0.00000000000E+00 0.  1.
         11    1    4    4    0    0  0.24230391888E+02 -0.10112251876E+03  0.36913697955E+02  0.11034263359E+03  0.00000000000E+00 0. -1.
</event>
<event>
 7    1  0.3896452E-010  0.3657643E+03  0.7561462E-02  0.1056324E+00
         -1   -1    0    0    0  501 -0.00000000000E+00  0.00000000000E+00  0.46184834322E+03  0.46184834322E+03  0.00000000000E+00 0.  1.
          1   -1    0    0  501    0  0.00000000000E+00 -0.00000000000E+00 -0.33216476469E+03  0.33216476469E+03  0.00000000000E+00 0. -1.
         25    2    1    2    0    0 -0.34570412842E+03 -0.82428072202E+02  0.16228264176E+02  0.37711701680E+03  0.12509259095E+03 0.  0.
          5    1    3    3  502    0 -0.14807386451E+03  0.83551546081E+01 -0.37544581780E+02  0.15304491492E+03  0.41800000000E+01 0.  1.
         -5    1    3    3    0  502 -0.19763026391E+03 -0.90783226810E+02  0.53772845956E+02  0.22407210189E+03  0.41800000000E+01 0.  1.
        -11    1    1    2    0    0  0.10027141346E+02 -0.13225094374E+02 -0.34118878824E+02  0.37941330722E+02  0.00000000000E+00 0. -1.
         11    1    1    2    0    0  0.33567698708E+03  0.95653166576E+02  0.14757419317E+03  0.37895476039E+03  0.00000000000E+00 0.  1.
</event>
<event>
 8    1  0.3896452E-010  0.6359744E+02  0.7561462E-02  0.1383326E+00
         -2   -1    0    0    0  501 -0.00000000000E+00  0.00000000000E+00  0.39442688444E+02  0.39442688444E+02  0.00000000000E+00 0. -1.
          2   -1    0    0  501    0  0.00000000000E+00 -0.00000000000E+00 -0.33537135707E+03  0.33537135707E+03  0.00000000000E+00 0.  1.
         25    2    1    2    0    0 -0.90595419273E+01 -0.21319452210E+02 -0.87626107857E+02  0.15448569430E+03  0.12510355960E+03 0.  0.
         23    2    1    2    0    0  0.90595419273E+01  0.21319452210E+02 -0.20830256077E+03  0.22032835121E+03  0.67956097455E+02 0.  0.
          5    1    3    3  502    0  0.21487275039E+02 -0.75558515043E+00  0.26565569711E+02  0.34430739051E+02  0.41800000000E+01 0. -1.
         -5    1    3    3    0  502 -0.30546816966E+02 -0.20563867059E+02 -0.11419167757E+03  0.12005495525E+03  0.41800000000E+01 0. -1.
        -11    1    4    4    0    0  0.85188460246E+01  0.44367159634E+02 -0.16726232306E+03  0.17325616961E+03  0.00000000000E+00 0.  1.
         11    1    4    4    0    0  0.54069590273E+00 -0.23047707425E+02 -0.41040237713E+02  0.47072181606E+02  0.00000000000E+00 0. -1.
</event>
<event>
 8    1  0.3896452E-010  0.1045747E+03  0.7561462E-02  0.1270960E+00
          2   -1    0    0  501    0  0.00000000000E+00  0.00000000000E+00  0.11636127846E+04  0.11636127846E+04  0.00000000000E+00 0. -1.
         -2   -1    0    0    0  501 -0.00000000000E+00 -0.00000000000E+00 -0.20212196984E+02  0.20212196984E+02  0.00000000000E+00 0.  1.
         25    2    1    2    0    0  0.83678242802E+01 -0.11721907975E+02  0.93441707571E+03  0.94286277144E+03  0.12509001074E+03 0.  0.
         23    2    1    2    0    0 -0.83678242802E+01  0.11721907975E+02  0.20898351193E+03  0.24096221016E+03  0.11908507404E+03 0.  0.
          5    1    3    3  502    0 -0.23892949025E+02  0.38461517709E+02  0.16579182450E+03  0.17191440553E+03  0.41800000000E+01 0. -1.
         -5    1    3    3    0  502  0.32260773305E+02 -0.50183425684E+02  0.76862525121E+03  0.77094836591E+03  0.41800000000E+01 0. -1.
        -11    1    4    4    0    0  0.13503411443E+02 -0.42932149042E+02  0.15388704824E+03  0.16033320043E+03  0.00000000000E+00 0. -1.
         11    1    4    4    0    0 -0.21871235723E+02  0.54654057017E+02  0.55096463685E+02  0.80629009736E+02  0.00000000000E+00 0.  1.
</event>
<event>
 8    1  0.3896452E-010  0.2443502E+03  0.7561462E-02  0.1116928E+00
          1   -1    0    0  501    0  0.00000000000E+00  0.00000000000E+00  0.27826416588E+03  0.27826416588E+03  0.00000000000E+00 0. -1.
         -1   -1    0    0    0  501 -0.00000000000E+00 -0.00000000000E+00 -0.30515590837E+03  0.30515590837E+03  0.00000000000E+00 0.  1.
         25    2    1    2    0    0  0.18407907655E+03 -0.14407061242E+03 -0.13969386948E+03  0.29967203786E+03  0.12508998888E+03 0.  0.
         23    2    1    2    0    0 -0.18407907655E+03  0.14407061242E+03  0.11280212699E+03  0.28374803639E+03  0.11466115522E+03 0.  0.
          5    1    3    3  502    0  0.18385183201E+03 -0.97441600618E+02 -0.14335238535E+03  0.25271276273E+03  0.41800000000E+01 0. -1.
         -5    1    3    3    0  502  0.22724453720E+00 -0.46629011805E+02  0.36585158681E+01  0.46959275126E+02  0.41800000000E+01 0. -1.
        -11    1    4    4    0    0 -0.12667001416E+03  0.97934661530E+02  0.13214258132E+03  0.20760094464E+03  0.00000000000E+00 0. -1.
         11    1    4    4    0    0 -0.57409062390E+02  0.46135950893E+02 -0.19340454330E+02  0.76147091757E+02  0.00000000000E+00 0.  1.
</event>
<event>
 8    1  0.3896452E-010  0.9240421E+02  0.7561462E-02  0.1297132E+00
         -2   -1    0    0    0  501 -0.00000000000E+00  0.00000000000E+00  0.14915097449E+03  0.14915097449E+03  0.00000000000E+00 0.  1.
          2   -1    0    0  501    0  0.00000000000E+00 -0.00000000000E+00 -0.10561297348E+03  0.10561297348E+03  0.00000000000E+00 0. -1.
         25    2    1    2    0    0 -0.37015642694E+00 -0.28336036045E+02 -0.37508036378E+01  0.12831579878E+03  0.12509119767E+03 0.  0.
         23    2    1    2    0    0  0.37015642694E+00  0.28336036045E+02  0.47288804644E+02  0.12644814920E+03  0.11379734371E+03 0.  0.
          5    1    3    3  502    0  0.55727155134E+02  0.13672515259E+02  0.40603877614E+01  0.57675060829E+02  0.41800000000E+01 0.  1.
         -5    1    3    3    0  502 -0.56097311561E+02 -0.42008551305E+02 -0.78111913992E+01  0.70640737950E+02  0.41800000000E+01 0.  1.
        -11    1    4    4    0    0  0.19072667938E+02 -0.42101036881E+01 -0.32700233225E+02  0.38089327749E+02  0.00000000000E+00 0. -1.
         11    1    4    4    0    0 -0.18702511511E+02  0.32546139733E+02  0.79989037870E+02  0.88358821448E+02  0.00000000000E+00 0.  1.
</event>
<event>
 8    1  0.3896452E-010  0.9421046E+02  0.7561462E-02  0.1292964E+00
          1   -1    0    0  501    0  0.00000000000E+00  0.00000000000E+00  0.29662537494E+03  0.29662537494E+03  0.00000000000E+00 0. -1.
         -1   -1    0    0    0  501 -0.00000000000E+00 -0.00000000000E+00 -0.59531788291E+02  0.59531788291E+02  0.00000000000E+00 0.  1.
         25    2    1    2    0    0  0.27549579139E+01  0.83389616968E+02  0.15655292519E+03  0.21706805515E+03  0.12509318195E+03 0.  0.
         23    2    1    2    0    0 -0.27549579139E+01 -0.83389616968E+02  0.80540661451E+02  0.13908910807E+03  0.76795597705E+02 0.  0.
          5    1    3    3  502    0 -0.12426623545E+02 -0.50885468715E+01 -0.16736944055E+02  0.21861198007E+02  0.41800000000E+01 0. -1.
         -5    1    3    3    0  502  0.15181581459E+02  0.88478163839E+02  0.17328986925E+03  0.19520685715E+03  0.41800000000E+01 0. -1.
        -11    1    4    4    0    0  0.48426047538E+01 -0.50566732311E+02  0.90651347864E+02  0.10391396493E+03  0.00000000000E+00 0. -1.
         11    1    4    4    0    0 -0.75975626676E+01 -0.32822884657E+02 -0.10110686413E+02  0.35175143147E+02  0.00000000000E+00 0.  1.
</event>
<event>
 8    1  0.3896452E-010  0.1685998E+03  0.7561462E-02  0.1179316E+00
         -1   -1    0    0    0  501 -0.00000000000E+00  0.00000000000E+00  0.21876608044E+03  0.21876608044E+03  0.00000000000E+00 0.  1.
          1   -1    0    0  501    0  0.00000000000E+00 -0.00000000000E+00 -0.31763692855E+03  0.31763692855E+03  0.00000000000E+00 0. -1.
         25    2    1    2    0    0  0.10314277598E+03  0.10763861282E+03  0.13605898369E+03  0.23745123363E+03  0.12508612276E+03 0.  0.
         23    2    1    2    0    0 -0.10314277598E+03 -0.10763861282E+03 -0.23492983180E+03  0.29895177536E+03  0.10934182601E+03 0.  0.
          5    1    3    3  502    0 -0.30535220498E+01  0.27870509686E+02 -0.18324739733E+02  0.33754374433E+02  0.41800000000E+01 0. -1.
         -5    1    3    3    0  502  0.10619629803E+03  0.79768103135E+02  0.15438372342E+03  0.20369685920E+03  0.41800000000E+01 0. -1.
        -11    1    4    4    0    0 -0.11343000279E+03 -0.62168545878E+02 -0.12649728289E+03  0.18092223802E+03  0.00000000000E+00 0.  1.
         11    1    4    4    0    0  0.10287226815E+02 -0.45470066944E+02 -0.10843254890E+03  0.11802953734E+03  0.00000000000E+00 0. -1.
</event>
<event>
 8    1  0.3896452E-010  0.2320547E+03  0.7561462E-02  0.1125202E+00
          1   -1    0    0  501    0  0.00000000000E+00  0.00000000000E+00  0.35534047707E+03  0.35534047707E+03  0.00000000000E+00 0. -1.
         -1   -1    0    0    0  501 -0.00000000000E+00 -0.00000000000E+00 -0.15705662817E+03  0.15705662817E+03  0.00000000000E+00 0.  1.
         25    2    1    2    0    0 -0.17969552190E+03 -0.10906311140E+03  0.69483079219E+02  0.25428248710E+03  0.12508573895E+03 0.  0.
         23    2    1    2    0    0  0.17969552190E+03  0.10906311140E+03  0.12880076968E+03  0.25811461814E+03  0.76474014999E+02 0.  0.
          5    1    3    3  502    0 -0.43471415352E+02 -0.98641359284E+02  0.33003410145E+02  0.11281214117E+03  0.41800000000E+01 0.  1.
         -5    1    3    3    0  502 -0.13622410655E+03 -0.10421752114E+02  0.36479669073E+02  0.14147034593E+03  0.41800000000E+01 0.  1.
        -11    1    4    4    0    0  0.95323721092E+02  0.93934354549E+02  0.53873939605E+02  0.14426599092E+03  0.00000000000E+00 0.  1.
         11    1    4    4    0    0  0.84371800805E+02  0.15128756848E+02  0.74926830080E+02  0.11384862722E+03  0.00000000000E+00 0. -1.
</event>
<event>
 8    1  0.3896452E-010  0.6535452E+02  0.7561462E-02  0.1376643E+00
         -1   -1    0    0    0  501 -0.00000000000E+00  0.00000000000E+00  0.68370095452E+02  0.68370095452E+02  0.00000000000E+00 0.  1.
          1   -1    0    0  501    0  0.00000000000E+00 -0.00000000000E+00 -0.29147958859E+03  0.29147958859E+03  0.00000000000E+00 0. -1.
         25    2    1    2    0    0 -0.33294480550E+02 -0.42196527723E+02 -0.16875842887E+03  0.21682722477E+03  0.12508224773E+03 0.  0.
         23    2    1    2    0    0  0.33294480550E+02  0.42196527723E+02 -0.54351064269E+02  0.14302245928E+03  0.12088141413E+03 0.  0.
          5    1    3    3  502    0 -0.12169982666E+02 -0.30824069680E+02 -0.18471618612E+03  0.18771194305E+03  0.41800000000E+01 0. -1.
         -5    1    3    3    0  502 -0.21124497884E+02 -0.11372458042E+02  0.15957757251E+02  0.29115281713E+02  0.41800000000E+01 0. -1.
        -11    1    4    4    0    0 -0.88670948047E+01  0.26535780790E+02  0.33910283547E+02  0.43962260663E+02  0.00000000000E+00 0.  1.
         11    1    4    4    0    0  0.42161575354E+02  0.15660746933E+02 -0.88261347816E+02  0.99060198612E+02  0.00000000000E+00 0. -1.
</event>
<event>
 8    1  0.3896452E-010  0.1038336E+03  0.7561462E-02  0.1272435E+00
         -2   -1    0    0    0  501 -0.00000000000E+00  0.00000000000E+00  0.50764038101E+02  0.50764038101E+02  0.00000000000E+00 0.  1.
          2   -1    0    0  501    0  0.00000000000E+00 -0.00000000000E+00 -0.30476363600E+03  0.30476363600E+03  0.00000000000E+00 0. -1.
         25    2    1    2    0    0  0.17203762957E+02  0.25279105846E+01 -0.19582802685E+03  0.23301915395E+03  0.12508777004E+03 0.  0.
         23    2    1    2    0    0 -0.17203762957E+02 -0.25279105846E+01 -0.58171571041E+02  0.12250852015E+03  0.10640510345E+03 0.  0.
          5    1    3    3  502    0 -0.41598744662E+02 -0.21713926129E+02 -0.31260848436E+02  0.56539041293E+02  0.41800000000E+01 0. -1.
         -5    1    3    3    0  502  0.58802507620E+02  0.24241836714E+02 -0.16456717842E+03  0.17648011265E+03  0.41800000000E+01 0. -1.
        -11    1    4    4    0    0 -0.99720972851E+00  0.45816410108E+02 -0.91074596656E+00  0.45836310068E+02  0.00000000000E+00 0.  1.
         11    1    4    4    0    0 -0.16206553229E+02 -0.48344320693E+02 -0.57260825075E+02  0.76672210083E+02  0.00000000000E+00 0. -1.
</event>
<event>
 8    1  0.3896452E-010  0.1429026E+03  0.7561462E-02  0.1209476E+00
         -1   -1    0    0    0  501 -0.00000000000E+00  0.00000000000E+00  0.20716535608E+02  0.20716535608E+02  0.00000000000E+00 0.  1.
          1   -1    0    0  501    0  0.00000000000E+00 -0.00000000000E+00 -0.11404420177E+04  0.11404420177E+04  0.00000000000E+00 0. -1.
         25    2    1    2    0    0  0.29623680503E+02 -0.78702886934E+02 -0.76835991653E+03  0.78300699644E+03  0.12510510899E+03 0.  0.
         23    2    1    2    0    0 -0.29623680503E+02  0.78702886934E+02 -0.35136556553E+03  0.37815155683E+03  0.11166526960E+03 0.  0.
          5    1    3    3  502    0  0.48492561117E+01  0.32113389465E+02 -0.26296155310E+03  0.26499252042E+03  0.41800000000E+01 0. -1.
         -5    1    3    3    0  502  0.24774424391E+02 -0.11081627640E+03 -0.50539836342E+03  0.51801447602E+03  0.41800000000E+01 0. -1.
        -11    1    4    4    0    0  0.38880018961E+02  0.54145502031E+02 -0.15452031281E+03  0.16828522911E+03  0.00000000000E+00 0.  1.
         11    1    4    4    0    0 -0.68503699463E+02  0.24557384903E+02 -0.19684525272E+03  0.20986632772E+03  0.00000000000E+00 0. -1.
</event>
<event>
 8    1  0.3896452E-010  0.8319187E+02  0.7561462E-02  0.1320230E+00
         -2   -1    0    0    0  501 -0.00000000000E+00  0.00000000000E+00  0.10746060543E+03  0.10746060543E+03  0.00000000000E+00 0.  1.
          2   -1    0    0  501    0  0.00000000000E+00 -0.00000000000E+00 -0.85144332078E+02  0.85144332078E+02  0.00000000000E+00 0. -1.
         25    2    1    2    0    0  0.15515303689E+02 -0.14594241752E+02 -0.25213609272E+01  0.12691246495E+03  0.12508676971E+03 0.  0.
         23    2    1    2    0    0 -0.15515303689E+02  0.14594241752E+02  0.24837634279E+02  0.65692472563E+02  0.56963816006E+02 0.  0.
          5    1    3    3  502    0  0.39572011446E+02 -0.61937329215E+02 -0.16089690575E+01  0.73635847395E+02  0.41800000000E+01 0. -1.
         -5    1    3    3    0  502 -0.24056707757E+02  0.47343087463E+02 -0.91239186967E+00  0.53276617550E+02  0.41800000000E+01 0. -1.
        -11    1    4    4    0    0  0.32991379031E+01  0.19721946601E+02 -0.12491234966E+02  0.23576904793E+02  0.00000000000E+00 0. -1.
         11    1    4    4    0    0 -0.18814441592E+02 -0.51277048495E+01  0.37328869245E+02  0.42115567770E+02  0.00000000000E+00 0.  1.
</event>
<event>
 8    1  0.3896452E-010  0.2694079E+03  0.7561462E-02  0.1101619E+00
          1   -1    0    0  501    0  0.00000000000E+00  0.00000000000E+00  0.71857434678E+02  0.71857434678E+02  0.00000000000E+00 0. -1.
         -1   -1    0    0    0  501 -0.00000000000E+00 -0.00000000000E+00 -0.11437890982E+04  0.11437890982E+04  0.00000000000E+00 0.  1.
         25    2    1    2    0    0 -0.16280183702E+03 -0.20043747134E+03 -0.69976401314E+03  0.75630480474E+03  0.12509062930E+03 0.  0.
         23    2    1    2    0    0  0.16280183702E+03  0.20043747134E+03 -0.37216765041E+03  0.45934172817E+03  0.76200033880E+02 0.  0.
          5    1    3    3  502    0  0.52443635901E+01 -0.63101500689E+02 -0.23384814806E+03  0.24230503810E+03  0.41800000000E+01 0. -1.
         -5    1    3    3    0  502 -0.16804620061E+03 -0.13733597066E+03 -0.46591586508E+03  0.51399976664E+03  0.41800000000E+01 0. -1.
        -11    1    4    4    0    0  0.13561236849E+03  0.16337357684E+03 -0.24543640157E+03  0.32453145812E+03  0.00000000000E+00 0. -1.
         11    1    4    4    0    0  0.27189468527E+02  0.37063894508E+02 -0.12673124885E+03  0.13481027004E+03  0.00000000000E+00 0.  1.
</event>
<event>
 8    1  0.4679802E-010  0.6147907E+02  0.7561462E-02  0.1391728E+00
         -1   -1    0    0    0  501 -0.00000000000E+00  0.00000000000E+00  0.19286774777E+02  0.19286774777E+02  0.00000000000E+00 0.  1.
          1   -1    0    0  501    0  0.00000000000E+00 -0.00000000000E+00 -0.67904418772E+03  0.67904418772E+03  0.00000000000E+00 0. -1.
         25    2    1    2    0    0  0.13176922117E+02  0.22585672459E+02 -0.53376581765E+03  0.54885041320E+03  0.12508830520E+03 0.  0.
         23    2    1    2    0    0 -0.13176922117E+02 -0.22585672459E+02 -0.12599159530E+03  0.14948054930E+03  0.76071076354E+02 0.  0.
          5    1    3    3  502    0 -0.70883431695E+01 -0.18462233288E+02 -0.46896752271E+03  0.46940292758E+03  0.41800000000E+01 0.  1.
         -5    1    3    3    0  502  0.20265265287E+02  0.41047905747E+02 -0.64798294941E+02  0.79447485615E+02  0.41800000000E+01 0.  1.
        -11    1    4    4    0    0  0.19436945567E+02 -0.95183399774E+01 -0.33433091521E+01  0.21899117904E+02  0.00000000000E+00 0.  1.
         11    1    4    4    0    0 -0.32613867684E+02 -0.13067332482E+02 -0.12264828614E+03  0.12758143140E+03  0.00000000000E+00 0. -1.
</event>
<event>
 8    1  0.3896452E-010  0.1102250E+03  0.7561462E-02  0.1260154E+00
          1   -1    0    0  501    0  0.00000000000E+00  0.00000000000E+00  0.15116529338E+03  0.15116529338E+03  0.00000000000E+00 0. -1.
         -1   -1    0    0    0  501 -0.00000000000E+00 -0.00000000000E+00 -0.10214294681E+03  0.10214294681E+03  0.00000000000E+00 0.  1.
         25    2    1    2    0    0 -0.47685394075E+02 -0.56608710968E+02  0.37923088687E+01  0.14539827404E+03  0.12509130075E+03 0.  0.
         23    2    1    2    0    0  0.47685394075E+02  0.56608710968E+02  0.45230037703E+02  0.10790996615E+03  0.64190042204E+02 0.  0.
          5    1    3    3  502    0 -0.70509919538E+02  0.12951609763E+02 -0.20205054735E+01  0.71839736853E+02  0.41800000000E+01 0.  1.
         -5    1    3    3    0  502  0.22824525463E+02 -0.69560320731E+02  0.58128143423E+01  0.73558537189E+02  0.41800000000E+01 0.  1.
        -11    1    4    4    0    0  0.22553340891E+02  0.37416611756E+02 -0.94927535506E+01  0.44707587618E+02  0.00000000000E+00 0. -1.
         11    1    4    4    0    0  0.25132053183E+02  0.19192099212E+02  0.54722791253E+02  0.63202378531E+02  0.00000000000E+00 0.  1.
</event>
<event>
 8    1  0.3896452E-010  0.1309727E+03  0.7561462E-02  0.1226020E+00
          1   -1    0    0  501    0  0.00000000000E+00  0.00000000000E+00  0.56152220875E+02  0.56152220875E+02  0.00000000000E+00 0. -1.
         -1   -1    0    0    0  501 -0.00000000000E+00 -0.00000000000E+00 -0.40241367410E+03  0.40241367410E+03  0.00000000000E+00 0.  1.
         25    2    1    2    0    0 -0.72922996987E+01 -0.93248038389E+02 -0.22314007582E+03  0.27237401758E+03  0.12509091780E+03 0.  0.
         23    2    1    2    0    0  0.72922996987E+01  0.93248038389E+02 -0.12312137741E+03  0.18619187740E+03  0.10373122643E+03 0.  0.
          5    1    3    3  502    0  0.48121237089E+02 -0.95791734562E+00 -0.63625959391E+02  0.79889337042E+02  0.41800000000E+01 0. -1.
         -5    1    3    3    0  502 -0.55413536788E+02 -0.92290121044E+02 -0.15951411643E+03  0.19248468054E+03  0.41800000000E+01 0. -1.
        -11    1    4    4    0    0  0.28709576287E+02  0.56299637590E+02 -0.12844901408E+03  0.14315389684E+03  0.00000000000E+00 0.  1.
         11    1    4    4    0    0 -0.21417276588E+02  0.36948400799E+02  0.53276366673E+01  0.43037980558E+02  0.00000000000E+00 0. -1.
</event>
<event>
 8    1  0.3896452E-010  0.1165369E+03  0.7561462E-02  0.1248922E+00
         -2   -1    0    0    0  501 -0.00000000000E+00  0.00000000000E+00  0.93747373594E+02  0.93747373594E+02  0.00000000000E+00 0.  1.
          2   -1    0    0  501    0  0.00000000000E+00 -0.00000000000E+00 -0.21507835619E+03  0.21507835619E+03  0.00000000000E+00 0. -1.
         25    2    1    2    0    0  0.58567291823E+02  0.47858019409E+02 -0.44453787553E+02  0.15279264076E+03  0.12509569997E+03 0.  0.
         23    2    1    2    0    0 -0.58567291823E+02 -0.47858019409E+02 -0.76877195046E+02  0.15603308902E+03  0.11276393066E+03 0.  0.
          5    1    3    3  502    0  0.48764547448E+02 -0.28424776568E+02  0.11289867761E+02  0.57713798391E+02  0.41800000000E+01 0.  1.
         -5    1    3    3    0  502  0.98027443757E+01  0.76282795976E+02 -0.55743655313E+02  0.95078842373E+02  0.41800000000E+01 0.  1.
        -11    1    4    4    0    0 -0.52210926262E+01  0.15657772230E+02 -0.70984147956E+02  0.72877808010E+02  0.00000000000E+00 0. -1.
         11    1    4    4    0    0 -0.53346199197E+02 -0.63515791639E+02 -0.58930470907E+01  0.83155281013E+02  0.00000000000E+00 0.  1.
</event>
<event>
 7    1  0.3896452E-010  0.1078050E+03  0.7561462E-02  0.1264689E+00
          2   -1    0    0  501    0  0.00000000000E+00  0.00000000000E+00  0.35201354470E+03  0.35201354470E+03  0.00000000000E+00 0.  1.
         -2   -1    0    0    0  501 -0.00000000000E+00 -0.00000000000E+00 -0.65958539052E+02  0.65958539052E+02  0.00000000000E+00 0. -1.
         25    2    1    2    0    0  0.66756975354E+02  0.36757733368E+02  0.29848010352E+02  0.14948547856E+03  0.12508948740E+03 0.  0.
          5    1    3    3  502    0  0.93256251602E+02  0.52599851552E+02  0.11923946134E+01  0.10715580736E+03  0.41800000000E+01 0.  1.
         -5    1    3    3    0  502 -0.26499276249E+02 -0.15842118184E+02  0.28655615738E+02  0.42329671197E+02  0.41800000000E+01 0.  1.
        -11    1    1    2    0    0 -0.21427143532E+02 -0.18945469467E+02  0.62220273616E+02  0.68479308861E+02  0.00000000000E+00 0. -1.
         11    1    1    2    0    0 -0.45329831822E+02 -0.17812263901E+02  0.19398672168E+03  0.20000729634E+03  0.00000000000E+00 0.  1.
</event>
<event>
 8    1  0.3896452E-010  0.1647875E+03  0.7561462E-02  0.1183395E+00
          1   -1    0    0  501    0  0.00000000000E+00  0.00000000000E+00  0.11250218670E+03  0.11250218670E+03  0.00000000000E+00 0. -1.
         -1   -1    0    0    0  501 -0.00000000000E+00 -0.00000000000E+00 -0.30111498837E+03  0.30111498837E+03  0.00000000000E+00 0.  1.
         25    2    1    2    0    0  0.11910578999E+03 -0.94837092675E+02 -0.91905120287E+02  0.21742395025E+03  0.12508540942E+03 0.  0.
         23    2    1    2    0    0 -0.11910578999E+03  0.94837092675E+02 -0.96707681383E+02  0.19619322482E+03  0.77195482192E+02 0.  0.
          5    1    3    3  502    0 -0.91113304114E+01 -0.33142084037E+02 -0.63414177973E+02  0.72251259119E+02  0.41800000000E+01 0. -1.
         -5    1    3    3    0  502  0.12821712040E+03 -0.61695008638E+02 -0.28490942314E+02  0.14517269113E+03  0.41800000000E+01 0. -1.
        -11    1    4    4    0    0 -0.69430378877E+02  0.61724807747E+02 -0.99884281089E+02  0.13640894036E+03  0.00000000000E+00 0.  1.
         11    1    4    4    0    0 -0.49675411113E+02  0.33112284928E+02  0.31765997056E+01  0.59784284458E+02  0.00000000000E+00 0. -1.
</event>
<event>
 7    1  0.3896452E-010  0.1468723E+03  0.7561462E-02  0.1204370E+00
          1   -1    0    0  501    0  0.00000000000E+00  0.00000000000E+00  0.64144830964E+03  0.64144830964E+03  0.00000000000E+00 0. -1.
         -1   -1    0    0    0  501 -0.00000000000E+00 -0.00000000000E+00 -0.62089311833E+02  0.62089311833E+02  0.00000000000E+00 0.  1.
         25    2    1    2    0    0 -0.77282391873E+02 -0.78588031925E+02  0.11190031323E+03  0.20079506377E+03  0.12509328790E+03 0.  0.
          5    1    3    3  502    0 -0.64167658935E+02 -0.85168428818E+02  0.21177686299E+02  0.10879851340E+03  0.41800000000E+01 0.  1.
         -5    1    3    3    0  502 -0.13114732938E+02  0.65803968934E+01  0.90722626929E+02  0.91996550372E+02  0.41800000000E+01 0.  1.
        -11    1    1    2    0    0  0.22170678294E+02  0.10734261911E+03  0.19908482956E+03  0.22726360512E+03  0.00000000000E+00 0.  1.
         11    1    1    2    0    0  0.55111713579E+02 -0.28754587182E+02  0.26837385502E+03  0.27547895258E+03  0.00000000000E+00 0. -1.
</event>
<event>
 8    1  0.3896452E-010  0.1181346E+03  0.7561462E-02  0.1246206E+00
         -2   -1    0    0    0  501 -0.00000000000E+00  0.00000000000E+00  0.65338895407E+02  0.65338895407E+02  0.00000000000E+00 0.  1.
          2   -1    0    0  501    0  0.00000000000E+00 -0.00000000000E+00 -0.37077783562E+03  0.37077783562E+03  0.00000000000E+00 0. -1.
         25    2    1    2    0    0 -0.80833481243E+02  0.42708134798E+02 -0.10368619463E+03  0.18643259624E+03  0.12509296349E+03 0.  0.
         23    2    1    2    0    0  0.80833481243E+02 -0.42708134798E+02 -0.20175274558E+03  0.24968413479E+03  0.11523871028E+03 0.  0.
          5    1    3    3  502    0  0.10443384622E+02 -0.62208638420E+01 -0.78795886589E+02  0.79837507305E+02  0.41800000000E+01 0.  1.
         -5    1    3    3    0  502 -0.91276865865E+02  0.48928998640E+02 -0.24890308041E+02  0.10659508893E+03  0.41800000000E+01 0.  1.
        -11    1    4    4    0    0  0.39281459415E+02 -0.62439156915E+02 -0.45201723372E+02  0.86515184597E+02  0.00000000000E+00 0.  1.
         11    1    4    4    0    0  0.41552021828E+02  0.19731022117E+02 -0.15655102221E+03  0.16316895019E+03  0.00000000000E+00 0. -1.
</event>
<event>
 8    1  0.3896452E-010  0.9508043E+02  0.7561462E-02  0.1290995E+00
         -1   -1    0    0    0  501 -0.00000000000E+00  0.00000000000E+00  0.63793931200E+02  0.63793931200E+02  0.00000000000E+00 0.  1.
          1   -1    0    0  501    0  0.00000000000E+00 -0.00000000000E+00 -0.38800355899E+03  0.38800355899E+03  0.00000000000E+00 0. -1.
         25    2    1    2    0    0 -0.25046713752E+02  0.34054492031E+02 -0.31380784927E+02  0.13571932307E+03  0.12509170513E+03 0.  0.
         23    2    1    2    0    0  0.25046713752E+02 -0.34054492031E+02 -0.29282884287E+03  0.31607816713E+03  0.11121883934E+03 0.  0.
          5    1    3    3  502    0 -0.57580372970E+01 -0.16022231203E+02 -0.68257518493E+02  0.70472889234E+02  0.41800000000E+01 0.  1.
         -5    1    3    3    0  502 -0.19288676455E+02  0.50076723234E+02  0.36876733565E+02  0.65246433832E+02  0.41800000000E+01 0.  1.
        -11    1    4    4    0    0 -0.28309918919E+02 -0.54700606057E+02 -0.16042613499E+03  0.17184339557E+03  0.00000000000E+00 0. -1.
         11    1    4    4    0    0  0.53356632671E+02  0.20646114026E+02 -0.13240270788E+03  0.14423477156E+03  0.00000000000E+00 0.  1.
</event>
<event>
 8    1  0.3896452E-010  0.1033754E+03  0.7561462E-02  0.1273354E+00
          2   -1    0    0  501    0  0.00000000000E+00  0.00000000000E+00  0.11163886641E+03  0.11163886641E+03  0.00000000000E+00 0. -1.
         -2   -1    0    0    0  501 -0.00000000000E+00 -0.00000000000E+00 -0.21157874350E+03  0.21157874350E+03  0.00000000000E+00 0.  1.
         25    2    1    2    0    0 -0.13708851996E+02 -0.44222753404E+02 -0.13936279585E+03  0.19289942358E+03  0.12507843224E+03 0.  0.
         23    2    1    2    0    0  0.13708851996E+02  0.44222753404E+02  0.39422918759E+02  0.13031818632E+03  0.11526091541E+03 0.  0.
          5    1    3    3  502    0  0.35126761357E+02 -0.12686330124E+02 -0.12815088264E+03  0.13354757001E+03  0.41800000000E+01 0.  1.
         -5    1    3    3    0  502 -0.48835613353E+02 -0.31536423280E+02 -0.11211913211E+02  0.59351853574E+02  0.41800000000E+01 0.  1.
        -11    1    4    4    0    0 -0.33122544536E+02  0.53712089068E+02  0.51018901033E+02  0.81148134489E+02  0.00000000000E+00 0. -1.
         11    1    4    4    0    0  0.46831396531E+02 -0.94893356641E+01 -0.11595982274E+02  0.49170051833E+02  0.00000000000E+00 0.  1.
</event>
<event>
 8    1  0.3896452E-010  0.2176870E+03  0.7561462E-02  0.1135619E+00
          2   -1    0    0  501    0  0.00000000000E+00  0.00000000000E+00  0.83474895307E+02  0.83474895307E+02  0.00000000000E+00 0. -1.
         -2   -1    0    0    0  501 -0.00000000000E+00 -0.00000000000E+00 -0.57070737663E+03  0.57070737663E+03  0.00000000000E+00 0.  1.
         25    2    1    2    0    0  0.17696020416E+03 -0.75806508479E+02 -0.25729419512E+03  0.34483272033E+03  0.12509101320E+03 0.  0.
         23    2    1    2    0    0 -0.17696020416E+03  0.75806508479E+02 -0.22993828620E+03  0.30934955161E+03  0.75920939360E+02 0.  0.
          5    1    3    3  502    0  0.19212839771E+03 -0.48709321627E+02 -0.22193543523E+03  0.29758818698E+03  0.41800000000E+01 0.  1.
         -5    1    3    3    0  502 -0.15168193545E+02 -0.27097186852E+02 -0.35358759894E+02  0.47244533354E+02  0.41800000000E+01 0.  1.
        -11    1    4    4    0    0 -0.12322142632E+03  0.87074127062E+02 -0.15354104121E+03  0.21526791411E+03  0.00000000000E+00 0. -1.
         11    1    4    4    0    0 -0.53738777836E+02 -0.11267618583E+02 -0.76397244992E+02  0.94081637497E+02  0.00000000000E+00 0.  1.
</event>
<event>
 8    1  0.3896452E-010  0.7046250E+02  0.7561462E-02  0.1358527E+00
         -1   -1    0    0    0  501 -0.00000000000E+00  0.00000000000E+00  0.24763853432E+02  0.24763853432E+02  0.00000000000E+00 0.  1.
          1   -1    0    0  501    0  0.00000000000E+00 -0.00000000000E+00 -0.64876908678E+03  0.64876908678E+03  0.00000000000E+00 0. -1.
         25    2    1    2    0    0  0.41175515375E+02  0.79603188168E+00 -0.35664276488E+03  0.38017959303E+03  0.12508558862E+03 0.  0.
         23    2    1    2    0    0 -0.41175515375E+02 -0.79603188168E+00 -0.26736246847E+03  0.29335334719E+03  0.11347880870E+03 0.  0.
          5    1    3    3  502    0  0.47790672627E+01 -0.72965260104E+00 -0.33974634828E+03  0.33980645292E+03  0.41800000000E+01 0.  1.
         -5    1    3    3    0  502  0.36396448113E+02  0.15256844827E+01 -0.16896416601E+02  0.40373140109E+02  0.41800000000E+01 0.  1.
        -11    1    4    4    0    0 -0.89209513750E+01  0.42752912511E+02 -0.20978779088E+03  0.21428558538E+03  0.00000000000E+00 0. -1.
         11    1    4    4    0    0 -0.32254564000E+02 -0.43548944392E+02 -0.57574677596E+02  0.79067761805E+02  0.00000000000E+00 0.  1.
</event>
<event>
 7    1  0.3896452E-010  0.1917870E+03  0.7561462E-02  0.1156859E+00
          1   -1    0    0  501    0  0.00000000000E+00  0.00000000000E+00  0.22322270960E+03  0.22322270960E+03  0.00000000000E+00 0. -1.
         -1   -1    0    0    0  501 -0.00000000000E+00 -0.00000000000E+00 -0.23050341499E+03  0.23050341499E+03  0.00000000000E+00 0.  1.
         25    2    1    2    0    0 -0.16183018914E+03  0.61551583720E+02 -0.65519380764E+02  0.22342325934E+03  0.12509019139E+03 0.  0.
          5    1    3    3  502    0 -0.69822768194E+02  0.50246642910E+02  0.29088624435E+02  0.90904150365E+02  0.41800000000E+01 0.  1.
         -5    1    3    3    0  502 -0.92007420947E+02  0.11304940810E+02 -0.94608005199E+02  0.13251910898E+03  0.41800000000E+01 0.  1.
        -11    1    1    2    0    0  0.93037939793E+02 -0.90709532443E+02 -0.83668822086E+01  0.13020861045E+03  0.00000000000E+00 0.  1.
         11    1    1    2    0    0  0.68792249349E+02  0.29157948723E+02  0.66605557574E+02  0.10009425480E+03  0.00000000000E+00 0. -1.
</event>
<event>
 8    1  0.3896452E-010  0.1479995E+03  0.7561462E-02  0.1202953E+00
         -2   -1    0    0    0  501 -0.00000000000E+00  0.00000000000E+00  0.12806193699E+03  0.12806193699E+03  0.00000000000E+00 0.  1.
          2   -1    0    0  501    0  0.00000000000E+00 -0.00000000000E+00 -0.36808306629E+03  0.36808306629E+03  0.00000000000E+00 0. -1.
         25    2    1    2    0    0  0.61287565866E+02  0.97330495294E+02  0.40840721627E+02  0.17477091920E+03  0.12509004202E+03 0.  0.
         23    2    1    2    0    0 -0.61287565866E+02 -0.97330495294E+02 -0.28086185093E+03  0.32137408407E+03  0.10568127348E+03 0.  0.
          5    1    3    3  502    0  0.77634068974E+02  0.11627882724E+03  0.48856924228E+02  0.14816303782E+03  0.41800000000E+01 0.  1.
         -5    1    3    3    0  502 -0.16346503108E+02 -0.18948331950E+02 -0.80162026011E+01  0.26607881383E+02  0.41800000000E+01 0.  1.
        -11    1    4    4    0    0 -0.69357593127E+02 -0.57445291389E+02 -0.94180179159E+02  0.13030864658E+03  0.00000000000E+00 0.  1.
         11    1    4    4    0    0  0.80700272609E+01 -0.39885203905E+02 -0.18668167177E+03  0.19106543749E+03  0.00000000000E+00 0. -1.
</event>
<event>
 8    1  0.3896452E-010  0.1121347E+03  0.7561462E-02  0.1256667E+00
         -1   -1    0    0    0  501 -0.00000000000E+00  0.00000000000E+00  0.25511649160E+02  0.25511649160E+02  0.00000000000E+00 0.  1.
          1   -1    0    0  501    0  0.00000000000E+00 -0.00000000000E+00 -0.55176840231E+03  0.55176840231E+03  0.00000000000E+00 0. -1.
         25    2    1    2    0    0 -0.83946149408E+01  0.12814034586E+02 -0.34024255312E+03  0.36283342083E+03  0.12509367401E+03 0.  0.
         23    2    1    2    0    0  0.83946149408E+01 -0.12814034586E+02 -0.18601420004E+03  0.21444663064E+03  0.10560021656E+03 0.  0.
          5    1    3    3  502    0 -0.59784454218E+02 -0.17735525047E+02 -0.21652108102E+03  0.22536100093E+03  0.41800000000E+01 0. -1.
         -5    1    3    3    0  502  0.51389839277E+02  0.30549559633E+02 -0.12372147210E+03  0.13747241990E+03  0.41800000000E+01 0. -1.
        -11    1    4    4    0    0  0.48208434097E+02  0.18036089714E+02 -0.61916398472E+02  0.80517041985E+02  0.00000000000E+00 0.  1.
         11    1    4    4    0    0 -0.39813819156E+02 -0.30850124300E+02 -0.12409780156E+03  0.13392958866E+03  0.00000000000E+00 0. -1.
</event>
<event>
 8    1  0.3896452E-010  0.1147833E+03  0.7561462E-02  0.1251960E+00
          1   -1    0    0  501    0  0.00000000000E+00  0.00000000000E+00  0.42650765313E+03  0.42650765313E+03  0.00000000000E+00 0. -1.
         -1   -1    0    0    0  501 -0.00000000000E+00 -0.00000000000E+00 -0.65482010819E+02  0.65482010819E+02  0.00000000000E+00 0.  1.
         25    2    1    2    0    0 -0.78381470278E+02  0.72485453478E+01  0.30482625517E+03  0.33876629141E+03  0.12508940028E+03 0.  0.
         23    2    1    2    0    0  0.78381470278E+02 -0.72485453478E+01  0.56199387138E+02  0.15322337254E+03  0.11883953250E+03 0.  0.
          5    1    3    3  502    0 -0.55124348219E+02 -0.22584724274E+02  0.41542757653E+02  0.72746385824E+02  0.41800000000E+01 0.  1.
         -5    1    3    3    0  502 -0.23257122059E+02  0.29833269621E+02  0.26328349752E+03  0.26601990559E+03  0.41800000000E+01 0.  1.
        -11    1    4    4    0    0  0.57512919730E+02 -0.55062231816E+02  0.44571993592E+01  0.79746171912E+02  0.00000000000E+00 0. -1.
         11    1    4    4    0    0  0.20868550548E+02  0.47813686468E+02  0.51742187779E+02  0.73477200626E+02  0.00000000000E+00 0.  1.
</event>
<event>
 8    1  0.3955366E-010  0.1145284E+03  0.7561462E-02  0.1252406E+00
          3   -1    0    0  501    0  0.00000000000E+00  0.00000000000E+00  0.20809710194E+03  0.20809710194E+03  0.00000000000E+00 0. -1.
         -3   -1    0    0    0  501 -0.00000000000E+00 -0.00000000000E+00 -0.19292280446E+03  0.19292280446E+03  0.00000000000E+00 0.  1.
         25    2    1    2    0    0  0.55072734310E+02 -0.55641283477E+02 -0.14458223865E+03  0.20659180496E+03  0.12508873511E+03 0.  0.
         23    2    1    2    0    0 -0.55072734310E+02  0.55641283477E+02  0.15975653613E+03  0.19442810144E+03  0.78429441557E+02 0.  0.
          5    1    3    3  502    0  0.46356002071E+02  0.26599747200E+02 -0.20455245454E+02  0.57378697665E+02  0.41800000000E+01 0. -1.
         -5    1    3    3    0  502  0.87167322387E+01 -0.82241030677E+02 -0.12412699320E+03  0.14921310729E+03  0.41800000000E+01 0. -1.
        -11    1    4    4    0    0 -0.59625735360E+02  0.30279386435E+02  0.55108988845E+02  0.86654891447E+02  0.00000000000E+00 0.  1.
         11    1    4    4    0    0  0.45530010503E+01  0.25361897042E+02  0.10464754728E+03  0.10777320999E+03  0.00000000000E+00 0. -1.
</event>
<event>
 8    1  0.3896452E-010  0.1014593E+03  0.7561462E-02  0.1277257E+00
         -1   -1    0    0    0  501 -0.00000000000E+00  0.00000000000E+00  0.20373516078E+02  0.20373516078E+02  0.00000000000E+00 0.  1.
          1   -1    0    0  501    0  0.00000000000E+00 -0.00000000000E+00 -0.62090011746E+03  0.62090011746E+03  0.00000000000E+00 0. -1.
         25    2    1    2    0    0 -0.49556326106E+02 -0.13085542930E+02 -0.34615670910E+03  0.37161771656E+03  0.12509276206E+03 0.  0.
         23    2    1    2    0    0  0.49556326106E+02  0.13085542930E+02 -0.25436989229E+03  0.26965591698E+03  0.73370365735E+02 0.  0.
          5    1    3    3  502    0 -0.55831427416E+02 -0.60707951384E+02 -0.26105900123E+03  0.27380993074E+03  0.41800000000E+01 0. -1.
         -5    1    3    3    0  502  0.62751013102E+01  0.47622408454E+02 -0.85097707871E+02  0.97807785826E+02  0.41800000000E+01 0. -1.
        -11    1    4    4    0    0  0.22439845799E+01  0.23555576076E+02 -0.22074381027E+02  0.32360144141E+02  0.00000000000E+00 0.  1.
         11    1    4    4    0    0  0.47312341526E+02 -0.10470033146E+02 -0.23229551126E+03  0.23729577284E+03  0.00000000000E+00 0. -1.
</event>
<event>
 7    1  0.3896452E-010  0.5191314E+02  0.7561462E-02  0.1435288E+00
          2   -1    0    0  501    0  0.00000000000E+00  0.00000000000E+00  0.19489288711E+03  0.19489288711E+03  0.00000000000E+00 0. -1.
         -2   -1    0    0    0  501 -0.00000000000E+00 -0.00000000000E+00 -0.34724744631E+02  0.34724744631E+02  0.00000000000E+00 0.  1.
         25    2    1    2    0    0 -0.20704562104E+01 -0.13206345986E+02  0.14871699185E+03  0.19478945961E+03  0.12508994983E+03 0.  0.
          5    1    3    3  502    0 -0.34108640425E+02  0.12289298887E+02 -0.39160624886E+01  0.36704688586E+02  0.41800000000E+01 0.  1.
         -5    1    3    3    0  502  0.32038184214E+02 -0.25495644873E+02  0.15263305433E+03  0.15808477103E+03  0.41800000000E+01 0.  1.
        -11    1    1    2    0    0  0.11402195196E+02  0.19760978754E+01  0.15807669265E+02  0.19590748473E+02  0.00000000000E+00 0. -1.
         11    1    1    2    0    0 -0.93317389861E+01  0.11230248111E+02 -0.43565186304E+01  0.15237423657E+02  0.00000000000E+00 0.  1.
</event>
<event>
 8    1  0.4189672E-010  0.1072370E+03  0.7561462E-02  0.1265774E+00
         -2   -1    0    0    0  501 -0.00000000000E+00  0.00000000000E+00  0.11797439218E+03  0.11797439218E+03  0.00000000000E+00 0.  1.
          2   -1    0    0  501    0  0.00000000000E+00 -0.00000000000E+00 -0.13460598552E+03  0.13460598552E+03  0.00000000000E+00 0. -1.
         25    2    1    2    0    0 -0.36794110143E+02 -0.63858694956E+02 -0.14319975729E+02  0.14589019991E+03  0.12508856568E+03 0.  0.
         23    2    1    2    0    0  0.36794110143E+02  0.63858694956E+02 -0.23116176140E+01  0.10669017779E+03  0.77108436624E+02 0.  0.
          5    1    3    3  502    0 -0.58103071602E+02 -0.76350654363E+02 -0.45187798202E+02  0.10613575673E+03  0.41800000000E+01 0.  1.
         -5    1    3    3    0  502  0.21308961459E+02  0.12491959407E+02  0.30867822472E+02  0.39754443179E+02  0.41800000000E+01 0.  1.
        -11    1    4    4    0    0  0.62633380898E+01  0.62513070639E+02  0.23106774258E+02  0.66940543928E+02  0.00000000000E+00 0.  1.
         11    1    4    4    0    0  0.30530772054E+02  0.13456243174E+01 -0.25418391872E+02  0.39749633864E+02  0.00000000000E+00 0. -1.
</event>
<event>
 8    1  0.3896452E-010  0.1987125E+03  0.7561462E-02  0.1150830E+00
         -2   -1    0    0    0  501 -0.00000000000E+00  0.00000000000E+00  0.77855569308E+02  0.77855569308E+02  0.00000000000E+00 0. -1.
          2   -1    0    0  501    0  0.00000000000E+00 -0.00000000000E+00 -0.57397673299E+03  0.57397673299E+03  0.00000000000E+00 0.  1.
         25    2    1    2    0    0  0.80261508092E+02 -0.15427022870E+03 -0.35591437150E+03  0.41540993227E+03  0.12509659806E+03 0.  0.
         23    2    1    2    0    0 -0.80261508092E+02  0.15427022870E+03 -0.14020679218E+03  0.23642237003E+03  0.77436292087E+02 0.  0.
          5    1    3    3  502    0  0.85950344137E+02 -0.17316968555E+03 -0.33106928413E+03  0.38340519682E+03  0.41800000000E+01 0. -1.
         -5    1    3    3    0  502 -0.56888360447E+01  0.18899456859E+02 -0.24845087374E+02  0.32004735458E+02  0.41800000000E+01 0. -1.
        -11    1    4    4    0    0 -0.15004587749E+02  0.93535572851E+02 -0.10266521682E+03  0.13969319163E+03  0.00000000000E+00 0.  1.
         11    1    4    4    0    0 -0.65256920344E+02  0.60734655844E+02 -0.37541575361E+02  0.96729178399E+02  0.00000000000E+00 0. -1.
</event>
<event>
 8    1  0.4447063E-010  0.1161216E+03  0.7561462E-02  0.1249636E+00
          1   -1    0    0  501    0  0.00000000000E+00  0.00000000000E+00  0.11190631854E+04  0.11190631854E+04  0.00000000000E+00 0. -1.
         -1   -1    0    0    0  501 -0.00000000000E+00 -0.00000000000E+00 -0.14743448181E+02  0.14743448181E+02  0.00000000000E+00 0.  1.
         25    2    1    2    0    0 -0.26121854304E+02 -0.50214736736E+02  0.62695595134E+03  0.64181431343E+03  0.12509187400E+03 0.  0.
         23    2    1    2    0    0  0.26121854304E+02  0.50214736736E+02  0.47736378584E+03  0.49199232012E+03  0.10476825837E+03 0.  0.
          5    1    3    3  502    0 -0.15545224684E+02 -0.79865813008E+02  0.23788984493E+03  0.25145427580E+03  0.41800000000E+01 0. -1.
         -5    1    3    3    0  502 -0.10576629620E+02  0.29651076272E+02  0.38906610641E+03  0.39036003763E+03  0.41800000000E+01 0. -1.
        -11    1    4    4    0    0 -0.39844071004E+02  0.30460722177E+02  0.19306660254E+03  0.19947460641E+03  0.00000000000E+00 0. -1.
         11    1    4    4    0    0  0.65965925309E+02  0.19754014559E+02  0.28429718331E+03  0.29251771370E+03  0.00000000000E+00 0.  1.
</event>
<event>
 8    1  0.3896452E-010  0.1345242E+03  0.7561462E-02  0.1220893E+00
         -2   -1    0    0    0  501 -0.00000000000E+00  0.00000000000E+00  0.82451477673E+02  0.82451477673E+02  0.00000000000E+00 0.  1.
          2   -1    0    0  501    0  0.00000000000E+00 -0.00000000000E+00 -0.27191465969E+03  0.27191465969E+03  0.00000000000E+00 0. -1.
         25    2    1    2    0    0  0.81469638630E+02 -0.42833716986E+02 -0.77975780436E+02  0.17377472525E+03  0.12508158727E+03 0.  0.
         23    2    1    2    0    0 -0.81469638630E+02  0.42833716986E+02 -0.11148740158E+03  0.18059141211E+03  0.10822101500E+03 0.  0.
          5    1    3    3  502    0  0.54047508273E+02 -0.81364703937E+02 -0.21702685812E+02  0.10014902480E+03  0.41800000000E+01 0.  1.
         -5    1    3    3    0  502  0.27422130357E+02  0.38530986951E+02 -0.56273094624E+02  0.73625700453E+02  0.41800000000E+01 0.  1.
        -11    1    4    4    0    0 -0.54868079794E+00  0.42877555344E+02 -0.85413812212E+02  0.95573558684E+02  0.00000000000E+00 0. -1.
         11    1    4    4    0    0 -0.80920957832E+02 -0.43838357563E-01 -0.26073589368E+02  0.85017853424E+02  0.00000000000E+00 0.  1.
</event>
<event>
 8    1  0.3896452E-010  0.1289009E+03  0.7561462E-02  0.1229096E+00
         -2   -1    0    0    0  501 -0.00000000000E+00  0.00000000000E+00  0.24340514747E+02  0.24340514747E+02  0.00000000000E+00 0.  1.
          2   -1    0    0  501    0  0.00000000000E+00 -0.00000000000E+00 -0.69664267513E+03  0.69664267513E+03  0.00000000000E+00 0. -1.
         25    2    1    2    0    0 -0.67804538639E+02  0.48309487250E+02 -0.35874429433E+03  0.38894233743E+03  0.12508961232E+03 0.  0.
         23    2    1    2    0    0  0.67804538639E+02 -0.48309487250E+02 -0.31355786605E+03  0.33204085245E+03  0.70720084235E+02 0.  0.
          5    1    3    3  502    0  0.36662282579E+02  0.12268708500E+02 -0.11170737402E+03  0.11828209494E+03  0.41800000000E+01 0. -1.
         -5    1    3    3    0  502 -0.10446682122E+03  0.36040778749E+02 -0.24703692031E+03  0.27066024249E+03  0.41800000000E+01 0. -1.
        -11    1    4    4    0    0  0.69499539462E+02 -0.10274368530E+02 -0.22300392989E+03  0.23380868543E+03  0.00000000000E+00 0. -1.
         11    1    4    4    0    0 -0.16950008227E+01 -0.38035118720E+02 -0.90553936158E+02  0.98232167020E+02  0.00000000000E+00 0.  1.
</event>
<event>
 8    1  0.3896452E-010  0.1299858E+03  0.7561462E-02  0.1227477E+00
         -1   -1    0    0    0  501 -0.00000000000E+00  0.00000000000E+00  0.31533734730E+02  0.31533734730E+02  0.00000000000E+00 0.  1.
          1   -1    0    0  501    0  0.00000000000E+00 -0.00000000000E+00 -0.55967159085E+03  0.55967159085E+03  0.00000000000E+00 0. -1.
         25    2    1    2    0    0 -0.24422973180E+02  0.50625115706E+02 -0.28823928184E+03  0.31920070872E+03  0.12509126625E+03 0.  0.
         23    2    1    2    0    0  0.24422973180E+02 -0.50625115706E+02 -0.23989857428E+03  0.27200461686E+03  0.11522066522E+03 0.  0.
          5    1    3    3  502    0 -0.70836692239E+02  0.52878306849E+02 -0.16166507560E+03  0.18430144159E+03  0.41800000000E+01 0.  1.
         -5    1    3    3    0  502  0.46413719059E+02 -0.22531911433E+01 -0.12657420624E+03  0.13489926713E+03  0.41800000000E+01 0.  1.
        -11    1    4    4    0    0  0.27641136471E+02 -0.85469326205E+02 -0.19794341276E+03  0.21737210678E+03  0.00000000000E+00 0.  1.
         11    1    4    4    0    0 -0.32181632915E+01  0.34844210500E+02 -0.41955161516E+02  0.54632510084E+02  0.00000000000E+00 0. -1.
</event>
<event>
 8    1  0.3896452E-010  0.1082951E+03  0.7561462E-02  0.1263760E+00
         -1   -1    0    0    0  501 -0.00000000000E+00  0.00000000000E+00  0.23785173085E+03  0.23785173085E+03  0.00000000000E+00 0.  1.
          1   -1    0    0  501    0  0.00000000000E+00 -0.00000000000E+00 -0.80076618083E+02  0.80076618083E+02  0.00000000000E+00 0. -1.
         25    2    1    2    0    0  0.68398741131E+02 -0.45375714120E+02  0.40498090689E+02  0.15500039926E+03  0.12509070790E+03 0.  0.
         23    2    1    2    0    0 -0.68398741131E+02  0.45375714120E+02  0.11727702208E+03  0.16292794967E+03  0.77809213181E+02 0.  0.
          5    1    3    3  502    0  0.76984689290E+02 -0.67421622157E+02  0.64502186937E+02  0.12103851469E+03  0.41800000000E+01 0.  1.
         -5    1    3    3    0  502 -0.85859481597E+01  0.22045908037E+02 -0.24004096248E+02  0.33961884571E+02  0.41800000000E+01 0.  1.
        -11    1    4    4    0    0 -0.52231428716E+02  0.51025970029E+02  0.12450628609E+03  0.14433844616E+03  0.00000000000E+00 0.  1.
         11    1    4    4    0    0 -0.16167312415E+02 -0.56502559094E+01 -0.72292640144E+01  0.18589503510E+02  0.00000000000E+00 0. -1.
</event>
<event>
 8    1  0.3896452E-010  0.1003586E+03  0.7561462E-02  0.1279544E+00
         -3   -1    0    0    0  501 -0.00000000000E+00  0.00000000000E+00  0.41059608547E+03  0.41059608547E+03  0.00000000000E+00 0.  1.
          3   -1    0    0  501    0  0.00000000000E+00 -0.00000000000E+00 -0.29102839063E+02  0.29102839063E+02  0.00000000000E+00 0. -1.
         25    2    1    2    0    0 -0.27594593693E+02  0.13903784189E+02  0.18034475739E+03  0.22164682926E+03  0.12509319960E+03 0.  0.
         23    2    1    2    0    0  0.27594593693E+02 -0.13903784189E+02  0.20114848902E+03  0.21805209528E+03  0.78302137930E+02 0.  0.
          5    1    3    3  502    0 -0.68281215026E+02  0.40448585580E+02  0.12211440017E+03  0.14569767167E+03  0.41800000000E+01 0.  1.
         -5    1    3    3    0  502  0.40686621333E+02 -0.26544801391E+02  0.58230357222E+02  0.75949157590E+02  0.41800000000E+01 0.  1.
        -11    1    4    4    0    0  0.15566160990E+02 -0.40449485002E+02  0.16982154069E+03  0.17526500474E+03  0.00000000000E+00 0.  1.
         11    1    4    4    0    0  0.12028432703E+02  0.26545700813E+02  0.31326948333E+02  0.42787090539E+02  0.00000000000E+00 0. -1.
</event>
<event>
 7    1  0.3896452E-010  0.1449827E+03  0.7561462E-02  0.1206777E+00
          1   -1    0    0  501    0  0.00000000000E+00  0.00000000000E+00  0.71957211023E+02  0.71957211023E+02  0.00000000000E+00 0. -1.
         -1   -1    0    0    0  501 -0.00000000000E+00 -0.00000000000E+00 -0.40805264766E+03  0.40805264766E+03  0.00000000000E+00 0.  1.
         25    2    1    2    0    0  0.74024722388E+02 -0.35307092673E+02 -0.25999261698E+03  0.29995114379E+03  0.12509307520E+03 0.  0.
          5    1    3    3  502    0  0.48213571301E+02  0.38844011936E+02 -0.65806371031E+02  0.90450851788E+02  0.41800000000E+01 0.  1.
         -5    1    3    3    0  502  0.25811151087E+02 -0.74151104609E+02 -0.19418624595E+03  0.20950029201E+03  0.41800000000E+01 0.  1.
        -11    1    1    2    0    0 -0.76262797352E+02 -0.31447154537E+02 -0.77593173264E+02  0.11325033477E+03  0.00000000000E+00 0.  1.
         11    1    1    2    0    0  0.22380749639E+01  0.66754247210E+02  0.14903536076E+01  0.66808380118E+02  0.00000000000E+00 0. -1.
</event>
<event>
 8    1  0.3896452E-010  0.2103671E+03  0.7561462E-02  0.1141276E+00
         -1   -1    0    0    0  501 -0.00000000000E+00  0.00000000000E+00  0.57658897059E+02  0.57658897059E+02  0.00000000000E+00 0.  1.
          1   -1    0    0  501    0  0.00000000000E+00 -0.00000000000E+00 -0.17382100143E+04  0.17382100143E+04  0.00000000000E+00 0. -1.
         25    2    1    2    0    0 -0.18036564201E+03  0.64112711536E+02 -0.15131061333E+04  0.15302872757E+04  0.12508705368E+03 0.  0.
         23    2    1    2    0    0  0.18036564201E+03 -0.64112711536E+02 -0.16744498397E+03  0.26558163567E+03  0.76508678925E+02 0.  0.
          5    1    3    3  502    0 -0.14260882917E+03 -0.12436506792E+02 -0.94840924964E+03  0.95916084265E+03  0.41800000000E+01 0.  1.
         -5    1    3    3    0  502 -0.37756812845E+02  0.76549218327E+02 -0.56469688367E+03  0.57112643308E+03  0.41800000000E+01 0.  1.
        -11    1    4    4    0    0  0.26626345912E+02 -0.15575624786E+02  0.29708416410E+01  0.30990132044E+02  0.00000000000E+00 0.  1.
         11    1    4    4    0    0  0.15373929610E+03 -0.48537086750E+02 -0.17041582562E+03  0.23459150363E+03  0.00000000000E+00 0. -1.
</event>
<event>
 7    1  0.3896452E-010  0.1492518E+03  0.7561462E-02  0.1201395E+00
          1   -1    0    0  501    0  0.00000000000E+00  0.00000000000E+00  0.19684237890E+04  0.19684237890E+04  0.00000000000E+00 0. -1.
         -1   -1    0    0    0  501 -0.00000000000E+00 -0.00000000000E+00 -0.27030910635E+02  0.27030910635E+02  0.00000000000E+00 0.  1.
         25    2    1    2    0    0  0.30717354943E+02  0.15780500916E+02  0.14123330812E+04  0.14182821207E+04  0.12508741558E+03 0.  0.
          5    1    3    3  502    0  0.14782664339E+00  0.68306437498E+02  0.80351409454E+03  0.80642306749E+03  0.41800000000E+01 0.  1.
         -5    1    3    3    0  502  0.30569528300E+02 -0.52525936582E+02  0.60881898669E+03  0.61185905324E+03  0.41800000000E+01 0.  1.
        -11    1    1    2    0    0  0.46766501628E+02 -0.62964133130E+02  0.58235982052E+02  0.97688368503E+02  0.00000000000E+00 0.  1.
         11    1    1    2    0    0 -0.77483856571E+02  0.47183632214E+02  0.47082381513E+03  0.47948421045E+03  0.00000000000E+00 0. -1.
</event>
<event>
 7    1  0.3896452E-010  0.1196917E+03  0.7561462E-02  0.1243607E+00
         -1   -1    0    0    0  501 -0.00000000000E+00  0.00000000000E+00  0.26228534472E+02  0.26228534472E+02  0.00000000000E+00 0.  1.
          1   -1    0    0  501    0  0.00000000000E+00 -0.00000000000E+00 -0.62190721428E+03  0.62190721428E+03  0.00000000000E+00 0. -1.
         25    2    1    2    0    0  0.20300713207E+02  0.83124099238E+02 -0.29267217850E+03  0.32958381829E+03  0.12508698726E+03 0.  0.
          5    1    3    3  502    0 -0.31517559716E+02  0.87032726283E+02 -0.13681666312E+03  0.16524020008E+03  0.41800000000E+01 0. -1.
         -5    1    3    3    0  502  0.51818272923E+02 -0.39086270452E+01 -0.15585551538E+03  0.16434361821E+03  0.41800000000E+01 0. -1.
        -11    1    1    2    0    0 -0.25221865226E+02 -0.22593548695E+02 -0.69982170453E+02  0.77743907218E+02  0.00000000000E+00 0.  1.
         11    1    1    2    0    0  0.49211520185E+01 -0.60530550543E+02 -0.23302433085E+03  0.24080802324E+03  0.00000000000E+00 0. -1.
</event>
<event>
 8    1  0.3896452E-010  0.1145695E+03  0.7561462E-02  0.1252334E+00
          2   -1    0    0  501    0  0.00000000000E+00  0.00000000000E+00  0.33736476216E+03  0.33736476216E+03  0.00000000000E+00 0.  1.
         -2   -1    0    0    0  501 -0.00000000000E+00 -0.00000000000E+00 -0.50289718410E+02  0.50289718410E+02  0.00000000000E+00 0. -1.
         25    2    1    2    0    0 -0.32326400981E+01  0.74009907948E+02  0.24448584172E+03  0.28445087291E+03  0.12510418005E+03 0.  0.
         23    2    1    2    0    0  0.32326400981E+01 -0.74009907948E+02  0.42589202037E+02  0.10320360766E+03  0.57872515646E+02 0.  0.
          5    1    3    3  502    0  0.60708602852E+02  0.40089534161E+02  0.12488025663E+03  0.14458650043E+03  0.41800000000E+01 0.  1.
         -5    1    3    3    0  502 -0.63941242950E+02  0.33920373787E+02  0.11960558509E+03  0.13986437249E+03  0.41800000000E+01 0.  1.
        -11    1    4    4    0    0 -0.15365258324E+02 -0.13469015981E+02  0.33474554934E+02  0.39217998201E+02  0.00000000000E+00 0.  1.
         11    1    4    4    0    0  0.18597898422E+02 -0.60540891967E+02  0.91146471029E+01  0.63985609458E+02  0.00000000000E+00 0. -1.
</event>
<event>
 7    1  0.3896452E-010  0.1363546E+03  0.7561462E-02  0.1218320E+00
          2   -1    0    0  501    0  0.00000000000E+00  0.00000000000E+00  0.22855649340E+02  0.22855649340E+02  0.00000000000E+00 0. -1.
         -2   -1    0    0    0  501 -0.00000000000E+00 -0.00000000000E+00 -0.98069554585E+03  0.98069554585E+03  0.00000000000E+00 0.  1.
         25    2    1    2    0    0 -0.60938838862E+01 -0.70333690743E+02 -0.38830900708E+03  0.41402259081E+03  0.12508739845E+03 0.  0.
          5    1    3    3  502    0 -0.14559843001E+02 -0.94297864041E+02 -0.37073977739E+03  0.38284400365E+03  0.41800000000E+01 0.  1.
         -5    1    3    3    0  502  0.84659591147E+01  0.23964173298E+02 -0.17569229683E+02  0.31178587159E+02  0.41800000000E+01 0.  1.
        -11    1    1    2    0    0 -0.39533721840E+02 -0.24286952780E+02 -0.20348507500E+03  0.20870780289E+03  0.00000000000E+00 0. -1.
         11    1    1    2    0    0  0.45627605726E+02  0.94620643523E+02 -0.36604581443E+03  0.38082080149E+03  0.00000000000E+00 0.  1.
</event>
<event>
 8    1  0.3896452E-010  0.1084467E+03  0.7561462E-02  0.1263474E+00
         -3   -1    0    0    0  501 -0.00000000000E+00  0.00000000000E+00  0.65349678029E+02  0.65349678029E+02  0.00000000000E+00 0.  1.
          3   -1    0    0  501    0  0.00000000000E+00 -0.00000000000E+00 -0.24499147429E+03  0.24499147429E+03  0.00000000000E+00 0. -1.
         25    2    1    2    0    0  0.72463623489E+02 -0.55100791143E+01 -0.80935014876E+02  0.16576967757E+03  0.12509105350E+03 0.  0.
         23    2    1    2    0    0 -0.72463623489E+02  0.55100791143E+01 -0.98706781383E+02  0.14457147475E+03  0.76658625863E+02 0.  0.
          5    1    3    3  502    0  0.17094434099E+02 -0.60343035524E+02 -0.17625898962E+02  0.65281286197E+02  0.41800000000E+01 0. -1.
         -5    1    3    3    0  502  0.55369189390E+02  0.54832956409E+02 -0.63309115914E+02  0.10048839137E+03  0.41800000000E+01 0. -1.
        -11    1    4    4    0    0 -0.27284692862E+02  0.12966302282E+02  0.55387737691E+01  0.30712497038E+02  0.00000000000E+00 0.  1.
         11    1    4    4    0    0 -0.45178930628E+02 -0.74562231678E+01 -0.10424555515E+03  0.11385897771E+03  0.00000000000E+00 0. -1.
</event>
<event>
 8    1  0.3896452E-010  0.7834957E+02  0.7561462E-02  0.1333801E+00
         -2   -1    0    0    0  501 -0.00000000000E+00  0.00000000000E+00  0.13000718514E+02  0.13000718514E+02  0.00000000000E+00 0.  1.
          2   -1    0    0  501    0  0.00000000000E+00 -0.00000000000E+00 -0.92503698337E+03  0.92503698337E+03  0.00000000000E+00 0. -1.
         25    2    1    2    0    0  0.39047130992E+02  0.95335705381E+01 -0.61261953092E+03  0.62655072535E+03  0.12509018489E+03 0.  0.
         23    2    1    2    0    0 -0.39047130992E+02 -0.95335705381E+01 -0.29941673394E+03  0.31148697654E+03  0.75882729185E+02 0.  0.
          5    1    3    3  502    0  0.19261769901E+02  0.38726505001E+02 -0.56736053285E+03  0.56902214772E+03  0.41800000000E+01 0. -1.
         -5    1    3    3    0  502  0.19785361091E+02 -0.29192934462E+02 -0.45258998078E+02  0.57528577621E+02  0.41800000000E+01 0. -1.
        -11    1    4    4    0    0 -0.46326209279E+01 -0.34756944760E+02 -0.71788766589E+02  0.79894514168E+02  0.00000000000E+00 0.  1.
         11    1    4    4    0    0 -0.34414510064E+02  0.25223374222E+02 -0.22762796735E+03  0.23159246237E+03  0.00000000000E+00 0. -1.
</event>
<event>
 8    1  0.4517768E-010  0.1289832E+03  0.7561462E-02  0.1228972E+00
         -4   -1    0    0    0  501 -0.00000000000E+00  0.00000000000E+00  0.73390356689E+02  0.73390356689E+02  0.00000000000E+00 0.  1.
          4   -1    0    0  501    0  0.00000000000E+00 -0.00000000000E+00 -0.37633802501E+03  0.37633802501E+03  0.00000000000E+00 0. -1.
         25    2    1    2    0    0 -0.89461896013E+02 -0.39610045289E+02 -0.63514038246E+02  0.17104213204E+03  0.12509592860E+03 0.  0.
         23    2    1    2    0    0  0.89461896013E+02  0.39610045289E+02 -0.23943363007E+03  0.27868624966E+03  0.10375536619E+03 0.  0.
          5    1    3    3  502    0 -0.48340357399E+01  0.41147795552E+02 -0.19605201539E+02  0.46025485415E+02  0.41800000000E+01 0. -1.
         -5    1    3    3    0  502 -0.84627860273E+02 -0.80757840841E+02 -0.43908836707E+02  0.12501664662E+03  0.41800000000E+01 0. -1.
        -11    1    4    4    0    0  0.30345589797E+02  0.22353052038E+02 -0.71298433966E+01  0.38358159789E+02  0.00000000000E+00 0.  1.
         11    1    4    4    0    0  0.59116306216E+02  0.17256993252E+02 -0.23230378668E+03  0.24032808987E+03  0.00000000000E+00 0. -1.
</event>
<event>
 8    1  0.3896452E-010  0.8860793E+02  0.7561462E-02  0.1306258E+00
         -2   -1    0    0    0  501 -0.00000000000E+00  0.00000000000E+00  0.33022948246E+02  0.33022948246E+02  0.00000000000E+00 0.  1.
          2   -1    0    0  501    0  0.00000000000E+00 -0.00000000000E+00 -0.55348640052E+03  0.55348640052E+03  0.00000000000E+00 0. -1.
         25    2    1    2    0    0 -0.18430844780E+02 -0.47996690527E+02 -0.33318872338E+03  0.35959148034E+03  0.12509168239E+03 0.  0.
         23    2    1    2    0    0  0.18430844780E+02  0.47996690527E+02 -0.18727472889E+03  0.22691786842E+03  0.11737340665E+03 0.  0.
          5    1    3    3  502    0  0.20191588111E+02 -0.34132899142E+02 -0.21731055469E+02  0.45414383251E+02  0.41800000000E+01 0.  1.
         -5    1    3    3    0  502 -0.38622432891E+02 -0.13863791385E+02 -0.31145766791E+03  0.31417709709E+03  0.41800000000E+01 0.  1.
        -11    1    4    4    0    0 -0.32363938696E+02  0.16559339525E+02 -0.70242343388E+01  0.37026694715E+02  0.00000000000E+00 0.  1.
         11    1    4    4    0    0  0.50794783476E+02  0.31437351002E+02 -0.18025049455E+03  0.18989117371E+03  0.00000000000E+00 0. -1.
</event>
<event>
 8    1  0.3896452E-010  0.9251809E+02  0.7561462E-02  0.1296866E+00
          1   -1    0    0  501    0  0.00000000000E+00  0.00000000000E+00  0.72502782019E+03  0.72502782019E+03  0.00000000000E+00 0. -1.
         -1   -1    0    0    0  501 -0.00000000000E+00 -0.00000000000E+00 -0.24228015038E+02  0.24228015038E+02  0.00000000000E+00 0.  1.
         25    2    1    2    0    0 -0.54522230990E+02  0.44736052739E+02  0.54479211490E+03  0.56340015911E+03  0.12508917917E+03 0.  0.
         23    2    1    2    0    0  0.54522230990E+02 -0.44736052739E+02  0.15600769026E+03  0.18585567612E+03  0.72318357552E+02 0.  0.
          5    1    3    3  502    0  0.11899164760E+00  0.54675538355E+02  0.91305946239E+02  0.10650669872E+03  0.41800000000E+01 0. -1.
         -5    1    3    3    0  502 -0.54641222638E+02 -0.99394856160E+01  0.45348616866E+03  0.45689346039E+03  0.41800000000E+01 0. -1.
        -11    1    4    4    0    0  0.99796145419E+01 -0.22729176997E+02  0.30242906932E+01  0.25007089546E+02  0.00000000000E+00 0.  1.
         11    1    4    4    0    0  0.44542616449E+02 -0.22006875742E+02  0.15298339956E+03  0.16084858657E+03  0.00000000000E+00 0. -1.
</event>
<event>
 8    1  0.3896452E-010  0.1560325E+03  0.7561462E-02  0.1193250E+00
         -1   -1    0    0    0  501 -0.00000000000E+00  0.00000000000E+00  0.46508087180E+02  0.46508087180E+02  0.00000000000E+00 0. -1.
          1   -1    0    0  501    0  0.00000000000E+00 -0.00000000000E+00 -0.76719851886E+03  0.76719851886E+03  0.00000000000E+00 0.  1.
         25    2    1    2    0    0 -0.14893027342E+03 -0.30366357558E+02 -0.49325203805E+03  0.53108143591E+03  0.12509027346E+03 0.  0.
         23    2    1    2    0    0  0.14893027342E+03  0.30366357558E+02 -0.22743839363E+03  0.28262517013E+03  0.71038172000E+02 0.  0.
          5    1    3    3  502    0 -0.11369496025E+03 -0.28656980039E+02 -0.47840245058E+03  0.49257907347E+03  0.41800000000E+01 0.  1.
         -5    1    3    3    0  502 -0.35235313174E+02 -0.17093775193E+01 -0.14849587467E+02  0.38502362446E+02  0.41800000000E+01 0.  1.
        -11    1    4    4    0    0  0.52857354401E+02 -0.12022580810E+02 -0.38573746321E+02  0.66531017344E+02  0.00000000000E+00 0.  1.
         11    1    4    4    0    0  0.96072919020E+02  0.42388938368E+02 -0.18886464731E+03  0.21609415278E+03  0.00000000000E+00 0. -1.
</event>
<event>
 8    1  0.3896452E-010  0.1251863E+03  0.7561462E-02  0.1234778E+00
         -2   -1    0    0    0  501 -0.00000000000E+00  0.00000000000E+00  0.31172866001E+03  0.31172866001E+03  0.00000000000E+00 0.  1.
          2   -1    0    0  501    0  0.00000000000E+00 -0.00000000000E+00 -0.58068916252E+02  0.58068916252E+02  0.00000000000E+00 0. -1.
         25    2    1    2    0    0 -0.37640850509E+02  0.49392754043E+02  0.16510021408E+03  0.21624389473E+03  0.12508742359E+03 0.  0.
         23    2    1    2    0    0  0.37640850509E+02 -0.49392754043E+02  0.88559529681E+02  0.15355368154E+03  0.10899295866E+03 0.  0.
          5    1    3    3  502    0 -0.12015688430E+02  0.86195857429E+02  0.72798198896E+02  0.11353921247E+03  0.41800000000E+01 0. -1.
         -5    1    3    3    0  502 -0.25625162079E+02 -0.36803103386E+02  0.92302015184E+02  0.10270468226E+03  0.41800000000E+01 0. -1.
        -11    1    4    4    0    0 -0.20109063175E+02 -0.56542870643E+02  0.19182626811E+02  0.63003522233E+02  0.00000000000E+00 0. -1.
         11    1    4    4    0    0  0.57749913684E+02  0.71501166005E+01  0.69376902870E+02  0.90550159303E+02  0.00000000000E+00 0.  1.
</event>
<event>
 8    1  0.3896452E-010  0.4210749E+03  0.7561462E-02  0.1036717E+00
          2   -1    0    0  501    0  0.00000000000E+00  0.00000000000E+00  0.14593033267E+04  0.14593033267E+04  0.00000000000E+00 0. -1.
         -2   -1    0    0    0  501 -0.00000000000E+00 -0.00000000000E+00 -0.13423777321E+03  0.13423777321E+03  0.00000000000E+00 0.  1.
         25    2    1    2    0    0 -0.37876825630E+03  0.15250874093E+03  0.44415084557E+03  0.61615114781E+03  0.12509178746E+03 0.  0.
         23    2    1    2    0    0  0.37876825630E+03 -0.15250874093E+03  0.88091470789E+03  0.97738995208E+03  0.11205395037E+03 0.  0.
          5    1    3    3  502    0 -0.26224314286E+02  0.51753421405E+02  0.84057235886E+02  0.10222143900E+03  0.41800000000E+01 0.  1.
         -5    1    3    3    0  502 -0.35254394202E+03  0.10075531953E+03  0.36009360968E+03  0.51392970881E+03  0.41800000000E+01 0.  1.
        -11    1    4    4    0    0  0.84123469466E+02 -0.74822615308E+02  0.16972512992E+03  0.20367081677E+03  0.00000000000E+00 0.  1.
         11    1    4    4    0    0  0.29464478684E+03 -0.77686125624E+02  0.71118957797E+03  0.77371913530E+03  0.00000000000E+00 0. -1.
</event>
<event>
 8    1  0.3896452E-010  0.2467471E+03  0.7561462E-02  0.1115378E+00
          1   -1    0    0  501    0  0.00000000000E+00  0.00000000000E+00  0.20844365083E+03  0.20844365083E+03  0.00000000000E+00 0. -1.
         -1   -1    0    0    0  501 -0.00000000000E+00 -0.00000000000E+00 -0.40099145071E+03  0.40099145071E+03  0.00000000000E+00 0.  1.
         25    2    1    2    0    0  0.25148708119E+02 -0.22769427998E+03 -0.23617788655E+03  0.35200545703E+03  0.12510277786E+03 0.  0.
         23    2    1    2    0    0 -0.25148708119E+02  0.22769427998E+03  0.43630086666E+02  0.25742964451E+03  0.10903804270E+03 0.  0.
          5    1    3    3  502    0  0.31860473490E+02 -0.49819756996E+01 -0.58746098971E+02  0.67145263401E+02  0.41800000000E+01 0.  1.
         -5    1    3    3    0  502 -0.67117653710E+01 -0.22271230428E+03 -0.17743178758E+03  0.28486019363E+03  0.41800000000E+01 0.  1.
        -11    1    4    4    0    0 -0.47202305600E+02  0.16720530826E+03 -0.94345874715E+01  0.17399621894E+03  0.00000000000E+00 0.  1.
         11    1    4    4    0    0  0.22053597481E+02  0.60488971716E+02  0.53064674137E+02  0.83433425570E+02  0.00000000000E+00 0. -1.
</event>
<event>
 8    1  0.3896452E-010  0.9457600E+02  0.7561462E-02  0.1292134E+00
         -3   -1    0    0    0  501 -0.00000000000E+00  0.00000000000E+00  0.14258072829E+03  0.14258072829E+03  0.00000000000E+00 0.  1.
          3   -1    0    0  501    0  0.00000000000E+00 -0.00000000000E+00 -0.10251413562E+03  0.10251413562E+03  0.00000000000E+00 0. -1.
         25    2    1    2    0    0  0.49508401339E+02 -0.56702534850E+02  0.27063286464E+02  0.14848176851E+03  0.12509258509E+03 0.  0.
         23    2    1    2    0    0 -0.49508401339E+02  0.56702534850E+02  0.13003306206E+02  0.96613095402E+02  0.59150189933E+02 0.  0.
          5    1    3    3  502    0  0.54415211180E+02 -0.17495040796E+02 -0.40447032042E+02  0.70146464353E+02  0.41800000000E+01 0. -1.
         -5    1    3    3    0  502 -0.49068098409E+01 -0.39207494054E+02  0.67510318506E+02  0.78335304159E+02  0.41800000000E+01 0. -1.
        -11    1    4    4    0    0 -0.53299469644E+02  0.22763530930E+02  0.20814105404E+02  0.61581156115E+02  0.00000000000E+00 0.  1.
         11    1    4    4    0    0  0.37910683049E+01  0.33939003921E+02 -0.78107991983E+01  0.35031939286E+02  0.00000000000E+00 0. -1.
</event>
<event>
 8    1  0.3896452E-010  0.9833030E+02  0.7561462E-02  0.1283847E+00
          2   -1    0    0  501    0  0.00000000000E+00  0.00000000000E+00  0.12879132110E+03  0.12879132110E+03  0.00000000000E+00 0.  1.
         -2   -1    0    0    0  501 -0.00000000000E+00 -0.00000000000E+00 -0.87399130079E+02  0.87399130079E+02  0.00000000000E+00 0. -1.
         25    2    1    2    0    0  0.20197509931E+01 -0.15090131120E+02 -0.77821365972E+01  0.12625354162E+03  0.12509038200E+03 0.  0.
         23    2    1    2    0    0 -0.20197509931E+01  0.15090131120E+02  0.49174327616E+02  0.89936909561E+02  0.73747825415E+02 0.  0.
          5    1    3    3  502    0 -0.21168642639E+01 -0.69171013476E+02  0.75371025955E+01  0.69738013559E+02  0.41800000000E+01 0. -1.
         -5    1    3    3    0  502  0.41366152570E+01  0.54080882356E+02 -0.15319239193E+02  0.56515528057E+02  0.41800000000E+01 0. -1.
        -11    1    4    4    0    0 -0.35260339769E+00  0.43986030801E+02  0.18373420697E+02  0.47670513138E+02  0.00000000000E+00 0. -1.
         11    1    4    4    0    0 -0.16671475955E+01 -0.28895899681E+02  0.30800906919E+02  0.42266396422E+02  0.00000000000E+00 0.  1.
</event>
<event>
 8    1  0.3896452E-010  0.8440300E+02  0.7561462E-02  0.1317001E+00
         -2   -1    0    0    0  501 -0.00000000000E+00  0.00000000000E+00  0.30841616933E+02  0.30841616933E+02  0.00000000000E+00 0.  1.
          2   -1    0    0  501    0  0.00000000000E+00 -0.00000000000E+00 -0.47414771974E+03  0.47414771974E+03  0.00000000000E+00 0. -1.
         25    2    1    2    0    0  0.15001105738E+02 -0.27857635160E+02 -0.23915952246E+03  0.27174551005E+03  0.12508902445E+03 0.  0.
         23    2    1    2    0    0 -0.15001105738E+02  0.27857635160E+02 -0.20414658035E+03  0.23324382663E+03  0.10828561946E+03 0.  0.
          5    1    3    3  502    0 -0.18730891615E+02  0.13178353780E+02  0.32879377269E+01  0.23511661862E+02  0.41800000000E+01 0. -1.
         -5    1    3    3    0  502  0.33731997353E+02 -0.41035988940E+02 -0.24244746018E+03  0.24823384818E+03  0.41800000000E+01 0. -1.
        -11    1    4    4    0    0  0.29383568849E+02 -0.12798452920E+02 -0.16234295676E+02  0.35926965799E+02  0.00000000000E+00 0.  1.
         11    1    4    4    0    0 -0.44384674588E+02  0.40656088080E+02 -0.18791228468E+03  0.19731686083E+03  0.00000000000E+00 0. -1.
</event>
<event>
 8    1  0.4425664E-010  0.1471252E+03  0.7561462E-02  0.1204051E+00
          2   -1    0    0  501    0  0.00000000000E+00  0.00000000000E+00  0.13176513463E+04  0.13176513463E+04  0.00000000000E+00 0. -1.
         -2   -1    0    0    0  501 -0.00000000000E+00 -0.00000000000E+00 -0.17565118947E+02  0.17565118947E+02  0.00000000000E+00 0.  1.
         25    2    1    2    0    0  0.96302290338E+02  0.48257972006E+02  0.84771809560E+03  0.86364050501E+03  0.12508392898E+03 0.  0.
         23    2    1    2    0    0 -0.96302290338E+02 -0.48257972006E+02  0.45236813178E+03  0.47157596027E+03  0.78383650512E+02 0.  0.
          5    1    3    3  502    0  0.88293757585E+02 -0.24269932744E+02  0.44475028792E+03  0.45409812626E+03  0.41800000000E+01 0.  1.
         -5    1    3    3    0  502  0.80085327533E+01  0.72527904750E+02  0.40296780768E+03  0.40954237875E+03  0.41800000000E+01 0.  1.
        -11    1    4    4    0    0 -0.73590502450E+02 -0.67403132668E+02  0.29480991056E+03  0.31124207253E+03  0.00000000000E+00 0. -1.
         11    1    4    4    0    0 -0.22711787888E+02  0.19145160662E+02  0.15755822121E+03  0.16033388774E+03  0.00000000000E+00 0.  1.
</event>
<event>
 8    1  0.3896452E-010  0.1639045E+03  0.7561462E-02  0.1184358E+00
         -2   -1    0    0    0  501 -0.00000000000E+00  0.00000000000E+00  0.44281495115E+03  0.44281495115E+03  0.00000000000E+00 0.  1.
          2   -1    0    0  501    0  0.00000000000E+00 -0.00000000000E+00 -0.10892662107E+03  0.10892662107E+03  0.00000000000E+00 0. -1.
         25    2    1    2    0    0  0.80319252802E+02 -0.10408794501E+03  0.61447469408E+01  0.18157905607E+03  0.12509081909E+03 0.  0.
         23    2    1    2    0    0 -0.80319252802E+02  0.10408794501E+03  0.32774358314E+03  0.37016251615E+03  0.11099076268E+03 0.  0.
          5    1    3    3  502    0  0.80423912030E+02 -0.12435957285E+03 -0.18597595352E+02  0.14932063467E+03  0.41800000000E+01 0. -1.
         -5    1    3    3    0  502 -0.10465922765E+00  0.20271627840E+02  0.24742342293E+02  0.32258421397E+02  0.41800000000E+01 0. -1.
        -11    1    4    4    0    0 -0.92550142482E+02  0.11130118532E+03  0.32489127470E+03  0.35567938245E+03  0.00000000000E+00 0.  1.
         11    1    4    4    0    0  0.12230889680E+02 -0.72132403046E+01  0.28523084405E+01  0.14483133691E+02  0.00000000000E+00 0. -1.
</event>
<event>
 8    1  0.3896452E-010  0.1816966E+03  0.7561462E-02  0.1166171E+00
          2   -1    0    0  501    0  0.00000000000E+00  0.00000000000E+00  0.12432909169E+04  0.12432909169E+04  0.00000000000E+00 0. -1.
         -2   -1    0    0    0  501 -0.00000000000E+00 -0.00000000000E+00 -0.28726239887E+02  0.28726239887E+02  0.00000000000E+00 0.  1.
         25    2    1    2    0    0  0.86639103611E+00  0.14104119904E+03  0.48365140939E+03  0.51909552343E+03  0.12509239056E+03 0.  0.
         23    2    1    2    0    0 -0.86639103611E+00 -0.14104119904E+03  0.73091326758E+03  0.75292163331E+03  0.11297526604E+03 0.  0.
          5    1    3    3  502    0  0.57759246975E+02  0.39236242229E+02  0.14707890232E+03  0.16286586267E+03  0.41800000000E+01 0.  1.
         -5    1    3    3    0  502 -0.56892855939E+02  0.10180495681E+03  0.33657250708E+03  0.35622966076E+03  0.41800000000E+01 0.  1.
        -11    1    4    4    0    0  0.49835445196E+02 -0.40786973533E+02  0.34626233624E+03  0.35219987835E+03  0.00000000000E+00 0. -1.
         11    1    4    4    0    0 -0.50701836232E+02 -0.10025422550E+03  0.38465093133E+03  0.40072175497E+03  0.00000000000E+00 0.  1.
</event>
<event>
 8    1  0.3896452E-010  0.1534285E+03  0.7561462E-02  0.1196322E+00
          1   -1    0    0  501    0  0.00000000000E+00  0.00000000000E+00  0.38428192776E+03  0.38428192776E+03  0.00000000000E+00 0. -1.
         -1   -1    0    0    0  501 -0.00000000000E+00 -0.00000000000E+00 -0.67874023627E+02  0.67874023627E+02  0.00000000000E+00 0.  1.
         25    2    1    2    0    0  0.28856685951E+02 -0.10764031467E+03  0.18725950160E+03  0.25127142971E+03  0.12510821230E+03 0.  0.
         23    2    1    2    0    0 -0.28856685951E+02  0.10764031467E+03  0.12914840253E+03  0.20088452167E+03  0.10609493628E+03 0.  0.
          5    1    3    3  502    0 -0.39054049908E+02 -0.66088804881E+02  0.13679522861E+03  0.15691830969E+03  0.41800000000E+01 0.  1.
         -5    1    3    3    0  502  0.67910735858E+02 -0.41551509788E+02  0.50464272987E+02  0.94353120025E+02  0.41800000000E+01 0.  1.
        -11    1    4    4    0    0 -0.30954270441E+02 -0.10050113358E+02  0.47695945244E+02  0.57741448109E+02  0.00000000000E+00 0.  1.
         11    1    4    4    0    0  0.20975844900E+01  0.11769042803E+03  0.81452457290E+02  0.14314307356E+03  0.00000000000E+00 0. -1.
</event>
<event>
 8    1  0.3896452E-010  0.1527900E+03  0.7561462E-02  0.1197086E+00
         -1   -1    0    0    0  501 -0.00000000000E+00  0.00000000000E+00  0.38670000515E+03  0.38670000515E+03  0.00000000000E+00 0.  1.
          1   -1    0    0  501    0  0.00000000000E+00 -0.00000000000E+00 -0.71303341165E+02  0.71303341165E+02  0.00000000000E+00 0. -1.
         25    2    1    2    0    0  0.10187382331E+03  0.25693457090E+01  0.21716446459E+03  0.27054133425E+03  0.12508929387E+03 0.  0.
         23    2    1    2    0    0 -0.10187382331E+03 -0.25693457090E+01  0.98232199390E+02  0.18746201207E+03  0.12291282910E+03 0.  0.
          5    1    3    3  502    0  0.12909319393E+03  0.14566869866E+02  0.16169637600E+03  0.20746189247E+03  0.41800000000E+01 0. -1.
         -5    1    3    3    0  502 -0.27219370617E+02 -0.11997524157E+02  0.55468088590E+02  0.63079441774E+02  0.41800000000E+01 0. -1.
        -11    1    4    4    0    0 -0.40945209783E+02 -0.52646653285E+02  0.84104582932E+02  0.10733946700E+03  0.00000000000E+00 0.  1.
         11    1    4    4    0    0 -0.60928613528E+02  0.50077307576E+02  0.14127616458E+02  0.80122545062E+02  0.00000000000E+00 0. -1.
</event>
<event>
 8    1  0.3896452E-010  0.1219984E+03  0.7561462E-02  0.1239836E+00
          2   -1    0    0  501    0  0.00000000000E+00  0.00000000000E+00  0.49518887474E+03  0.49518887474E+03  0.00000000000E+00 0. -1.
         -2   -1    0    0    0  501 -0.00000000000E+00 -0.00000000000E+00 -0.45838370700E+02  0.45838370700E+02  0.00000000000E+00 0.  1.
         25    2    1    2    0    0  0.93661474483E+02  0.25883197358E+02  0.23556459888E+03  0.28386585012E+03  0.12508688545E+03 0.  0.
         23    2    1    2    0    0 -0.93661474483E+02 -0.25883197358E+02  0.21378590516E+03  0.25716139532E+03  0.10481010585E+03 0.  0.
          5    1    3    3  502    0  0.59710135297E+01 -0.32808277460E+02  0.13104307346E+03  0.13528412906E+03  0.41800000000E+01 0. -1.
         -5    1    3    3    0  502  0.87690460954E+02  0.58691474818E+02  0.10452152542E+03  0.14858172106E+03  0.41800000000E+01 0. -1.
        -11    1    4    4    0    0 -0.69532572915E+02 -0.36378483177E+02  0.21690535937E+03  0.23066449154E+03  0.00000000000E+00 0. -1.
         11    1    4    4    0    0 -0.24128901568E+02  0.10495285819E+02 -0.31194542088E+01  0.26496903779E+02  0.00000000000E+00 0.  1.
</event>
<event>
 8    1  0.4182705E-010  0.1650928E+03  0.7561462E-02  0.1183064E+00
         -2   -1    0    0    0  501 -0.00000000000E+00  0.00000000000E+00  0.28904101640E+02  0.28904101640E+02  0.00000000000E+00 0.  1.
          2   -1    0    0  501    0  0.00000000000E+00 -0.00000000000E+00 -0.17332512394E+04  0.17332512394E+04  0.00000000000E+00 0. -1.
         25    2    1    2    0    0 -0.67976370537E+02  0.12200076735E+03 -0.14482860635E+04  0.14603712173E+04  0.12508635573E+03 0.  0.
         23    2    1    2    0    0  0.67976370537E+02 -0.12200076735E+03 -0.25606107425E+03  0.30178412374E+03  0.77468764083E+02 0.  0.
          5    1    3    3  502    0 -0.70897246057E+00 -0.16928551640E+02 -0.43849277377E+03  0.43883990651E+03  0.41800000000E+01 0.  1.
         -5    1    3    3    0  502 -0.67267398076E+02  0.13892931899E+03 -0.10097932898E+04  0.10215313108E+04  0.41800000000E+01 0.  1.
        -11    1    4    4    0    0  0.60464865065E+02 -0.32770907837E+02 -0.13120014696E+03  0.14813308500E+03  0.00000000000E+00 0.  1.
         11    1    4    4    0    0  0.75115054719E+01 -0.89229859509E+02 -0.12486092729E+03  0.15365103874E+03  0.00000000000E+00 0. -1.
</event>
<event>
 8    1  0.3896452E-010  0.1468555E+03  0.7561462E-02  0.1204391E+00
          1   -1    0    0  501    0  0.00000000000E+00  0.00000000000E+00  0.36836656308E+03  0.36836656308E+03  0.00000000000E+00 0. -1.
         -1   -1    0    0    0  501 -0.00000000000E+00 -0.00000000000E+00 -0.10329672302E+03  0.10329672302E+03  0.00000000000E+00 0.  1.
         25    2    1    2    0    0  0.21574537247E+02  0.12989703861E+03  0.20166178668E+02  0.18273831590E+03  0.12509163057E+03 0.  0.
         23    2    1    2    0    0 -0.21574537247E+02 -0.12989703861E+03  0.24490366139E+03  0.28892497020E+03  0.78492889782E+02 0.  0.
          5    1    3    3  502    0  0.52308909578E+02  0.88733311015E+02 -0.33436653757E+02  0.10837575706E+03  0.41800000000E+01 0. -1.
         -5    1    3    3    0  502 -0.30734372331E+02  0.41163727600E+02  0.53602832425E+02  0.74362558835E+02  0.41800000000E+01 0. -1.
        -11    1    4    4    0    0 -0.32392655548E+02 -0.12041331495E+03  0.16020427264E+03  0.20301246150E+03  0.00000000000E+00 0.  1.
         11    1    4    4    0    0  0.10818118301E+02 -0.94837236683E+01  0.84699388744E+02  0.85912508704E+02  0.00000000000E+00 0. -1.
</event>
<event>
 8    1  0.3896452E-010  0.1236692E+03  0.7561462E-02  0.1237164E+00
         -1   -1    0    0    0  501 -0.00000000000E+00  0.00000000000E+00  0.28002863944E+03  0.28002863944E+03  0.00000000000E+00 0.  1.
          1   -1    0    0  501    0  0.00000000000E+00 -0.00000000000E+00 -0.98140023189E+02  0.98140023189E+02  0.00000000000E+00 0. -1.
         25    2    1    2    0    0  0.36366490800E+02 -0.26119526014E+02  0.21304270036E+03  0.25107685625E+03  0.12509054432E+03 0.  0.
         23    2    1    2    0    0 -0.36366490800E+02  0.26119526014E+02 -0.31154084109E+02  0.12709180637E+03  0.11479111028E+03 0.  0.
          5    1    3    3  502    0  0.75376436136E+00  0.44616915573E+02  0.37449616083E+02  0.58405337605E+02  0.41800000000E+01 0.  1.
         -5    1    3    3    0  502  0.35612726439E+02 -0.70736441587E+02  0.17559308427E+03  0.19267151865E+03  0.41800000000E+01 0.  1.
        -11    1    4    4    0    0 -0.75313412960E+02 -0.17321611081E+01 -0.19090940235E+02  0.77714699722E+02  0.00000000000E+00 0.  1.
         11    1    4    4    0    0  0.38946922160E+02  0.27851687122E+02 -0.12063143874E+02  0.49377106653E+02  0.00000000000E+00 0. -1.
</event>
<event>
 8    1  0.3896452E-010  0.8266754E+02  0.7561462E-02  0.1321647E+00
         -2   -1    0    0    0  501 -0.00000000000E+00  0.00000000000E+00  0.18145982543E+02  0.18145982543E+02  0.00000000000E+00 0.  1.
          2   -1    0    0  501    0  0.00000000000E+00 -0.00000000000E+00 -0.61588552790E+03  0.61588552790E+03  0.00000000000E+00 0. -1.
         25    2    1    2    0    0  0.25133608151E+02  0.19601667877E+02 -0.45534608701E+03  0.47328905279E+03  0.12508614987E+03 0.  0.
         23    2    1    2    0    0 -0.25133608151E+02 -0.19601667877E+02 -0.14239345834E+03  0.16074245765E+03  0.67426382607E+02 0.  0.
          5    1    3    3  502    0  0.71921648389E+00 -0.36366243130E+02 -0.43220836318E+02  0.56643922920E+02  0.41800000000E+01 0.  1.
         -5    1    3    3    0  502  0.24414391667E+02  0.55967911007E+02 -0.41212525069E+03  0.41664512987E+03  0.41800000000E+01 0.  1.
        -11    1    4    4    0    0 -0.44597170774E+02 -0.17628560697E+02 -0.64165938625E+02  0.80105814226E+02  0.00000000000E+00 0.  1.
         11    1    4    4    0    0  0.19463562623E+02 -0.19731071805E+01 -0.78227519718E+02  0.80636643427E+02  0.00000000000E+00 0. -1.
</event>
<event>
 8    1  0.3896452E-010  0.8678480E+02  0.7561462E-02  0.1310830E+00
         -1   -1    0    0    0  501 -0.00000000000E+00  0.00000000000E+00  0.12707819631E+03  0.12707819631E+03  0.00000000000E+00 0.  1.
          1   -1    0    0  501    0  0.00000000000E+00 -0.00000000000E+00 -0.12163947672E+03  0.12163947672E+03  0.00000000000E+00 0. -1.
         25    2    1    2    0    0 -0.83294414910E+01 -0.17952577975E+02  0.32070668092E+02  0.13064421810E+03  0.12509080429E+03 0.  0.
         23    2    1    2    0    0  0.83294414910E+01  0.17952577975E+02 -0.26631948501E+02  0.11807345493E+03  0.11331551273E+03 0.  0.
          5    1    3    3  502    0  0.30674867534E+02 -0.56470224805E+02  0.38913648647E+02  0.75243459774E+02  0.41800000000E+01 0. -1.
         -5    1    3    3    0  502 -0.39004309025E+02  0.38517646830E+02 -0.68429805550E+01  0.55400758323E+02  0.41800000000E+01 0. -1.
        -11    1    4    4    0    0  0.29659246328E+02  0.84258294222E+01  0.38240948366E+02  0.49122658989E+02  0.00000000000E+00 0.  1.
         11    1    4    4    0    0 -0.21329804837E+02  0.95267485523E+01 -0.64872896867E+02  0.68950795937E+02  0.00000000000E+00 0. -1.
</event>
<event>
 8    1  0.3896452E-010  0.1451858E+03  0.7561462E-02  0.1206517E+00
          2   -1    0    0  501    0  0.00000000000E+00  0.00000000000E+00  0.62814199952E+03  0.62814199952E+03  0.00000000000E+00 0. -1.
         -2   -1    0    0    0  501 -0.00000000000E+00 -0.00000000000E+00 -0.34453023325E+02  0.34453023325E+02  0.00000000000E+00 0.  1.
         25    2    1    2    0    0  0.16122741048E+02  0.90496993778E+02  0.30968001393E+03  0.34640892464E+03  0.12509110034E+03 0.  0.
         23    2    1    2    0    0 -0.16122741048E+02 -0.90496993778E+02  0.28400896226E+03  0.31618609820E+03  0.10422528190E+03 0.  0.
          5    1    3    3  502    0 -0.49124967685E+02  0.71581274734E+02  0.16379620709E+03  0.18542872270E+03  0.41800000000E+01 0. -1.
         -5    1    3    3    0  502  0.65247708733E+02  0.18915719044E+02  0.14588380683E+03  0.16098020195E+03  0.41800000000E+01 0. -1.
        -11    1    4    4    0    0  0.42098901796E+02 -0.32210988919E+02  0.77922485314E+02  0.94243191038E+02  0.00000000000E+00 0.  1.
         11    1    4    4    0    0 -0.58221642845E+02 -0.58286004859E+02  0.20608647695E+03  0.22194290716E+03  0.00000000000E+00 0. -1.
</event>
<event>
 8    1  0.3896452E-010  0.1523078E+03  0.7561462E-02  0.1197666E+00
         -2   -1    0    0    0  501 -0.00000000000E+00  0.00000000000E+00  0.39197864622E+02  0.39197864622E+02  0.00000000000E+00 0.  1.
          2   -1    0    0  501    0  0.00000000000E+00 -0.00000000000E+00 -0.74053405745E+03  0.74053405745E+03  0.00000000000E+00 0. -1.
         25    2    1    2    0    0 -0.10706713800E+03 -0.42509599253E+02 -0.48042035541E+03  0.50962907454E+03  0.12509051783E+03 0.  0.
         23    2    1    2    0    0  0.10706713800E+03  0.42509599253E+02 -0.22091583742E+03  0.27010284754E+03  0.10431348407E+03 0.  0.
          5    1    3    3  502    0 -0.53043213916E+02 -0.73052993513E+02 -0.16495706859E+03  0.18809207660E+03  0.41800000000E+01 0. -1.
         -5    1    3    3    0  502 -0.54023924080E+02  0.30543394259E+02 -0.31546328682E+03  0.32153699793E+03  0.41800000000E+01 0. -1.
        -11    1    4    4    0    0  0.10237797407E+03  0.70083996029E+02 -0.19926114905E+03  0.23472967770E+03  0.00000000000E+00 0.  1.
         11    1    4    4    0    0  0.46891639276E+01 -0.27574396776E+02 -0.21654688368E+02  0.35373169835E+02  0.00000000000E+00 0. -1.
</event>
<event>
 8    1  0.3896452E-010  0.1639794E+03  0.7561462E-02  0.1184276E+00
         -1   -1    0    0    0  501 -0.00000000000E+00  0.00000000000E+00  0.24006329949E+02  0.24006329949E+02  0.00000000000E+00 0.  1.
          1   -1    0    0  501    0  0.00000000000E+00 -0.00000000000E+00 -0.11928637762E+04  0.11928637762E+04  0.00000000000E+00 0. -1.
         25    2    1    2    0    0 -0.22121223569E+02 -0.13746594686E+03 -0.70885896810E+03  0.73315429294E+03  0.12509174842E+03 0.  0.
         23    2    1    2    0    0  0.22121223569E+02  0.13746594686E+03 -0.45999847811E+03  0.48371581317E+03  0.54737126022E+02 0.  0.
          5    1    3    3  502    0  0.16703513345E+02 -0.14390866380E+03 -0.60201483897E+03  0.61921567294E+03  0.41800000000E+01 0. -1.
         -5    1    3    3    0  502 -0.38824736914E+02  0.64427169410E+01 -0.10684412912E+03  0.11393862000E+03  0.41800000000E+01 0. -1.
        -11    1    4    4    0    0  0.25417873416E+00  0.10047774044E+03 -0.37818412795E+03  0.39130432603E+03  0.00000000000E+00 0. -1.
         11    1    4    4    0    0  0.21867044834E+02  0.36988206420E+02 -0.81814350160E+02  0.92411487144E+02  0.00000000000E+00 0.  1.
</event>
<event>
 8    1  0.3896452E-010  0.1171177E+03  0.7561462E-02  0.1247929E+00
         -1   -1    0    0    0  501 -0.00000000000E+00  0.00000000000E+00  0.30633613230E+02  0.30633613230E+02  0.00000000000E+00 0.  1.
          1   -1    0    0  501    0  0.00000000000E+00 -0.00000000000E+00 -0.99058616093E+03  0.99058616093E+03  0.00000000000E+00 0. -1.
         25    2    1    2    0    0  0.31684607598E+02 -0.29415174567E+02 -0.82721141432E+03  0.83773276458E+03  0.12509314139E+03 0.  0.
         23    2    1    2    0    0 -0.31684607598E+02  0.29415174567E+02 -0.13274113338E+03  0.18348700957E+03  0.11907185788E+03 0.  0.
          5    1    3    3  502    0 -0.13775282944E+02 -0.53890809203E+02 -0.17983200356E+03  0.18828435846E+03  0.41800000000E+01 0.  1.
         -5    1    3    3    0  502  0.45459890542E+02  0.24475634636E+02 -0.64737941076E+03  0.64944840612E+03  0.41800000000E+01 0.  1.
        -11    1    4    4    0    0 -0.36179809487E+02 -0.41809225802E+02 -0.56266073271E+02  0.78885112525E+02  0.00000000000E+00 0. -1.
         11    1    4    4    0    0  0.44952018888E+01  0.71224400369E+02 -0.76475060106E+02  0.10460189705E+03  0.00000000000E+00 0.  1.
</event>
<event>
 8    1  0.3896452E-010  0.1193892E+03  0.7561462E-02  0.1244108E+00
         -2   -1    0    0    0  501 -0.00000000000E+00  0.00000000000E+00  0.15231848284E+03  0.15231848284E+03  0.00000000000E+00 0.  1.
          2   -1    0    0  501    0  0.00000000000E+00 -0.00000000000E+00 -0.11238246491E+03  0.11238246491E+03  0.00000000000E+00 0. -1.
         25    2    1    2    0    0 -0.17497120617E+02 -0.23479658937E+01  0.68511106233E+02  0.14370452180E+03  0.12508219591E+03 0.  0.
         23    2    1    2    0    0  0.17497120617E+02  0.23479658937E+01 -0.28575088305E+02  0.12099642596E+03  0.11624085878E+03 0.  0.
          5    1    3    3  502    0  0.18662363166E+02 -0.57167035395E+02  0.28364988500E+02  0.66621308209E+02  0.41800000000E+01 0.  1.
         -5    1    3    3    0  502 -0.36159483783E+02  0.54819069501E+02  0.40146117733E+02  0.77083213591E+02  0.41800000000E+01 0.  1.
        -11    1    4    4    0    0 -0.27689174895E+02 -0.41395574912E+02 -0.29904912914E+02  0.58091202820E+02  0.00000000000E+00 0. -1.
         11    1    4    4    0    0  0.45186295513E+02  0.43743540806E+02  0.13298246097E+01  0.62905223137E+02  0.00000000000E+00 0.  1.
</event>
<event>
 8    1  0.3896452E-010  0.9353478E+02  0.7561462E-02  0.1294511E+00
          1   -1    0    0  501    0  0.00000000000E+00  0.00000000000E+00  0.37115646751E+02  0.37115646751E+02  0.00000000000E+00 0. -1.
         -1   -1    0    0    0  501 -0.00000000000E+00 -0.00000000000E+00 -0.27626918684E+03  0.27626918684E+03  0.00000000000E+00 0.  1.
         25    2    1    2    0    0 -0.91676137338E+01  0.33711479811E+02 -0.14861683393E+03  0.19736861904E+03  0.12508756709E+03 0.  0.
         23    2    1    2    0    0  0.91676137338E+01 -0.33711479811E+02 -0.90536706155E+02  0.11601621455E+03  0.63579539672E+02 0.  0.
          5    1    3    3  502    0  0.57826086377E+02  0.18056030301E+02 -0.63821743359E+02  0.88094062350E+02  0.41800000000E+01 0. -1.
         -5    1    3    3    0  502 -0.66993700111E+02  0.15655449511E+02 -0.84795090572E+02  0.10927455669E+03  0.41800000000E+01 0. -1.
        -11    1    4    4    0    0  0.24237172268E+02 -0.46427161656E+01 -0.76517422357E+02  0.80398453076E+02  0.00000000000E+00 0.  1.
         11    1    4    4    0    0 -0.15069558535E+02 -0.29068763646E+02 -0.14019283799E+02  0.35617761476E+02  0.00000000000E+00 0. -1.
</event>
<event>
 8    1  0.3896452E-010  0.8171959E+02  0.7561462E-02  0.1324241E+00
          1   -1    0    0  501    0  0.00000000000E+00  0.00000000000E+00  0.58246803746E+03  0.58246803746E+03  0.00000000000E+00 0. -1.
         -1   -1    0    0    0  501 -0.00000000000E+00 -0.00000000000E+00 -0.22516384148E+02  0.22516384148E+02  0.00000000000E+00 0.  1.
         25    2    1    2    0    0 -0.31310600445E+02 -0.12844869632E+02  0.44180753176E+03  0.46041937681E+03  0.12508702190E+03 0.  0.
         23    2    1    2    0    0  0.31310600445E+02  0.12844869632E+02  0.11814412156E+03  0.14456504480E+03  0.76129326438E+02 0.  0.
          5    1    3    3  502    0 -0.39952169913E+02 -0.46831856799E+02  0.40399409500E+03  0.40867847984E+03  0.41800000000E+01 0.  1.
         -5    1    3    3    0  502  0.86415694686E+01  0.33986987167E+02  0.37813436758E+02  0.51740896968E+02  0.41800000000E+01 0.  1.
        -11    1    4    4    0    0 -0.15078824485E+02  0.13187525005E+02  0.85561816128E+02  0.87875515036E+02  0.00000000000E+00 0. -1.
         11    1    4    4    0    0  0.46389424930E+02 -0.34265537319E+00  0.32582305429E+02  0.56689529766E+02  0.00000000000E+00 0.  1.
</event>
<event>
 8    1  0.3896452E-010  0.1772552E+03  0.7561462E-02  0.1170486E+00
         -2   -1    0    0    0  501 -0.00000000000E+00  0.00000000000E+00  0.37319286778E+02  0.37319286778E+02  0.00000000000E+00 0.  1.
          2   -1    0    0  501    0  0.00000000000E+00 -0.00000000000E+00 -0.89663065033E+03  0.89663065033E+03  0.00000000000E+00 0. -1.
         25    2    1    2    0    0 -0.48303651565E+02 -0.12892316942E+03 -0.39758171090E+03  0.43894429723E+03  0.12508578202E+03 0.  0.
         23    2    1    2    0    0  0.48303651565E+02  0.12892316942E+03 -0.46172965265E+03  0.49500563988E+03  0.11349839208E+03 0.  0.
          5    1    3    3  502    0  0.36193692228E+02 -0.48674477321E+02 -0.78964549104E+02  0.99659723634E+02  0.41800000000E+01 0.  1.
         -5    1    3    3    0  502 -0.84497343793E+02 -0.80248692095E+02 -0.31861716179E+03  0.33928457360E+03  0.41800000000E+01 0.  1.
        -11    1    4    4    0    0 -0.11898410715E+02  0.11460663270E+03 -0.27065433952E+03  0.29415986120E+03  0.00000000000E+00 0.  1.
         11    1    4    4    0    0  0.60202062280E+02  0.14316536717E+02 -0.19107531313E+03  0.20084577868E+03  0.00000000000E+00 0. -1.
</event>
<event>
 8    1  0.3896452E-010  0.1694070E+03  0.7561462E-02  0.1178468E+00
          1   -1    0    0  501    0  0.00000000000E+00  0.00000000000E+00  0.42334611258E+02  0.42334611258E+02  0.00000000000E+00 0. -1.
         -1   -1    0    0    0  501 -0.00000000000E+00 -0.00000000000E+00 -0.83088341337E+03  0.83088341337E+03  0.00000000000E+00 0.  1.
         25    2    1    2    0    0 -0.12849261557E+03 -0.56587857787E+02 -0.31849559677E+03  0.36986417691E+03  0.12509007273E+03 0.  0.
         23    2    1    2    0    0  0.12849261557E+03  0.56587857787E+02 -0.47005320534E+03  0.50335384772E+03  0.11270555556E+03 0.  0.
          5    1    3    3  502    0 -0.39285575539E+02  0.27748093525E+02 -0.31388817783E+02  0.57585097217E+02  0.41800000000E+01 0. -1.
         -5    1    3    3    0  502 -0.89207040030E+02 -0.84335951311E+02 -0.28710677898E+03  0.31227907969E+03  0.41800000000E+01 0. -1.
        -11    1    4    4    0    0  0.70697892391E+02  0.78728056321E+02 -0.19963267885E+03  0.22594137581E+03  0.00000000000E+00 0.  1.
         11    1    4    4    0    0  0.57794723178E+02 -0.22140198534E+02 -0.27042052650E+03  0.27741247191E+03  0.00000000000E+00 0. -1.
</event>
<event>
 8    1  0.3896452E-010  0.9965076E+02  0.7561462E-02  0.1281032E+00
         -1   -1    0    0    0  501 -0.00000000000E+00  0.00000000000E+00  0.16188215851E+03  0.16188215851E+03  0.00000000000E+00 0.  1.
          1   -1    0    0  501    0  0.00000000000E+00 -0.00000000000E+00 -0.75668543859E+02  0.75668543859E+02  0.00000000000E+00 0. -1.
         25    2    1    2    0    0 -0.91835528281E+01  0.57498473301E+02  0.51480612094E+02  0.14727350255E+03  0.12509523995E+03 0.  0.
         23    2    1    2    0    0  0.91835528281E+01 -0.57498473301E+02  0.34733002562E+02  0.90277199821E+02  0.59608550276E+02 0.  0.
          5    1    3    3  502    0  0.12818036903E+02  0.94079561635E+02  0.37301300638E+02  0.10209860634E+03  0.41800000000E+01 0.  1.
         -5    1    3    3    0  502 -0.22001589731E+02 -0.36581088334E+02  0.14179311455E+02  0.45174896211E+02  0.41800000000E+01 0.  1.
        -11    1    4    4    0    0  0.11849206834E+02 -0.16663122462E+02  0.43822364360E+02  0.48357656797E+02  0.00000000000E+00 0.  1.
         11    1    4    4    0    0 -0.26656540062E+01 -0.40835350839E+02 -0.90893617979E+01  0.41919543024E+02  0.00000000000E+00 0. -1.
</event>
<event>
 8    1  0.3896452E-010  0.1466420E+03  0.7561462E-02  0.1204661E+00
         -2   -1    0    0    0  501 -0.00000000000E+00  0.00000000000E+00  0.90786570657E+01  0.90786570657E+01  0.00000000000E+00 0.  1.
          2   -1    0    0  501    0  0.00000000000E+00 -0.00000000000E+00 -0.38388730782E+04  0.38388730782E+04  0.00000000000E+00 0. -1.
         25    2    1    2    0    0 -0.56007272008E+02  0.96810916188E+02 -0.32264601453E+04  0.32308206630E+04  0.12509164401E+03 0.  0.
         23    2    1    2    0    0  0.56007272008E+02 -0.96810916188E+02 -0.60333427583E+03  0.61713107224E+03  0.65797750107E+02 0.  0.
          5    1    3    3  502    0  0.29914722162E+02  0.65528562020E+02 -0.17844708009E+04  0.17859290004E+04  0.41800000000E+01 0.  1.
         -5    1    3    3    0  502 -0.85921994169E+02  0.31282354168E+02 -0.14419893444E+04  0.14448916626E+04  0.41800000000E+01 0.  1.
        -11    1    4    4    0    0  0.68716293142E+02 -0.62062157455E+02 -0.41649875266E+03  0.42666714345E+03  0.00000000000E+00 0.  1.
         11    1    4    4    0    0 -0.12709021134E+02 -0.34748758733E+02 -0.18683552317E+03  0.19046392879E+03  0.00000000000E+00 0. -1.
</event>
<event>
 8    1  0.3896452E-010  0.1451362E+03  0.7561462E-02  0.1206580E+00
          2   -1    0    0  501    0  0.00000000000E+00  0.00000000000E+00  0.91823484174E+03  0.91823484174E+03  0.00000000000E+00 0. -1.
         -2   -1    0    0    0  501 -0.00000000000E+00 -0.00000000000E+00 -0.27846373805E+02  0.27846373805E+02  0.00000000000E+00 0.  1.
         25    2    1    2    0    0  0.53192913140E+01 -0.11900216782E+03  0.57982240675E+03  0.60500576387E+03  0.12509252630E+03 0.  0.
         23    2    1    2    0    0 -0.53192913140E+01  0.11900216782E+03  0.31056606119E+03  0.34107545168E+03  0.75441199441E+02 0.  0.
          5    1    3    3  502    0  0.49155854307E+02 -0.11368868257E+03  0.35946960953E+03  0.38023320098E+03  0.41800000000E+01 0. -1.
         -5    1    3    3    0  502 -0.43836562993E+02 -0.53134852515E+01  0.22035279723E+03  0.22477256288E+03  0.41800000000E+01 0. -1.
        -11    1    4    4    0    0  0.10707560531E+02  0.43022710843E+02  0.40434408209E+02  0.60004557061E+02  0.00000000000E+00 0.  1.
         11    1    4    4    0    0 -0.16026851845E+02  0.75979456976E+02  0.27013165298E+03  0.28107089462E+03  0.00000000000E+00 0. -1.
</event>
<event>
 7    1  0.3896452E-010  0.8582540E+02  0.7561462E-02  0.1313288E+00
          2   -1    0    0  501    0  0.00000000000E+00  0.00000000000E+00  0.71083426101E+03  0.71083426101E+03  0.00000000000E+00 0.  1.
         -2   -1    0    0    0  501 -0.00000000000E+00 -0.00000000000E+00 -0.11180544167E+02  0.11180544167E+02  0.00000000000E+00 0. -1.
         25    2    1    2    0    0 -0.17476485749E+02  0.10456107546E+02  0.47312481240E+03  0.48980486267E+03  0.12508779977E+03 0.  0.
          5    1    3    3  502    0  0.14860779965E+02 -0.51806470615E+02  0.15986530957E+03  0.16875764511E+03  0.41800000000E+01 0.  1.
         -5    1    3    3    0  502 -0.32337265713E+02  0.62262578161E+02  0.31325950282E+03  0.32104721756E+03  0.41800000000E+01 0.  1.
        -11    1    1    2    0    0  0.18924130097E+02 -0.25745132566E+02  0.18864078645E+03  0.19132767929E+03  0.00000000000E+00 0. -1.
         11    1    1    2    0    0 -0.14476443489E+01  0.15289025021E+02  0.37888117997E+02  0.40882263215E+02  0.00000000000E+00 0.  1.
</event>
<event>
 8    1  0.3896452E-010  0.1207164E+03  0.7561462E-02  0.1241920E+00
          2   -1    0    0  501    0  0.00000000000E+00  0.00000000000E+00  0.99367843155E+02  0.99367843155E+02  0.00000000000E+00 0. -1.
         -2   -1    0    0    0  501 -0.00000000000E+00 -0.00000000000E+00 -0.17687425695E+03  0.17687425695E+03  0.00000000000E+00 0.  1.
         25    2    1    2    0    0 -0.61209011457E+02 -0.54784093098E+02 -0.24301973703E+02  0.15161232501E+03  0.12509145146E+03 0.  0.
         23    2    1    2    0    0  0.61209011457E+02  0.54784093098E+02 -0.53204440095E+02  0.12462977510E+03  0.77162351287E+02 0.  0.
          5    1    3    3  502    0 -0.93755305547E+02 -0.10633663570E+02 -0.11627103277E+02  0.95161935929E+02  0.41800000000E+01 0.  1.
         -5    1    3    3    0  502  0.32546294091E+02 -0.44150429528E+02 -0.12674870425E+02  0.56450389076E+02  0.41800000000E+01 0.  1.
        -11    1    4    4    0    0  0.53039162520E+02  0.61633750213E+02 -0.68270452275E+02  0.10617309725E+03  0.00000000000E+00 0.  1.
         11    1    4    4    0    0  0.81698489367E+01 -0.68496571158E+01  0.15066012180E+02  0.18456677850E+02  0.00000000000E+00 0. -1.
</event>
<event>
 8    1  0.3896452E-010  0.9695761E+02  0.7561462E-02  0.1286827E+00
         -2   -1    0    0    0  501 -0.00000000000E+00  0.00000000000E+00  0.28365577626E+02  0.28365577626E+02  0.00000000000E+00 0.  1.
          2   -1    0    0  501    0  0.00000000000E+00 -0.00000000000E+00 -0.15559969135E+04  0.15559969135E+04  0.00000000000E+00 0. -1.
         25    2    1    2    0    0  0.32230259606E+02 -0.63213930263E+02 -0.14392738583E+04  0.14464409589E+04  0.12508963848E+03 0.  0.
         23    2    1    2    0    0 -0.32230259606E+02  0.63213930263E+02 -0.88357477544E+02  0.13792153224E+03  0.78616248983E+02 0.  0.
          5    1    3    3  502    0  0.33423891263E+02 -0.10431899680E+02 -0.98503215921E+02  0.10462474365E+03  0.41800000000E+01 0.  1.
         -5    1    3    3    0  502 -0.11936316571E+01 -0.52782030583E+02 -0.13407706424E+04  0.13418162152E+04  0.41800000000E+01 0.  1.
        -11    1    4    4    0    0 -0.51398852631E+02  0.68657448868E+02 -0.68185854837E+02  0.10956732239E+03  0.00000000000E+00 0.  1.
         11    1    4    4    0    0  0.19168593025E+02 -0.54435186055E+01 -0.20171622706E+02  0.28354209846E+02  0.00000000000E+00 0. -1.
</event>
<event>
 8    1  0.3896452E-010  0.1757609E+03  0.7561462E-02  0.1171970E+00
          2   -1    0    0  501    0  0.00000000000E+00  0.00000000000E+00  0.51100135618E+03  0.51100135618E+03  0.00000000000E+00 0. -1.
         -2   -1    0    0    0  501 -0.00000000000E+00 -0.00000000000E+00 -0.68192249055E+02  0.68192249055E+02  0.00000000000E+00 0.  1.
         25    2    1    2    0    0 -0.11880993028E+03  0.93619030164E+02  0.30463423411E+03  0.36239471665E+03  0.12509033425E+03 0.  0.
         23    2    1    2    0    0  0.11880993028E+03 -0.93619030164E+02  0.13817487302E+03  0.21679888859E+03  0.70916431213E+02 0.  0.
          5    1    3    3  502    0 -0.13908201223E+03  0.84688976428E+02  0.21367060046E+03  0.26867941260E+03  0.41800000000E+01 0. -1.
         -5    1    3    3    0  502  0.20272081949E+02  0.89300537362E+01  0.90963633654E+02  0.93715304054E+02  0.41800000000E+01 0. -1.
        -11    1    4    4    0    0  0.95331623733E+02 -0.10341213035E+03  0.12491544254E+03  0.18811181508E+03  0.00000000000E+00 0.  1.
         11    1    4    4    0    0  0.23478306550E+02  0.97931001889E+01  0.13259430479E+02  0.28687073508E+02  0.00000000000E+00 0. -1.
</event>
<event>
 7    1  0.3896452E-010  0.1021087E+03  0.7561462E-02  0.1275923E+00
          2   -1    0    0  501    0  0.00000000000E+00  0.00000000000E+00  0.59676674338E+03  0.59676674338E+03  0.00000000000E+00 0. -1.
         -2   -1    0    0    0  501 -0.00000000000E+00 -0.00000000000E+00 -0.22363223912E+02  0.22363223912E+02  0.00000000000E+00 0.  1.
         25    2    1    2    0    0 -0.60281181400E+02 -0.36005427766E+02  0.30848241067E+03  0.34020448036E+03  0.12508988410E+03 0.  0.
          5    1    3    3  502    0 -0.37179909069E+02  0.37472834686E+02  0.60004144084E+02  0.80028299277E+02  0.41800000000E+01 0. -1.
         -5    1    3    3    0  502 -0.23101272331E+02 -0.73478262452E+02  0.24847826659E+03  0.26017618108E+03  0.41800000000E+01 0. -1.
        -11    1    1    2    0    0  0.45806427728E+02  0.37998238609E+02  0.25131376330E+03  0.25826479160E+03  0.00000000000E+00 0. -1.
         11    1    1    2    0    0  0.14474753672E+02 -0.19928108431E+01  0.14607345492E+02  0.20660695324E+02  0.00000000000E+00 0.  1.
</event>
<event>
 8    1  0.3896452E-010  0.2053440E+03  0.7561462E-02  0.1145307E+00
          2   -1    0    0  501    0  0.00000000000E+00  0.00000000000E+00  0.30399791546E+04  0.30399791546E+04  0.00000000000E+00 0. -1.
         -2   -1    0    0    0  501 -0.00000000000E+00 -0.00000000000E+00 -0.21322880790E+02  0.21322880790E+02  0.00000000000E+00 0.  1.
         25    2    1    2    0    0  0.16797959709E+03 -0.87395969754E+01  0.23958341667E+04  0.24049869401E+04  0.12508917692E+03 0.  0.
         23    2    1    2    0    0 -0.16797959709E+03  0.87395969754E+01  0.62282210715E+03  0.65631509532E+03  0.12061758411E+03 0.  0.
          5    1    3    3  502    0  0.11759569084E+03  0.50057632890E+02  0.12472346120E+04  0.12537727716E+04  0.41800000000E+01 0. -1.
         -5    1    3    3    0  502  0.50383906243E+02 -0.58797229865E+02  0.11485995547E+04  0.11512141685E+04  0.41800000000E+01 0. -1.
        -11    1    4    4    0    0 -0.36030215522E+01 -0.34989891261E+02  0.14206996918E+03  0.14635966110E+03  0.00000000000E+00 0.  1.
         11    1    4    4    0    0 -0.16437657553E+03  0.43729488236E+02  0.48075213797E+03  0.50995543422E+03  0.00000000000E+00 0. -1.
</event>
<event>
 7    1  0.3896452E-010  0.1262495E+03  0.7561462E-02  0.1233129E+00
         -2   -1    0    0    0  501 -0.00000000000E+00  0.00000000000E+00  0.14075668485E+03  0.14075668485E+03  0.00000000000E+00 0.  1.
          2   -1    0    0  501    0  0.00000000000E+00 -0.00000000000E+00 -0.18989389639E+03  0.18989389639E+03  0.00000000000E+00 0. -1.
         25    2    1    2    0    0  0.41516887326E+02  0.57764900708E+02 -0.56807810278E+02  0.15470949047E+03  0.12508982151E+03 0.  0.
          5    1    3    3  502    0  0.40394759138E+02  0.16852513218E+02  0.33629110195E+02  0.55354613358E+02  0.41800000000E+01 0. -1.
         -5    1    3    3    0  502  0.11221281887E+01  0.40912387490E+02 -0.90436920472E+02  0.99354877114E+02  0.41800000000E+01 0. -1.
        -11    1    1    2    0    0 -0.73465576148E+02  0.25848788762E+02  0.30379349045E+02  0.83595787020E+02  0.00000000000E+00 0.  1.
         11    1    1    2    0    0  0.31948688821E+02 -0.83613689470E+02 -0.22708750309E+02  0.92345303751E+02  0.00000000000E+00 0. -1.
</event>
<event>
 8    1  0.3896452E-010  0.1191851E+03  0.7561462E-02  0.1244448E+00
          2   -1    0    0  501    0  0.00000000000E+00  0.00000000000E+00  0.30402290306E+03  0.30402290306E+03  0.00000000000E+00 0. -1.
         -2   -1    0    0    0  501 -0.00000000000E+00 -0.00000000000E+00 -0.74958247433E+02  0.74958247433E+02  0.00000000000E+00 0.  1.
         25    2    1    2    0    0 -0.19188658218E+02  0.87925278390E+02  0.20612619262E+03  0.25736222231E+03  0.12509295346E+03 0.  0.
         23    2    1    2    0    0  0.19188658218E+02 -0.87925278390E+02  0.22938463012E+02  0.12161892818E+03  0.78523445052E+02 0.  0.
          5    1    3    3  502    0 -0.30810965681E+02  0.98642961260E+02  0.81531422345E+02  0.13169887867E+03  0.41800000000E+01 0. -1.
         -5    1    3    3    0  502  0.11622307462E+02 -0.10717682870E+02  0.12459477027E+03  0.12566334364E+03  0.41800000000E+01 0. -1.
        -11    1    4    4    0    0  0.30824866840E+02 -0.94991125292E+00  0.12396143358E+02  0.33237615998E+02  0.00000000000E+00 0.  1.
         11    1    4    4    0    0 -0.11636208622E+02 -0.86975367138E+02  0.10542319655E+02  0.88381312185E+02  0.00000000000E+00 0. -1.
</event>
<event>
 8    1  0.3896452E-010  0.8912069E+02  0.7561462E-02  0.1304995E+00
          1   -1    0    0  501    0  0.00000000000E+00  0.00000000000E+00  0.24696703132E+02  0.24696703132E+02  0.00000000000E+00 0. -1.
         -1   -1    0    0    0  501 -0.00000000000E+00 -0.00000000000E+00 -0.46912811253E+03  0.46912811253E+03  0.00000000000E+00 0.  1.
         25    2    1    2    0    0  0.11826434699E+02  0.25759155699E+02 -0.32355901858E+03  0.34805184040E+03  0.12508495690E+03 0.  0.
         23    2    1    2    0    0 -0.11826434699E+02 -0.25759155699E+02 -0.12087239082E+03  0.14577297526E+03  0.76395201384E+02 0.  0.
          5    1    3    3  502    0 -0.30814115274E+02  0.49305286893E+02 -0.76371059871E+02  0.96075658736E+02  0.41800000000E+01 0. -1.
         -5    1    3    3    0  502  0.42640549972E+02 -0.23546131194E+02 -0.24718795870E+03  0.25197618166E+03  0.41800000000E+01 0. -1.
        -11    1    4    4    0    0 -0.13552345087E+02  0.20605925272E+02 -0.80754275970E+02  0.84436504553E+02  0.00000000000E+00 0.  1.
         11    1    4    4    0    0  0.17259103886E+01 -0.46365080970E+02 -0.40118114849E+02  0.61336470709E+02  0.00000000000E+00 0. -1.
</event>
<event>
 8    1  0.3896452E-010  0.1070897E+03  0.7561462E-02  0.1266056E+00
         -3   -1    0    0    0  501 -0.00000000000E+00  0.00000000000E+00  0.46866311051E+02  0.46866311051E+02  0.00000000000E+00 0.  1.
          3   -1    0    0  501    0  0.00000000000E+00 -0.00000000000E+00 -0.30698577947E+03  0.30698577947E+03  0.00000000000E+00 0. -1.
         25    2    1    2    0    0  0.11553193474E+02  0.70205364782E+02 -0.15740058144E+03  0.21327190083E+03  0.12509073156E+03 0.  0.
         23    2    1    2    0    0 -0.11553193474E+02 -0.70205364782E+02 -0.10271888697E+03  0.14058018969E+03  0.64415452092E+02 0.  0.
          5    1    3    3  502    0 -0.56214099496E+02  0.36978257419E+02 -0.62348033927E+02  0.91826827445E+02  0.41800000000E+01 0. -1.
         -5    1    3    3    0  502  0.67767292970E+02  0.33227107362E+02 -0.95052547517E+02  0.12144507339E+03  0.41800000000E+01 0. -1.
        -11    1    4    4    0    0 -0.46453810663E+01 -0.33864621258E+02 -0.97380654702E+02  0.10320554272E+03  0.00000000000E+00 0. -1.
         11    1    4    4    0    0 -0.69078124077E+01 -0.36340743524E+02 -0.53382322704E+01  0.37374646967E+02  0.00000000000E+00 0.  1.
</event>
<event>
 8    1  0.3896452E-010  0.9304875E+02  0.7561462E-02  0.1295632E+00
          1   -1    0    0  501    0  0.00000000000E+00  0.00000000000E+00  0.97435563599E+02  0.97435563599E+02  0.00000000000E+00 0. -1.
         -1   -1    0    0    0  501 -0.00000000000E+00 -0.00000000000E+00 -0.12521809722E+03  0.12521809722E+03  0.00000000000E+00 0.  1.
         25    2    1    2    0    0  0.87860368786E+01 -0.85562238511E+01 -0.64918319257E+02  0.14146585752E+03  0.12509115579E+03 0.  0.
         23    2    1    2    0    0 -0.87860368786E+01  0.85562238511E+01  0.37135785635E+02  0.81187803301E+02  0.71147659269E+02 0.  0.
          5    1    3    3  502    0  0.47694863843E+02  0.40437092050E+02 -0.37480996063E+02  0.73022297391E+02  0.41800000000E+01 0.  1.
         -5    1    3    3    0  502 -0.38908826964E+02 -0.48993315901E+02 -0.27437323194E+02  0.68443560126E+02  0.41800000000E+01 0.  1.
        -11    1    4    4    0    0 -0.33803573638E+02  0.11097597592E+02 -0.90131080931E+00  0.35590035462E+02  0.00000000000E+00 0.  1.
         11    1    4    4    0    0  0.25017536759E+02 -0.25413737412E+01  0.38037096444E+02  0.45597767839E+02  0.00000000000E+00 0. -1.
</event>
<event>
 8    1  0.3896452E-010  0.6633501E+02  0.7561462E-02  0.1373019E+00
         -2   -1    0    0    0  501 -0.00000000000E+00  0.00000000000E+00  0.74540348005E+02  0.74540348005E+02  0.00000000000E+00 0.  1.
          2   -1    0    0  501    0  0.00000000000E+00 -0.00000000000E+00 -0.21239593863E+03  0.21239593863E+03  0.00000000000E+00 0. -1.
         25    2    1    2    0    0 -0.97601408837E+01  0.31329512751E+02  0.25152656403E+00  0.12932279779E+03  0.12509006373E+03 0.  0.
         23    2    1    2    0    0  0.97601408837E+01 -0.31329512751E+02 -0.13810711719E+03  0.15761348885E+03  0.68495527802E+02 0.  0.
          5    1    3    3  502    0 -0.18230565382E+02 -0.13700432266E+02  0.53883372062E+02  0.58659573329E+02  0.41800000000E+01 0. -1.
         -5    1    3    3    0  502  0.84704244983E+01  0.45029945017E+02 -0.53631845498E+02  0.70663224459E+02  0.41800000000E+01 0. -1.
        -11    1    4    4    0    0 -0.22359829628E+02 -0.78850356451E+01 -0.14557321847E+02  0.27821779013E+02  0.00000000000E+00 0.  1.
         11    1    4    4    0    0  0.32119970511E+02 -0.23444477106E+02 -0.12354979534E+03  0.12979170983E+03  0.00000000000E+00 0. -1.
</event>
<event>
 8    1  0.3896452E-010  0.5454953E+02  0.7561462E-02  0.1422241E+00
          2   -1    0    0  501    0  0.00000000000E+00  0.00000000000E+00  0.68965931709E+03  0.68965931709E+03  0.00000000000E+00 0. -1.
         -2   -1    0    0    0  501 -0.00000000000E+00 -0.00000000000E+00 -0.13184593740E+02  0.13184593740E+02  0.00000000000E+00 0.  1.
         25    2    1    2    0    0 -0.16127084388E+02 -0.12313052186E+01  0.49194796197E+03  0.50785828554E+03  0.12508254051E+03 0.  0.
         23    2    1    2    0    0  0.16127084388E+02  0.12313052186E+01  0.18452676138E+03  0.19498562529E+03  0.60890635089E+02 0.  0.
          5    1    3    3  502    0 -0.31791169916E+02  0.18628814517E+02  0.37679886073E+02  0.52867356936E+02  0.41800000000E+01 0. -1.
         -5    1    3    3    0  502  0.15664085528E+02 -0.19860119735E+02  0.45426807590E+03  0.45499092861E+03  0.41800000000E+01 0. -1.
        -11    1    4    4    0    0 -0.15060998169E+02 -0.11155194204E+01  0.11052823398E+02  0.18714779040E+02  0.00000000000E+00 0.  1.
         11    1    4    4    0    0  0.31188082557E+02  0.23468246389E+01  0.17347393798E+03  0.17627084625E+03  0.00000000000E+00 0. -1.
</event>
<event>
 8    1  0.3896452E-010  0.9781597E+02  0.7561462E-02  0.1284957E+00
          3   -1    0    0  501    0  0.00000000000E+00  0.00000000000E+00  0.30577902674E+02  0.30577902674E+02  0.00000000000E+00 0. -1.
         -3   -1    0    0    0  501 -0.00000000000E+00 -0.00000000000E+00 -0.53546648872E+03  0.53546648872E+03  0.00000000000E+00 0.  1.
         25    2    1    2    0    0  0.53528808932E+02 -0.97281206854E+01 -0.30954314001E+03  0.33826663811E+03  0.12508954079E+03 0.  0.
         23    2    1    2    0    0 -0.53528808932E+02  0.97281206854E+01 -0.19534544603E+03  0.22777775328E+03  0.10374435833E+03 0.  0.
          5    1    3    3  502    0  0.78795942310E+02  0.32960561294E+02 -0.17417563145E+03  0.19403562074E+03  0.41800000000E+01 0. -1.
         -5    1    3    3    0  502 -0.25267133379E+02 -0.42688681979E+02 -0.13536750856E+03  0.14423101737E+03  0.41800000000E+01 0. -1.
        -11    1    4    4    0    0 -0.32801266260E+02  0.18691900698E+02 -0.20098614643E+03  0.20450120116E+03  0.00000000000E+00 0.  1.
         11    1    4    4    0    0 -0.20727542672E+02 -0.89637800131E+01  0.56407004001E+01  0.23276552114E+02  0.00000000000E+00 0. -1.
</event>
<event>
 8    1  0.3896452E-010  0.6498674E+02  0.7561462E-02  0.1378021E+00
          2   -1    0    0  501    0  0.00000000000E+00  0.00000000000E+00  0.52002321674E+02  0.52002321674E+02  0.00000000000E+00 0. -1.
         -2   -1    0    0    0  501 -0.00000000000E+00 -0.00000000000E+00 -0.30722200475E+03  0.30722200475E+03  0.00000000000E+00 0.  1.
         25    2    1    2    0    0  0.34023292908E+02 -0.18416695589E+02 -0.18410272812E+03  0.22591562809E+03  0.12508915771E+03 0.  0.
         23    2    1    2    0    0 -0.34023292908E+02  0.18416695589E+02 -0.71116954950E+02  0.13330869833E+03  0.10590953041E+03 0.  0.
          5    1    3    3  502    0 -0.50442795706E+01  0.50753933937E+01  0.17402997489E+02  0.19275401321E+02  0.41800000000E+01 0.  1.
         -5    1    3    3    0  502  0.39067572478E+02 -0.23492088983E+02 -0.20150572561E+03  0.20664022677E+03  0.41800000000E+01 0.  1.
        -11    1    4    4    0    0 -0.22245830062E+02  0.43131696446E+02 -0.88461496431E+02  0.10089923956E+03  0.00000000000E+00 0.  1.
         11    1    4    4    0    0 -0.11777462846E+02 -0.24715000857E+02  0.17344541481E+02  0.32409458768E+02  0.00000000000E+00 0. -1.
</event>
<event>
 8    1  0.3896452E-010  0.1165871E+03  0.7561462E-02  0.1248836E+00
         -1   -1    0    0    0  501 -0.00000000000E+00  0.00000000000E+00  0.30845979171E+03  0.30845979171E+03  0.00000000000E+00 0. -1.
          1   -1    0    0  501    0  0.00000000000E+00 -0.00000000000E+00 -0.71385284494E+02  0.71385284494E+02  0.00000000000E+00 0.  1.
         25    2    1    2    0    0  0.10577199081E+03  0.17154892086E+02  0.10265782591E+03  0.19408202968E+03  0.12508877113E+03 0.  0.
         23    2    1    2    0    0 -0.10577199081E+03 -0.17154892086E+02  0.13441668131E+03  0.18576304653E+03  0.70413499253E+02 0.  0.
          5    1    3    3  502    0  0.79006939269E+02  0.41723691556E+02  0.47548328009E+01  0.89571444806E+02  0.41800000000E+01 0.  1.
         -5    1    3    3    0  502  0.26765051545E+02 -0.24568799470E+02  0.97902993106E+02  0.10451058487E+03  0.41800000000E+01 0.  1.
        -11    1    4    4    0    0 -0.57947209227E+02 -0.89641764573E+01  0.12248422371E+03  0.13579624654E+03  0.00000000000E+00 0. -1.
         11    1    4    4    0    0 -0.47824781587E+02 -0.81907156283E+01  0.11932457600E+02  0.49966799985E+02  0.00000000000E+00 0.  1.
</event>
<event>
 8    1  0.3896452E-010  0.8710766E+02  0.7561462E-02  0.1310011E+00
          1   -1    0    0  501    0  0.00000000000E+00  0.00000000000E+00  0.19546978219E+03  0.19546978219E+03  0.00000000000E+00 0. -1.
         -1   -1    0    0    0  501 -0.00000000000E+00 -0.00000000000E+00 -0.83735359354E+02  0.83735359354E+02  0.00000000000E+00 0.  1.
         25    2    1    2    0    0  0.22508842909E+02  0.81299851492E+02  0.66319430103E+02  0.16481021477E+03  0.12509127157E+03 0.  0.
         23    2    1    2    0    0 -0.22508842909E+02 -0.81299851492E+02  0.45414992732E+02  0.11439492677E+03  0.62508910121E+02 0.  0.
          5    1    3    3  502    0  0.22006425157E+02  0.45870790276E+02  0.10218158013E+03  0.11422328951E+03  0.41800000000E+01 0. -1.
         -5    1    3    3    0  502  0.50241775206E+00  0.35429061215E+02 -0.35862150031E+02  0.50586925258E+02  0.41800000000E+01 0. -1.
        -11    1    4    4    0    0 -0.18667107196E+02 -0.25738606278E+02 -0.12391093382E+02  0.34124418521E+02  0.00000000000E+00 0.  1.
         11    1    4    4    0    0 -0.38417357132E+01 -0.55561245213E+02  0.57806086114E+02  0.80270508250E+02  0.00000000000E+00 0. -1.
</event>
<event>
 7    1  0.3896452E-010  0.2052062E+03  0.7561462E-02  0.1145419E+00
          1   -1    0    0  501    0  0.00000000000E+00  0.00000000000E+00  0.18025690399E+04  0.18025690399E+04  0.00000000000E+00 0. -1.
         -1   -1    0    0    0  501 -0.00000000000E+00 -0.00000000000E+00 -0.34061795093E+02  0.34061795093E+02  0.00000000000E+00 0.  1.
         25    2    1    2    0    0  0.19163848909E+03  0.62625288853E+02  0.13335090899E+04  0.13544520700E+04  0.12508668987E+03 0.  0.
          5    1    3    3  502    0  0.19557243125E+00  0.50353959307E+01  0.38681790812E+03  0.38687331247E+03  0.41800000000E+01 0. -1.
         -5    1    3    3    0  502  0.19144291666E+03  0.57589892923E+02  0.94669118175E+03  0.96757875758E+03  0.41800000000E+01 0. -1.
        -11    1    1    2    0    0 -0.89448495903E+02 -0.45266648655E+02  0.26173502893E+03  0.28027723466E+03  0.00000000000E+00 0.  1.
         11    1    1    2    0    0 -0.10218999319E+03 -0.17358640198E+02  0.17326312600E+03  0.20190153028E+03  0.00000000000E+00 0. -1.
</event>
<event>
 8    1  0.3896452E-010  0.1080856E+03  0.7561462E-02  0.1264157E+00
         -4   -1    0    0    0  501 -0.00000000000E+00  0.00000000000E+00  0.40143902392E+03  0.40143902392E+03  0.00000000000E+00 0.  1.
          4   -1    0    0  501    0  0.00000000000E+00 -0.00000000000E+00 -0.51069083877E+02  0.51069083877E+02  0.00000000000E+00 0. -1.
         25    2    1    2    0    0 -0.99620275365E+02 -0.56919819177E+01  0.16987166298E+03  0.23336769717E+03  0.12508997673E+03 0.  0.
         23    2    1    2    0    0  0.99620275365E+02  0.56919819177E+01  0.18049827706E+03  0.21914041062E+03  0.74069518861E+02 0.  0.
          5    1    3    3  502    0 -0.12435207041E+02 -0.11758514649E+01  0.14056856806E+03  0.14118431827E+03  0.41800000000E+01 0.  1.
         -5    1    3    3    0  502 -0.87185068325E+02 -0.45161304528E+01  0.29303094925E+02  0.92183378899E+02  0.41800000000E+01 0.  1.
        -11    1    4    4    0    0  0.43638625356E+02  0.31632909952E+02  0.12511206962E+03  0.13622775261E+03  0.00000000000E+00 0.  1.
         11    1    4    4    0    0  0.55981650010E+02 -0.25940928034E+02  0.55386207438E+02  0.82912658017E+02  0.00000000000E+00 0. -1.
</event>
<event>
 8    1  0.3896452E-010  0.1264837E+03  0.7561462E-02  0.1232769E+00
          1   -1    0    0  501    0  0.00000000000E+00  0.00000000000E+00  0.49003888049E+03  0.49003888049E+03  0.00000000000E+00 0. -1.
         -1   -1    0    0    0  501 -0.00000000000E+00 -0.00000000000E+00 -0.62467582215E+02  0.62467582215E+02  0.00000000000E+00 0.  1.
         25    2    1    2    0    0  0.11561361199E+03 -0.26873052321E+02  0.35507504864E+03  0.39473203759E+03  0.12508566311E+03 0.  0.
         23    2    1    2    0    0 -0.11561361199E+03  0.26873052321E+02  0.72496249635E+02  0.15777442511E+03  0.74487547891E+02 0.  0.
          5    1    3    3  502    0  0.47036736997E+02  0.13234774957E+02  0.28352541647E+03  0.28773555234E+03  0.41800000000E+01 0. -1.
         -5    1    3    3    0  502  0.68576874992E+02 -0.40107827278E+02  0.71549632171E+02  0.10699648525E+03  0.41800000000E+01 0. -1.
        -11    1    4    4    0    0 -0.94478466268E+02  0.60034743047E+01  0.83368327584E+02  0.12614475945E+03  0.00000000000E+00 0. -1.
         11    1    4    4    0    0 -0.21135145720E+02  0.20869578016E+02 -0.10872077949E+02  0.31629665666E+02  0.00000000000E+00 0.  1.
</event>
<event>
 8    1  0.3896452E-010  0.8297159E+02  0.7561462E-02  0.1320824E+00
         -2   -1    0    0    0  501 -0.00000000000E+00  0.00000000000E+00  0.16553228533E+02  0.16553228533E+02  0.00000000000E+00 0.  1.
          2   -1    0    0  501    0  0.00000000000E+00 -0.00000000000E+00 -0.96131506964E+03  0.96131506964E+03  0.00000000000E+00 0. -1.
         25    2    1    2    0    0 -0.45138257598E+02 -0.14686985322E+01 -0.52150634519E+03  0.53819722201E+03  0.12509101616E+03 0.  0.
         23    2    1    2    0    0  0.45138257598E+02  0.14686985322E+01 -0.42325549592E+03  0.43967107617E+03  0.11011730574E+03 0.  0.
          5    1    3    3  502    0 -0.43405878141E+02 -0.20747340601E+02 -0.63565213067E+02  0.79828134837E+02  0.41800000000E+01 0.  1.
         -5    1    3    3    0  502 -0.17323794565E+01  0.19278642069E+02 -0.45794113213E+03  0.45836908717E+03  0.41800000000E+01 0.  1.
        -11    1    4    4    0    0  0.58840952783E+02  0.30111555061E+02 -0.38166191599E+03  0.38734323486E+03  0.00000000000E+00 0. -1.
         11    1    4    4    0    0 -0.13702695185E+02 -0.28642856529E+02 -0.41593579928E+02  0.52327841315E+02  0.00000000000E+00 0.  1.
</event>
<event>
 8    1  0.3896452E-010  0.1153004E+03  0.7561462E-02  0.1251058E+00
         -2   -1    0    0    0  501 -0.00000000000E+00  0.00000000000E+00  0.22669077379E+02  0.22669077379E+02  0.00000000000E+00 0.  1.
          2   -1    0    0  501    0  0.00000000000E+00 -0.00000000000E+00 -0.65055897266E+03  0.65055897266E+03  0.00000000000E+00 0. -1.
         25    2    1    2    0    0  0.14839260859E+02 -0.33945508166E+01 -0.26593368677E+03  0.29427718245E+03  0.12508640099E+03 0.  0.
         23    2    1    2    0    0 -0.14839260859E+02  0.33945508166E+01 -0.36195620851E+03  0.37895086759E+03  0.11117435195E+03 0.  0.
          5    1    3    3  502    0 -0.44888432530E+02  0.30523887269E+02 -0.87753995066E+02  0.10327107591E+03  0.41800000000E+01 0. -1.
         -5    1    3    3    0  502  0.59727693390E+02 -0.33918438085E+02 -0.17817969170E+03  0.19100610654E+03  0.41800000000E+01 0. -1.
        -11    1    4    4    0    0  0.34738477400E+02 -0.31357837817E+02 -0.10497880564E+03  0.11493748491E+03  0.00000000000E+00 0.  1.
         11    1    4    4    0    0 -0.49577738260E+02  0.34752388634E+02 -0.25697740287E+03  0.26401338268E+03  0.00000000000E+00 0. -1.
</event>
<event>
 8    1  0.3896452E-010  0.3077475E+03  0.7561462E-02  0.1081431E+00
         -1   -1    0    0    0  501 -0.00000000000E+00  0.00000000000E+00  0.16388515207E+03  0.16388515207E+03  0.00000000000E+00 0.  1.
          1   -1    0    0  501    0  0.00000000000E+00 -0.00000000000E+00 -0.61322679212E+03  0.61322679212E+03  0.00000000000E+00 0. -1.
         25    2    1    2    0    0 -0.19882330732E+03 -0.22136584156E+03 -0.18650481298E+03  0.37278230658E+03  0.12509620097E+03 0.  0.
         23    2    1    2    0    0  0.19882330732E+03  0.22136584156E+03 -0.26283682707E+03  0.40432963761E+03  0.76587954978E+02 0.  0.
          5    1    3    3  502    0 -0.65121606958E+02 -0.15592248545E+03 -0.66917530491E+02  0.18179129090E+03  0.41800000000E+01 0.  1.
         -5    1    3    3    0  502 -0.13370170036E+03 -0.65443356107E+02 -0.11958728249E+03  0.19099101568E+03  0.41800000000E+01 0.  1.
        -11    1    4    4    0    0  0.12298607870E+03  0.13572342249E+03 -0.11079810497E+03  0.21406224102E+03  0.00000000000E+00 0.  1.
         11    1    4    4    0    0  0.75837228618E+02  0.85642419071E+02 -0.15203872210E+03  0.19026739660E+03  0.00000000000E+00 0. -1.
</event>
<event>
 8    1  0.3896452E-010  0.1308163E+03  0.7561462E-02  0.1226249E+00
          2   -1    0    0  501    0  0.00000000000E+00  0.00000000000E+00  0.56959145718E+02  0.56959145718E+02  0.00000000000E+00 0. -1.
         -2   -1    0    0    0  501 -0.00000000000E+00 -0.00000000000E+00 -0.33933994296E+03  0.33933994296E+03  0.00000000000E+00 0.  1.
         25    2    1    2    0    0  0.10582714468E+02  0.95005400939E+02 -0.15206794625E+03  0.21888474449E+03  0.12509137077E+03 0.  0.
         23    2    1    2    0    0 -0.10582714468E+02 -0.95005400939E+02 -0.13031285100E+03  0.17741434419E+03  0.73187364601E+02 0.  0.
          5    1    3    3  502    0 -0.47974113040E+02  0.57186433703E+02 -0.12149054358E+03  0.14265072134E+03  0.41800000000E+01 0.  1.
         -5    1    3    3    0  502  0.58556827508E+02  0.37818967236E+02 -0.30577402675E+02  0.76234023145E+02  0.41800000000E+01 0.  1.
        -11    1    4    4    0    0  0.22876551557E+02 -0.74179668949E+02 -0.10498157203E+03  0.13056450652E+03  0.00000000000E+00 0.  1.
         11    1    4    4    0    0 -0.33459266025E+02 -0.20825731990E+02 -0.25331278961E+02  0.46849837669E+02  0.00000000000E+00 0. -1.
</event>
<event>
 7    1  0.3896452E-010  0.1316090E+03  0.7561462E-02  0.1225088E+00
          1   -1    0    0  501    0  0.00000000000E+00  0.00000000000E+00  0.23288426171E+03  0.23288426171E+03  0.00000000000E+00 0. -1.
         -1   -1    0    0    0  501 -0.00000000000E+00 -0.00000000000E+00 -0.10204665937E+03  0.10204665937E+03  0.00000000000E+00 0.  1.
         25    2    1    2    0    0 -0.20633085652E+01 -0.61418153843E+02  0.63048576122E+02  0.15296729283E+03  0.12508965928E+03 0.  0.
          5    1    3    3  502    0 -0.55883581733E+02 -0.37629074328E+02  0.65320805344E+02  0.93931900613E+02  0.41800000000E+01 0.  1.
         -5    1    3    3    0  502  0.53820273168E+02 -0.23789079515E+02 -0.22722292214E+01  0.59035392212E+02  0.41800000000E+01 0.  1.
        -11    1    1    2    0    0 -0.52873417828E+02 -0.18861946189E+01 -0.23622570209E+02  0.57941193172E+02  0.00000000000E+00 0.  1.
         11    1    1    2    0    0  0.54936726393E+02  0.63304348462E+02  0.91411596434E+02  0.12402243508E+03  0.00000000000E+00 0. -1.
</event>
<event>
 8    1  0.3896452E-010  0.1683871E+03  0.7561462E-02  0.1179540E+00
          2   -1    0    0  501    0  0.00000000000E+00  0.00000000000E+00  0.18493036458E+03  0.18493036458E+03  0.00000000000E+00 0. -1.
         -2   -1    0    0    0  501 -0.00000000000E+00 -0.00000000000E+00 -0.28330294170E+03  0.28330294170E+03  0.00000000000E+00 0.  1.
         25    2    1    2    0    0  0.67466808460E+01  0.14747938233E+03  0.93421080136E+02  0.21487330592E+03  0.12508938192E+03 0.  0.
         23    2    1    2    0    0 -0.67466808460E+01 -0.14747938233E+03 -0.19179365725E+03  0.25336000036E+03  0.74905252855E+02 0.  0.
          5    1    3    3  502    0  0.28994855617E+02 -0.63318258072E+01  0.41038569659E+02  0.50817617712E+02  0.41800000000E+01 0. -1.
         -5    1    3    3    0  502 -0.22248174771E+02  0.15381120814E+03  0.52382510477E+02  0.16405568821E+03  0.41800000000E+01 0. -1.
        -11    1    4    4    0    0  0.12441936896E+02 -0.86983095206E+02 -0.58023385766E+02  0.10529754955E+03  0.00000000000E+00 0.  1.
         11    1    4    4    0    0 -0.19188617742E+02 -0.60496287126E+02 -0.13377027149E+03  0.14806245081E+03  0.00000000000E+00 0. -1.
</event>
<event>
 8    1  0.3896452E-010  0.1172998E+03  0.7561462E-02  0.1247619E+00
         -3   -1    0    0    0  501 -0.00000000000E+00  0.00000000000E+00  0.11815687647E+03  0.11815687647E+03  0.00000000000E+00 0.  1.
          3   -1    0    0  501    0  0.00000000000E+00 -0.00000000000E+00 -0.19404847461E+03  0.19404847461E+03  0.00000000000E+00 0. -1.
         25    2    1    2    0    0  0.24703408774E+02 -0.51393115780E+02 -0.12227648149E+03  0.18398793119E+03  0.12509400523E+03 0.  0.
         23    2    1    2    0    0 -0.24703408774E+02  0.51393115780E+02  0.46384883360E+02  0.12821741989E+03  0.10505540730E+03 0.  0.
          5    1    3    3  502    0  0.14817818023E+02  0.36661123910E+02 -0.71406058007E+02  0.81730675132E+02  0.41800000000E+01 0.  1.
         -5    1    3    3    0  502  0.98855907510E+01 -0.88054239690E+02 -0.50870423483E+02  0.10225725606E+03  0.41800000000E+01 0.  1.
        -11    1    4    4    0    0  0.33237175816E+02  0.92987456111E+01 -0.11237577489E+02  0.36296827326E+02  0.00000000000E+00 0. -1.
         11    1    4    4    0    0 -0.57940584590E+02  0.42094370168E+02  0.57622460848E+02  0.91920592561E+02  0.00000000000E+00 0.  1.
</event>
<event>
 8    1  0.3896452E-010  0.1239904E+03  0.7561462E-02  0.1236656E+00
          1   -1    0    0  501    0  0.00000000000E+00  0.00000000000E+00  0.59284300132E+03  0.59284300132E+03  0.00000000000E+00 0. -1.
         -1   -1    0    0    0  501 -0.00000000000E+00 -0.00000000000E+00 -0.31222398928E+02  0.31222398928E+02  0.00000000000E+00 0.  1.
         25    2    1    2    0    0 -0.68230586185E+02  0.11724089574E+02  0.33549534321E+03  0.36468365444E+03  0.12507667780E+03 0.  0.
         23    2    1    2    0    0  0.68230586185E+02 -0.11724089574E+02  0.22612525918E+03  0.25938174581E+03  0.10655228788E+03 0.  0.
          5    1    3    3  502    0 -0.88087281691E+02 -0.28016828763E+02  0.17321465857E+03  0.19637999448E+03  0.41800000000E+01 0. -1.
         -5    1    3    3    0  502  0.19856695506E+02  0.39740918337E+02  0.16228068465E+03  0.16830365996E+03  0.41800000000E+01 0. -1.
        -11    1    4    4    0    0 -0.20821959839E+02  0.11355348240E+01  0.61882201886E+01  0.21751724529E+02  0.00000000000E+00 0.  1.
         11    1    4    4    0    0  0.89052546024E+02 -0.12859624398E+02  0.21993703899E+03  0.23763002128E+03  0.00000000000E+00 0. -1.
</event>
<event>
 8    1  0.3896452E-010  0.1836482E+03  0.7561462E-02  0.1164318E+00
         -2   -1    0    0    0  501 -0.00000000000E+00  0.00000000000E+00  0.42937728563E+02  0.42937728563E+02  0.00000000000E+00 0.  1.
          2   -1    0    0  501    0  0.00000000000E+00 -0.00000000000E+00 -0.87820388614E+03  0.87820388614E+03  0.00000000000E+00 0. -1.
         25    2    1    2    0    0 -0.15329460694E+03  0.34500248175E+02 -0.32253220600E+03  0.37995324390E+03  0.12509172637E+03 0.  0.
         23    2    1    2    0    0  0.15329460694E+03 -0.34500248175E+02 -0.51273395158E+03  0.54118837080E+03  0.72795906096E+02 0.  0.
          5    1    3    3  502    0 -0.13555835124E+03  0.72493263503E+02 -0.28346538056E+03  0.32249253359E+03  0.41800000000E+01 0.  1.
         -5    1    3    3    0  502 -0.17736255699E+02 -0.37993015328E+02 -0.39066825433E+02  0.57460710311E+02  0.41800000000E+01 0.  1.
        -11    1    4    4    0    0  0.47406744822E+02 -0.44497995321E+02 -0.15806742991E+03  0.17091747552E+03  0.00000000000E+00 0. -1.
         11    1    4    4    0    0  0.10588786212E+03  0.99977471466E+01 -0.35466652167E+03  0.37027089527E+03  0.00000000000E+00 0.  1.
</event>
<event>
 8    1  0.3896452E-010  0.1656622E+03  0.7561462E-02  0.1182449E+00
         -2   -1    0    0    0  501 -0.00000000000E+00  0.00000000000E+00  0.32231845731E+02  0.32231845731E+02  0.00000000000E+00 0.  1.
          2   -1    0    0  501    0  0.00000000000E+00 -0.00000000000E+00 -0.98037416192E+03  0.98037416192E+03  0.00000000000E+00 0. -1.
         25    2    1    2    0    0  0.48578136279E+02  0.13473989816E+03 -0.65007313727E+03  0.67731617935E+03  0.12508975786E+03 0.  0.
         23    2    1    2    0    0 -0.48578136279E+02 -0.13473989816E+03 -0.29806917892E+03  0.33528982831E+03  0.55311464126E+02 0.  0.
          5    1    3    3  502    0  0.89515562378E+02  0.99134021929E+02 -0.50470475933E+03  0.52209669287E+03  0.41800000000E+01 0.  1.
         -5    1    3    3    0  502 -0.40937426098E+02  0.35605876232E+02 -0.14536837794E+03  0.15521948648E+03  0.41800000000E+01 0.  1.
        -11    1    4    4    0    0 -0.66582335936E+01 -0.15104151040E+02 -0.91103161453E+02  0.92586464885E+02  0.00000000000E+00 0. -1.
         11    1    4    4    0    0 -0.41919902685E+02 -0.11963574712E+03 -0.20696601747E+03  0.24270336342E+03  0.00000000000E+00 0.  1.
</event>
<event>
 8    1  0.3896452E-010  0.1395308E+03  0.7561462E-02  0.1213962E+00
          2   -1    0    0  501    0  0.00000000000E+00  0.00000000000E+00  0.13105944946E+04  0.13105944946E+04  0.00000000000E+00 0. -1.
         -2   -1    0    0    0  501 -0.00000000000E+00 -0.00000000000E+00 -0.22917634506E+02  0.22917634506E+02  0.00000000000E+00 0.  1.
         25    2    1    2    0    0  0.93031309119E+02 -0.87403566315E+02  0.47533666617E+03  0.50782507082E+03  0.12508856248E+03 0.  0.
         23    2    1    2    0    0 -0.93031309119E+02  0.87403566315E+02  0.81234019389E+03  0.82568705826E+03  0.74621174469E+02 0.  0.
          5    1    3    3  502    0  0.64022549114E+02 -0.39411305586E+02  0.42725148675E+03  0.43383573289E+03  0.41800000000E+01 0.  1.
         -5    1    3    3    0  502  0.29008760005E+02 -0.47992260729E+02  0.48085179420E+02  0.73989337927E+02  0.41800000000E+01 0.  1.
        -11    1    4    4    0    0 -0.62847415496E+02  0.89627777457E+01  0.37705366878E+03  0.38236056041E+03  0.00000000000E+00 0. -1.
         11    1    4    4    0    0 -0.30183893623E+02  0.78440788570E+02  0.43528652512E+03  0.44332649785E+03  0.00000000000E+00 0.  1.
</event>
<event>
 7    1  0.3896452E-010  0.9990964E+02  0.7561462E-02  0.1280486E+00
          2   -1    0    0  501    0  0.00000000000E+00  0.00000000000E+00  0.52923104324E+03  0.52923104324E+03  0.00000000000E+00 0. -1.
         -2   -1    0    0    0  501 -0.00000000000E+00 -0.00000000000E+00 -0.24747618131E+02  0.24747618131E+02  0.00000000000E+00 0.  1.
         25    2    1    2    0    0 -0.64785225889E+02  0.79853448709E+01  0.43634024124E+03  0.45858576952E+03  0.12508881105E+03 0.  0.
          5    1    3    3  502    0 -0.61873032879E+02  0.57214825755E+02  0.19914791783E+03  0.21628493720E+03  0.41800000000E+01 0.  1.
         -5    1    3    3    0  502 -0.29121930109E+01 -0.49229480884E+02  0.23719232342E+03  0.24230083232E+03  0.41800000000E+01 0.  1.
        -11    1    1    2    0    0  0.42621981296E+02 -0.97325639713E+01  0.37916426192E+02  0.57870644252E+02  0.00000000000E+00 0.  1.
         11    1    1    2    0    0  0.22163244594E+02  0.17472191004E+01  0.30226757678E+02  0.37522247604E+02  0.00000000000E+00 0. -1.
</event>
<event>
 8    1  0.3896452E-010  0.9603061E+02  0.7561462E-02  0.1288872E+00
         -2   -1    0    0    0  501 -0.00000000000E+00  0.00000000000E+00  0.11614712248E+03  0.11614712248E+03  0.00000000000E+00 0.  1.
          2   -1    0    0  501    0  0.00000000000E+00 -0.00000000000E+00 -0.23703170948E+03  0.23703170948E+03  0.00000000000E+00 0. -1.
         25    2    1    2    0    0 -0.10779095745E+02 -0.38770859420E+02 -0.20254771576E+03  0.24144020751E+03  0.12509367769E+03 0.  0.
         23    2    1    2    0    0  0.10779095745E+02  0.38770859420E+02  0.81663128770E+02  0.11173862445E+03  0.64786458058E+02 0.  0.
          5    1    3    3  502    0 -0.37064977889E+02 -0.76484940325E+02 -0.13677711646E+03  0.16108758695E+03  0.41800000000E+01 0.  1.
         -5    1    3    3    0  502  0.26285882144E+02  0.37714080905E+02 -0.65770599300E+02  0.80352620560E+02  0.41800000000E+01 0.  1.
        -11    1    4    4    0    0  0.83809615750E+01  0.49299707442E+02  0.86493420333E+02  0.99909025777E+02  0.00000000000E+00 0.  1.
         11    1    4    4    0    0  0.23981341699E+01 -0.10528848022E+02 -0.48302915622E+01  0.11829598672E+02  0.00000000000E+00 0. -1.
</event>
<event>
 8    1  0.3896452E-010  0.2864256E+03  0.7561462E-02  0.1092230E+00
          1   -1    0    0  501    0  0.00000000000E+00  0.00000000000E+00  0.14091965924E+04  0.14091965924E+04  0.00000000000E+00 0. -1.
         -1   -1    0    0    0  501 -0.00000000000E+00 -0.00000000000E+00 -0.66278165883E+02  0.66278165883E+02  0.00000000000E+00 0.  1.
         25    2    1    2    0    0 -0.10442403825E+03  0.25911256106E+03  0.60198834824E+03  0.67533797759E+03  0.12509082100E+03 0.  0.
         23    2    1    2    0    0  0.10442403825E+03 -0.25911256106E+03  0.74093007833E+03  0.80013678074E+03  0.11488162545E+03 0.  0.
          5    1    3    3  502    0 -0.17268078028E+02  0.14580522743E+02  0.16837972233E+03  0.16994111172E+03  0.41800000000E+01 0. -1.
         -5    1    3    3    0  502 -0.87155960220E+02  0.24453203831E+03  0.43360862591E+03  0.50539686587E+03  0.41800000000E+01 0. -1.
        -11    1    4    4    0    0  0.34523566889E+02 -0.18563818358E+03  0.36735467315E+03  0.41304100010E+03  0.00000000000E+00 0.  1.
         11    1    4    4    0    0  0.69900471359E+02 -0.73474377471E+02  0.37357540517E+03  0.38709578064E+03  0.00000000000E+00 0. -1.
</event>
<event>
 8    1  0.3896452E-010  0.1759412E+03  0.7561462E-02  0.1171790E+00
         -4   -1    0    0    0  501 -0.00000000000E+00  0.00000000000E+00  0.80792616736E+02  0.80792616736E+02  0.00000000000E+00 0.  1.
          4   -1    0    0  501    0  0.00000000000E+00 -0.00000000000E+00 -0.49787881551E+03  0.49787881551E+03  0.00000000000E+00 0. -1.
         25    2    1    2    0    0 -0.11339257548E+03  0.12100638730E+03 -0.29222597818E+03  0.35853059690E+03  0.12509094552E+03 0.  0.
         23    2    1    2    0    0  0.11339257548E+03 -0.12100638730E+03 -0.12486022060E+03  0.22014083534E+03  0.73290454761E+02 0.  0.
          5    1    3    3  502    0 -0.76693689821E+02  0.11917727688E+03 -0.13073089056E+03  0.19285534353E+03  0.41800000000E+01 0. -1.
         -5    1    3    3    0  502 -0.36698885657E+02  0.18291104176E+01 -0.16149508762E+03  0.16567525337E+03  0.41800000000E+01 0. -1.
        -11    1    4    4    0    0  0.84655390999E+02 -0.54536507709E+02 -0.10403557596E+03  0.14479007896E+03  0.00000000000E+00 0. -1.
         11    1    4    4    0    0  0.28737184479E+02 -0.66469879587E+02 -0.20824644631E+02  0.75350756387E+02  0.00000000000E+00 0.  1.
</event>
<event>
 8    1  0.3896452E-010  0.7349697E+02  0.7561462E-02  0.1348590E+00
         -2   -1    0    0    0  501 -0.00000000000E+00  0.00000000000E+00  0.35697668542E+02  0.35697668542E+02  0.00000000000E+00 0.  1.
          2   -1    0    0  501    0  0.00000000000E+00 -0.00000000000E+00 -0.25692441835E+03  0.25692441835E+03  0.00000000000E+00 0. -1.
         25    2    1    2    0    0  0.77893970936E+01  0.10803445825E+02 -0.12127202946E+03  0.17473243969E+03  0.12508849348E+03 0.  0.
         23    2    1    2    0    0 -0.77893970936E+01 -0.10803445825E+02 -0.99954720352E+02  0.11788964720E+03  0.61070726607E+02 0.  0.
          5    1    3    3  502    0  0.36751285468E+02 -0.32155363653E+02 -0.11156481350E+03  0.12185567039E+03  0.41800000000E+01 0. -1.
         -5    1    3    3    0  502 -0.28961888374E+02  0.42958809478E+02 -0.97072159607E+01  0.52876769301E+02  0.41800000000E+01 0. -1.
        -11    1    4    4    0    0 -0.20753666590E+02  0.87671971618E+01 -0.95209786430E+01  0.24458688790E+02  0.00000000000E+00 0.  1.
         11    1    4    4    0    0  0.12964269497E+02 -0.19570642987E+02 -0.90433741709E+02  0.93430958413E+02  0.00000000000E+00 0. -1.
</event>
<event>
 8    1  0.3896452E-010  0.1482204E+03  0.7561462E-02  0.1202677E+00
          1   -1    0    0  501    0  0.00000000000E+00  0.00000000000E+00  0.91638146997E+02  0.91638146997E+02  0.00000000000E+00 0. -1.
         -1   -1    0    0    0  501 -0.00000000000E+00 -0.00000000000E+00 -0.34576531399E+03  0.34576531399E+03  0.00000000000E+00 0.  1.
         25    2    1    2    0    0  0.95253483636E+02 -0.30451558898E+02 -0.28417722114E+02  0.16265170857E+03  0.12508991881E+03 0.  0.
         23    2    1    2    0    0 -0.95253483636E+02  0.30451558898E+02 -0.22570944488E+03  0.27475175242E+03  0.12059539114E+03 0.  0.
          5    1    3    3  502    0 -0.20382734170E+02 -0.19462695441E+02  0.21959750029E+02  0.35971591394E+02  0.41800000000E+01 0. -1.
         -5    1    3    3    0  502  0.11563621781E+03 -0.10988863457E+02 -0.50377472143E+02  0.12668011718E+03  0.41800000000E+01 0. -1.
        -11    1    4    4    0    0 -0.92176845114E+02 -0.25533586559E+02 -0.17360346483E+03  0.19820872287E+03  0.00000000000E+00 0.  1.
         11    1    4    4    0    0 -0.30766385219E+01  0.55985145457E+02 -0.52105980046E+02  0.76543029552E+02  0.00000000000E+00 0. -1.
</event>
<event>
 8    1  0.3896452E-010  0.1252591E+03  0.7561462E-02  0.1234665E+00
         -3   -1    0    0    0  501 -0.00000000000E+00  0.00000000000E+00  0.23330995630E+03  0.23330995630E+03  0.00000000000E+00 0.  1.
          3   -1    0    0  501    0  0.00000000000E+00 -0.00000000000E+00 -0.91192226190E+02  0.91192226190E+02  0.00000000000E+00 0. -1.
         25    2    1    2    0    0  0.39888138645E+02 -0.65798893500E+02  0.23329640491E+02  0.14870413387E+03  0.12509232316E+03 0.  0.
         23    2    1    2    0    0 -0.39888138645E+02  0.65798893500E+02  0.11878808962E+03  0.17579804862E+03  0.10427744565E+03 0.  0.
          5    1    3    3  502    0  0.70767571766E+02 -0.36033110433E+02 -0.25563550882E+02  0.83530843375E+02  0.41800000000E+01 0.  1.
         -5    1    3    3    0  502 -0.30879433122E+02 -0.29765783067E+02  0.48893191374E+02  0.65173290497E+02  0.41800000000E+01 0.  1.
        -11    1    4    4    0    0 -0.49030929610E+02 -0.11256344344E+02  0.33215001212E+02  0.60282448954E+02  0.00000000000E+00 0. -1.
         11    1    4    4    0    0  0.91427909654E+01  0.77055237845E+02  0.85573088406E+02  0.11551559966E+03  0.00000000000E+00 0.  1.
</event>
<event>
 8    1  0.3896452E-010  0.1315419E+03  0.7561462E-02  0.1225186E+00
         -4   -1    0    0    0  501 -0.00000000000E+00  0.00000000000E+00  0.17729973352E+03  0.17729973352E+03  0.00000000000E+00 0.  1.
          4   -1    0    0  501    0  0.00000000000E+00 -0.00000000000E+00 -0.16385898980E+03  0.16385898980E+03  0.00000000000E+00 0. -1.
         25    2    1    2    0    0 -0.11365328411E+03 -0.34867530014E+02  0.72781760391E+02  0.18728862026E+03  0.12508808494E+03 0.  0.
         23    2    1    2    0    0  0.11365328411E+03  0.34867530014E+02 -0.59341016671E+02  0.15387010306E+03  0.77600507196E+02 0.  0.
          5    1    3    3  502    0 -0.83093275408E+02  0.28076598485E+01 -0.17175646955E+02  0.84999121290E+02  0.41800000000E+01 0. -1.
         -5    1    3    3    0  502 -0.30560008702E+02 -0.37675189862E+02  0.89957407346E+02  0.10228949897E+03  0.41800000000E+01 0. -1.
        -11    1    4    4    0    0  0.70026295965E+02 -0.73835414519E+01 -0.21492181015E+01  0.70447270702E+02  0.00000000000E+00 0.  1.
         11    1    4    4    0    0  0.43626988146E+02  0.42251071466E+02 -0.57191798569E+02  0.83422832355E+02  0.00000000000E+00 0. -1.
</event>
<event>
 8    1  0.3896452E-010  0.1472906E+03  0.7561462E-02  0.1203842E+00
          1   -1    0    0  501    0  0.00000000000E+00  0.00000000000E+00  0.50516273763E+02  0.50516273763E+02  0.00000000000E+00 0. -1.
         -1   -1    0    0    0  501 -0.00000000000E+00 -0.00000000000E+00 -0.48975776400E+03  0.48975776400E+03  0.00000000000E+00 0.  1.
         25    2    1    2    0    0  0.69339755776E+02 -0.46551323087E+02 -0.30405991330E+03  0.33922340013E+03  0.12508020192E+03 0.  0.
         23    2    1    2    0    0 -0.69339755776E+02  0.46551323087E+02 -0.13518157694E+03  0.20105063763E+03  0.12317577982E+03 0.  0.
          5    1    3    3  502    0 -0.24572496464E+02 -0.48993597560E+02 -0.13514735670E+03  0.14589880262E+03  0.41800000000E+01 0.  1.
         -5    1    3    3    0  502  0.93912252241E+02  0.24422744735E+01 -0.16891255660E+03  0.19332459751E+03  0.41800000000E+01 0.  1.
        -11    1    4    4    0    0 -0.10319084671E+03  0.27768414619E+02 -0.11642777811E+03  0.15803437351E+03  0.00000000000E+00 0.  1.
         11    1    4    4    0    0  0.33851090936E+02  0.18782908467E+02 -0.18753798830E+02  0.43016264118E+02  0.00000000000E+00 0. -1.
</event>
<event>
 8    1  0.3896452E-010  0.2270486E+03  0.7561462E-02  0.1128735E+00
         -2   -1    0    0    0  501 -0.00000000000E+00  0.00000000000E+00  0.16681882330E+03  0.16681882330E+03  0.00000000000E+00 0.  1.
          2   -1    0    0  501    0  0.00000000000E+00 -0.00000000000E+00 -0.36102829567E+03  0.36102829567E+03  0.00000000000E+00 0. -1.
         25    2    1    2    0    0 -0.11462749741E+03  0.16493014223E+03 -0.18947225736E+02  0.23737705347E+03  0.12508978045E+03 0.  0.
         23    2    1    2    0    0  0.11462749741E+03 -0.16493014223E+03 -0.17526224663E+03  0.29047006549E+03  0.11538885941E+03 0.  0.
          5    1    3    3  502    0 -0.90043862490E+02  0.46479553679E+02 -0.49029390658E+02  0.11264812307E+03  0.41800000000E+01 0.  1.
         -5    1    3    3    0  502 -0.24583634924E+02  0.11845058855E+03  0.30082164922E+02  0.12472893041E+03  0.41800000000E+01 0.  1.
        -11    1    4    4    0    0  0.94427075185E+01 -0.11466591681E+03 -0.88101245200E+02  0.14491123700E+03  0.00000000000E+00 0.  1.
         11    1    4    4    0    0  0.10518478990E+03 -0.50264225422E+02 -0.87161001430E+02  0.14555882850E+03  0.00000000000E+00 0. -1.
</event>
<event>
 8    1  0.3896452E-010  0.8429210E+02  0.7561462E-02  0.1317294E+00
         -2   -1    0    0    0  501 -0.00000000000E+00  0.00000000000E+00  0.33992642297E+03  0.33992642297E+03  0.00000000000E+00 0. -1.
          2   -1    0    0  501    0  0.00000000000E+00 -0.00000000000E+00 -0.30713146791E+02  0.30713146791E+02  0.00000000000E+00 0.  1.
         25    2    1    2    0    0  0.23801152297E+02  0.43843093825E+01  0.20784265916E+03  0.24378436164E+03  0.12508607834E+03 0.  0.
         23    2    1    2    0    0 -0.23801152297E+02 -0.43843093825E+01  0.10137061702E+03  0.12685520812E+03  0.72322367309E+02 0.  0.
          5    1    3    3  502    0  0.35744893388E+01  0.46496772320E+02  0.21305475943E+02  0.51440475458E+02  0.41800000000E+01 0.  1.
         -5    1    3    3    0  502  0.20226662958E+02 -0.42112462937E+02  0.18653718322E+03  0.19234388618E+03  0.41800000000E+01 0.  1.
        -11    1    4    4    0    0 -0.62999093531E+01 -0.37166814308E+02  0.38912973990E+02  0.54178228915E+02  0.00000000000E+00 0.  1.
         11    1    4    4    0    0 -0.17501242944E+02  0.32782504925E+02  0.62457643026E+02  0.72676979203E+02  0.00000000000E+00 0. -1.
</event>
<event>
 8    1  0.3896452E-010  0.6528937E+02  0.7561462E-02  0.1376886E+00
         -2   -1    0    0    0  501 -0.00000000000E+00  0.00000000000E+00  0.24155027820E+03  0.24155027820E+03  0.00000000000E+00 0. -1.
          2   -1    0    0  501    0  0.00000000000E+00 -0.00000000000E+00 -0.68316356949E+02  0.68316356949E+02  0.00000000000E+00 0.  1.
         25    2    1    2    0    0  0.18221912117E+02 -0.10143777120E+02  0.20280769151E+03  0.23919170305E+03  0.12508707677E+03 0.  0.
         23    2    1    2    0    0 -0.18221912117E+02  0.10143777120E+02 -0.29573770261E+02  0.70674932099E+02  0.60707527081E+02 0.  0.
          5    1    3    3  502    0  0.55968512217E+02 -0.17839586634E+02  0.38459571341E+02  0.70337303324E+02  0.41800000000E+01 0. -1.
         -5    1    3    3    0  502 -0.37746600100E+02  0.76958095137E+01  0.16434812017E+03  0.16885439972E+03  0.41800000000E+01 0. -1.
        -11    1    4    4    0    0 -0.20332711364E+02 -0.21668148966E+01 -0.45823978101E+02  0.50179190978E+02  0.00000000000E+00 0.  1.
         11    1    4    4    0    0  0.21107992463E+01  0.12310592017E+02  0.16250207840E+02  0.20495741121E+02  0.00000000000E+00 0. -1.
</event>
<event>
 8    1  0.3896452E-010  0.1073249E+03  0.7561462E-02  0.1265606E+00
         -1   -1    0    0    0  501 -0.00000000000E+00  0.00000000000E+00  0.40327573175E+02  0.40327573175E+02  0.00000000000E+00 0.  1.
          1   -1    0    0  501    0  0.00000000000E+00 -0.00000000000E+00 -0.33372261024E+03  0.33372261024E+03  0.00000000000E+00 0. -1.
         25    2    1    2    0    0  0.56387353008E+02  0.15748685741E+02 -0.23561634696E+03  0.27311261151E+03  0.12509149024E+03 0.  0.
         23    2    1    2    0    0 -0.56387353008E+02 -0.15748685741E+02 -0.57778690114E+02  0.10093757191E+03  0.58501809463E+02 0.  0.
          5    1    3    3  502    0  0.31717782869E+02  0.67477435132E+02 -0.17127549544E+03  0.18684750397E+03  0.41800000000E+01 0. -1.
         -5    1    3    3    0  502  0.24669570139E+02 -0.51728749392E+02 -0.64340851519E+02  0.86265107539E+02  0.41800000000E+01 0. -1.
        -11    1    4    4    0    0 -0.31738760065E+02 -0.37855450483E+02 -0.38437267632E+02  0.62592392227E+02  0.00000000000E+00 0. -1.
         11    1    4    4    0    0 -0.24648592943E+02  0.22106764743E+02 -0.19341422482E+02  0.38345179685E+02  0.00000000000E+00 0.  1.
</event>
<event>
 8    1  0.3896452E-010  0.1139643E+03  0.7561462E-02  0.1253400E+00
          1   -1    0    0  501    0  0.00000000000E+00  0.00000000000E+00  0.21686312041E+03  0.21686312041E+03  0.00000000000E+00 0. -1.
         -1   -1    0    0    0  501 -0.00000000000E+00 -0.00000000000E+00 -0.73290523852E+02  0.73290523852E+02  0.00000000000E+00 0.  1.
         25    2    1    2    0    0  0.25294809827E+02  0.54870733142E+02  0.32455836812E+02  0.14266442452E+03  0.12509649044E+03 0.  0.
         23    2    1    2    0    0 -0.25294809827E+02 -0.54870733142E+02  0.11111675974E+03  0.14748921974E+03  0.75865083437E+02 0.  0.
          5    1    3    3  502    0  0.32590846514E+01  0.90042482413E+02  0.42572884441E+02  0.99740629442E+02  0.41800000000E+01 0. -1.
         -5    1    3    3    0  502  0.22035725175E+02 -0.35171749271E+02 -0.10117047629E+02  0.42923795074E+02  0.41800000000E+01 0. -1.
        -11    1    4    4    0    0 -0.19210682613E+02 -0.73734092982E+02  0.95993329671E+02  0.12255809290E+03  0.00000000000E+00 0. -1.
         11    1    4    4    0    0 -0.60841272138E+01  0.18863359840E+02  0.15123430069E+02  0.24931126839E+02  0.00000000000E+00 0.  1.
</event>
<event>
 8    1  0.3896452E-010  0.1960012E+03  0.7561462E-02  0.1153157E+00
         -1   -1    0    0    0  501 -0.00000000000E+00  0.00000000000E+00  0.87111377199E+02  0.87111377199E+02  0.00000000000E+00 0.  1.
          1   -1    0    0  501    0  0.00000000000E+00 -0.00000000000E+00 -0.51421082959E+03  0.51421082959E+03  0.00000000000E+00 0. -1.
         25    2    1    2    0    0 -0.48441335560E+02 -0.17449915881E+03 -0.17157134681E+03  0.27907087305E+03  0.12508919106E+03 0.  0.
         23    2    1    2    0    0  0.48441335560E+02  0.17449915881E+03 -0.25552810558E+03  0.32225133374E+03  0.75860331792E+02 0.  0.
          5    1    3    3  502    0  0.63929403053E+01  0.52218333885E+01  0.12797519127E+02  0.15791963953E+02  0.41800000000E+01 0. -1.
         -5    1    3    3    0  502 -0.54834275866E+02 -0.17972099220E+03 -0.18436886594E+03  0.26327890910E+03  0.41800000000E+01 0. -1.
        -11    1    4    4    0    0  0.66380724064E+02  0.11639939009E+03 -0.15631806595E+03  0.20588967017E+03  0.00000000000E+00 0.  1.
         11    1    4    4    0    0 -0.17939388504E+02  0.58099768723E+02 -0.99210039631E+02  0.11636166357E+03  0.00000000000E+00 0. -1.
</event>
<event>
 7    1  0.3896452E-010  0.1686317E+03  0.7561462E-02  0.1179282E+00
          2   -1    0    0  501    0  0.00000000000E+00  0.00000000000E+00  0.86675276385E+03  0.86675276385E+03  0.00000000000E+00 0.  1.
         -2   -1    0    0    0  501 -0.00000000000E+00 -0.00000000000E+00 -0.40609746958E+02  0.40609746958E+02  0.00000000000E+00 0. -1.
         25    2    1    2    0    0 -0.72185140979E+02  0.99242351008E+02  0.55791520713E+03  0.58478790366E+03  0.12509106723E+03 0.  0.
          5    1    3    3  502    0 -0.77859274192E+01 -0.20775101899E+02  0.20941398953E+02  0.30793507673E+02  0.41800000000E+01 0. -1.
         -5    1    3    3    0  502 -0.64399213559E+02  0.12001745291E+03  0.53697380818E+03  0.55399439598E+03  0.41800000000E+01 0. -1.
        -11    1    1    2    0    0 -0.37482179942E+02 -0.16079595544E+02  0.49383403582E+02  0.64048323596E+02  0.00000000000E+00 0.  1.
         11    1    1    2    0    0  0.10966732092E+03 -0.83162755464E+02  0.21884440617E+03  0.25852628355E+03  0.00000000000E+00 0. -1.
</event>
<event>
 7    1  0.3896452E-010  0.1392979E+03  0.7561462E-02  0.1214277E+00
         -4   -1    0    0    0  501 -0.00000000000E+00  0.00000000000E+00  0.41941891729E+02  0.41941891729E+02  0.00000000000E+00 0.  1.
          4   -1    0    0  501    0  0.00000000000E+00 -0.00000000000E+00 -0.55725627307E+03  0.55725627307E+03  0.00000000000E+00 0. -1.
         25    2    1    2    0    0 -0.46147680023E+01 -0.21230838560E+02 -0.35361875474E+03  0.37571859993E+03  0.12508476341E+03 0.  0.
          5    1    3    3  502    0 -0.18142912044E+02 -0.71771246254E+02 -0.22012400228E+03  0.23227639963E+03  0.41800000000E+01 0. -1.
         -5    1    3    3    0  502  0.13528144042E+02  0.50540407694E+02 -0.13349475246E+03  0.14344220029E+03  0.41800000000E+01 0. -1.
        -11    1    1    2    0    0  0.76035360209E+02 -0.41953668529E+01 -0.61790410014E+02  0.98066466617E+02  0.00000000000E+00 0. -1.
         11    1    1    2    0    0 -0.71420592206E+02  0.25426205413E+02 -0.99905216593E+02  0.12541309826E+03  0.00000000000E+00 0.  1.
</event>
<event>
 8    1  0.3896452E-010  0.1369519E+03  0.7561462E-02  0.1217490E+00
          3   -1    0    0  501    0  0.00000000000E+00  0.00000000000E+00  0.29863888059E+03  0.29863888059E+03  0.00000000000E+00 0. -1.
         -3   -1    0    0    0  501 -0.00000000000E+00 -0.00000000000E+00 -0.78975144250E+02  0.78975144250E+02  0.00000000000E+00 0.  1.
         25    2    1    2    0    0 -0.40568288847E+02 -0.55989179184E+02  0.30279833635E+02  0.14609925813E+03  0.12509017010E+03 0.  0.
         23    2    1    2    0    0  0.40568288847E+02  0.55989179184E+02  0.18938390271E+03  0.23151476671E+03  0.11380795383E+03 0.  0.
          5    1    3    3  502    0 -0.81038589944E+02 -0.14104267178E+02  0.51342691665E+01  0.82522824313E+02  0.41800000000E+01 0. -1.
         -5    1    3    3    0  502  0.40470301097E+02 -0.41884912007E+02  0.25145564469E+02  0.63576433819E+02  0.41800000000E+01 0. -1.
        -11    1    4    4    0    0  0.68663443462E+02  0.73069624184E+02  0.14105570121E+03  0.17306226998E+03  0.00000000000E+00 0. -1.
         11    1    4    4    0    0 -0.28095154615E+02 -0.17080445000E+02  0.48328201500E+02  0.58452496733E+02  0.00000000000E+00 0.  1.
</event>
<event>
 8    1  0.3896452E-010  0.9391332E+02  0.7561462E-02  0.1293642E+00
         -1   -1    0    0    0  501 -0.00000000000E+00  0.00000000000E+00  0.81027729856E+02  0.81027729856E+02  0.00000000000E+00 0.  1.
          1   -1    0    0  501    0  0.00000000000E+00 -0.00000000000E+00 -0.35268685665E+03  0.35268685665E+03  0.00000000000E+00 0. -1.
         25    2    1    2    0    0 -0.24492055640E+02  0.45380158275E+02  0.12489978273E+02  0.13587713202E+03  0.12508947156E+03 0.  0.
         23    2    1    2    0    0  0.24492055640E+02 -0.45380158275E+02 -0.28414910507E+03  0.29783745448E+03  0.72850640543E+02 0.  0.
          5    1    3    3  502    0 -0.42432237116E+02  0.75998102478E+02 -0.17909742711E+02  0.88963125006E+02  0.41800000000E+01 0.  1.
         -5    1    3    3    0  502  0.17940181475E+02 -0.30617944202E+02  0.30399720984E+02  0.46914007017E+02  0.41800000000E+01 0.  1.
        -11    1    4    4    0    0 -0.10989207225E+02 -0.10790245033E+02 -0.81482223534E+01  0.17423707723E+02  0.00000000000E+00 0.  1.
         11    1    4    4    0    0  0.35481262866E+02 -0.34589913243E+02 -0.27600088271E+03  0.28041374676E+03  0.00000000000E+00 0. -1.
</event>
<event>
 8    1  0.3896452E-010  0.1140074E+03  0.7561462E-02  0.1253324E+00
         -2   -1    0    0    0  501 -0.00000000000E+00  0.00000000000E+00  0.22927360100E+02  0.22927360100E+02  0.00000000000E+00 0. -1.
          2   -1    0    0  501    0  0.00000000000E+00 -0.00000000000E+00 -0.81852308213E+03  0.81852308213E+03  0.00000000000E+00 0.  1.
         25    2    1    2    0    0 -0.34067599438E+02  0.37502941788E+02 -0.33836244775E+03  0.36428533474E+03  0.12509031571E+03 0.  0.
         23    2    1    2    0    0  0.34067599438E+02 -0.37502941788E+02 -0.45723327429E+03  0.47716510750E+03  0.12671701040E+03 0.  0.
          5    1    3    3  502    0  0.23766852193E+02  0.23276815335E+02 -0.27570756534E+03  0.27773873944E+03  0.41800000000E+01 0.  1.
         -5    1    3    3    0  502 -0.57834451631E+02  0.14226126453E+02 -0.62654882402E+02  0.86546595300E+02  0.41800000000E+01 0.  1.
        -11    1    4    4    0    0  0.61438931062E+02  0.25168069933E+02 -0.18790037309E+03  0.19928553435E+03  0.00000000000E+00 0.  1.
         11    1    4    4    0    0 -0.27371331624E+02 -0.62671011721E+02 -0.26933290120E+03  0.27787957315E+03  0.00000000000E+00 0. -1.
</event>
<event>
 8    1  0.3896452E-010  0.8182568E+02  0.7561462E-02  0.1323949E+00
          1   -1    0    0  501    0  0.00000000000E+00  0.00000000000E+00  0.11321010023E+03  0.11321010023E+03  0.00000000000E+00 0. -1.
         -1   -1    0    0    0  501 -0.00000000000E+00 -0.00000000000E+00 -0.11051067715E+03  0.11051067715E+03  0.00000000000E+00 0.  1.
         25    2    1    2    0    0  0.46812734198E+01 -0.48278173573E+02  0.29435191249E+02  0.13735740301E+03  0.12509168363E+03 0.  0.
         23    2    1    2    0    0 -0.46812734198E+01  0.48278173573E+02 -0.26735768172E+02  0.86363374372E+02  0.66265637919E+02 0.  0.
          5    1    3    3  502    0  0.42088797713E+02 -0.17046496323E+02 -0.34268957880E+02  0.57042824299E+02  0.41800000000E+01 0.  1.
         -5    1    3    3    0  502 -0.37407524294E+02 -0.31231677250E+02  0.63704149130E+02  0.80314578714E+02  0.41800000000E+01 0.  1.
        -11    1    4    4    0    0 -0.23969519221E+02  0.42855545555E+02  0.44407798307E+01  0.49303713471E+02  0.00000000000E+00 0.  1.
         11    1    4    4    0    0  0.19288245802E+02  0.54226280173E+01 -0.31176548003E+02  0.37059660901E+02  0.00000000000E+00 0. -1.
</event>
<event>
 8    1  0.3896452E-010  0.6368078E+02  0.7561462E-02  0.1383004E+00
          1   -1    0    0  501    0  0.00000000000E+00  0.00000000000E+00  0.28875133804E+03  0.28875133804E+03  0.00000000000E+00 0. -1.
         -1   -1    0    0    0  501 -0.00000000000E+00 -0.00000000000E+00 -0.57345269292E+02  0.57345269292E+02  0.00000000000E+00 0.  1.
         25    2    1    2    0    0 -0.92329217513E+01 -0.83454268779E+01  0.87603917954E+02  0.15321963100E+03  0.12508763283E+03 0.  0.
         23    2    1    2    0    0  0.92329217513E+01  0.83454268779E+01  0.14380215079E+03  0.19287697634E+03  0.12793582936E+03 0.  0.
          5    1    3    3  502    0  0.11888220302E+02 -0.26290706358E+02  0.11220195787E+03  0.11592792059E+03  0.41800000000E+01 0.  1.
         -5    1    3    3    0  502 -0.21121142053E+02  0.17945279480E+02 -0.24598039916E+02  0.37291710405E+02  0.41800000000E+01 0.  1.
        -11    1    4    4    0    0  0.57239028528E+01  0.38952335342E+02 -0.61012771286E+01  0.39840595817E+02  0.00000000000E+00 0.  1.
         11    1    4    4    0    0  0.35090188985E+01 -0.30606908464E+02  0.14990342792E+03  0.15303638052E+03  0.00000000000E+00 0. -1.
</event>
<event>
 8    1  0.3896452E-010  0.9293350E+02  0.7561462E-02  0.1295899E+00
          2   -1    0    0  501    0  0.00000000000E+00  0.00000000000E+00  0.10981078176E+03  0.10981078176E+03  0.00000000000E+00 0. -1.
         -2   -1    0    0    0  501 -0.00000000000E+00 -0.00000000000E+00 -0.16104520536E+03  0.16104520536E+03  0.00000000000E+00 0.  1.
         25    2    1    2    0    0 -0.21105608468E+02 -0.49516097981E+02 -0.66237842225E+02  0.15143750122E+03  0.12509426192E+03 0.  0.
         23    2    1    2    0    0  0.21105608468E+02  0.49516097981E+02  0.15003418620E+02  0.11941848590E+03  0.10553853105E+03 0.  0.
          5    1    3    3  502    0 -0.12513562143E+02 -0.89734948234E+02 -0.62036967565E+02  0.10988634090E+03  0.41800000000E+01 0. -1.
         -5    1    3    3    0  502 -0.85920463255E+01  0.40218850253E+02 -0.42008746598E+01  0.41551160316E+02  0.41800000000E+01 0. -1.
        -11    1    4    4    0    0  0.14700284600E+02  0.33857889472E+02 -0.44350196130E+02  0.57700909382E+02  0.00000000000E+00 0.  1.
         11    1    4    4    0    0  0.64053238685E+01  0.15658208509E+02  0.59353614750E+02  0.61717576519E+02  0.00000000000E+00 0. -1.
</event>
<event>
 8    1  0.3896452E-010  0.1266936E+03  0.7561462E-02  0.1232446E+00
         -1   -1    0    0    0  501 -0.00000000000E+00  0.00000000000E+00  0.10027136716E+03  0.10027136716E+03  0.00000000000E+00 0.  1.
          1   -1    0    0  501    0  0.00000000000E+00 -0.00000000000E+00 -0.22792245606E+03  0.22792245606E+03  0.00000000000E+00 0. -1.
         25    2    1    2    0    0  0.10183845549E+03 -0.20031185798E+02 -0.22943810929E+02  0.16415328056E+03  0.12509021400E+03 0.  0.
         23    2    1    2    0    0 -0.10183845549E+03  0.20031185798E+02 -0.10470727797E+03  0.16404054266E+03  0.71926115957E+02 0.  0.
          5    1    3    3  502    0  0.11206022559E+03 -0.11983321393E+01  0.21913308360E+02  0.11426546128E+03  0.41800000000E+01 0. -1.
         -5    1    3    3    0  502 -0.10221770106E+02 -0.18832853658E+02 -0.44857119290E+02  0.49887819275E+02  0.41800000000E+01 0. -1.
        -11    1    4    4    0    0 -0.41063472930E+02  0.38089929081E+02 -0.22824808204E+02  0.60481595349E+02  0.00000000000E+00 0.  1.
         11    1    4    4    0    0 -0.60774982555E+02 -0.18058743283E+02 -0.81882469762E+02  0.10355894731E+03  0.00000000000E+00 0. -1.
</event>
<event>
 8    1  0.3896452E-010  0.2747170E+03  0.7561462E-02  0.1098610E+00
          2   -1    0    0  501    0  0.00000000000E+00  0.00000000000E+00  0.65833288545E+03  0.65833288545E+03  0.00000000000E+00 0. -1.
         -2   -1    0    0    0  501 -0.00000000000E+00 -0.00000000000E+00 -0.15954410966E+03  0.15954410966E+03  0.00000000000E+00 0.  1.
         25    2    1    2    0    0  0.81371088546E+01  0.25880099093E+03  0.44663862240E+03  0.53120424914E+03  0.12509088634E+03 0.  0.
         23    2    1    2    0    0 -0.81371088546E+01 -0.25880099093E+03  0.52150153396E+02  0.28667274596E+03  0.11143365439E+03 0.  0.
          5    1    3    3  502    0  0.60892436270E+02  0.17644930658E+03  0.25540301693E+03  0.31637070036E+03  0.41800000000E+01 0.  1.
         -5    1    3    3    0  502 -0.52755327416E+02  0.82351684351E+02  0.19123560547E+03  0.21483354879E+03  0.41800000000E+01 0.  1.
        -11    1    4    4    0    0 -0.25379398435E+02 -0.58161207998E+02  0.56908250868E+02  0.85237251231E+02  0.00000000000E+00 0.  1.
         11    1    4    4    0    0  0.17242289580E+02 -0.20063978293E+03 -0.47580974719E+01  0.20143549473E+03  0.00000000000E+00 0. -1.
</event>
<event>
 7    1  0.3896452E-010  0.9117002E+02  0.7561462E-02  0.1300043E+00
         -3   -1    0    0    0  501 -0.00000000000E+00  0.00000000000E+00  0.93310888398E+03  0.93310888398E+03  0.00000000000E+00 0.  1.
          3   -1    0    0  501    0  0.00000000000E+00 -0.00000000000E+00 -0.96981154521E+01  0.96981154521E+01  0.00000000000E+00 0. -1.
         25    2    1    2    0    0 -0.36536316328E+02  0.34653716098E+01  0.72913551460E+03  0.74069750342E+03  0.12508909510E+03 0.  0.
          5    1    3    3  502    0 -0.10838867169E+02  0.62055335907E+02  0.44235674825E+03  0.44683924501E+03  0.41800000000E+01 0.  1.
         -5    1    3    3    0  502 -0.25697449159E+02 -0.58589964297E+02  0.28677876635E+03  0.29385825841E+03  0.41800000000E+01 0.  1.
        -11    1    1    2    0    0  0.36750057453E+02  0.12732587380E+02  0.15012111188E+03  0.15507750880E+03  0.00000000000E+00 0.  1.
         11    1    1    2    0    0 -0.21374112502E+00 -0.16197958990E+02  0.44154142043E+02  0.47031987203E+02  0.00000000000E+00 0. -1.
</event>
<event>
 8    1  0.3896452E-010  0.1102892E+03  0.7561462E-02  0.1260035E+00
          2   -1    0    0  501    0  0.00000000000E+00  0.00000000000E+00  0.16897063938E+04  0.16897063938E+04  0.00000000000E+00 0. -1.
         -2   -1    0    0    0  501 -0.00000000000E+00 -0.00000000000E+00 -0.11226154061E+02  0.11226154061E+02  0.00000000000E+00 0.  1.
         25    2    1    2    0    0 -0.12070646529E+02 -0.34982388616E+02  0.12770571444E+04  0.12837023861E+04  0.12508956040E+03 0.  0.
         23    2    1    2    0    0  0.12070646529E+02  0.34982388616E+02  0.40142309536E+03  0.41723016173E+03  0.10756876103E+03 0.  0.
          5    1    3    3  502    0 -0.11170959371E+02  0.39863173750E+02  0.77105748306E+03  0.77217936876E+03  0.41800000000E+01 0. -1.
         -5    1    3    3    0  502 -0.89968715761E+00 -0.74845562366E+02  0.50599966130E+03  0.51152301735E+03  0.41800000000E+01 0. -1.
        -11    1    4    4    0    0 -0.23470706326E+02  0.57377803629E+02  0.31615456637E+03  0.32217510183E+03  0.00000000000E+00 0.  1.
         11    1    4    4    0    0  0.35541352855E+02 -0.22395415013E+02  0.85268528991E+02  0.95055059900E+02  0.00000000000E+00 0. -1.
</event>
<event>
 8    1  0.3896452E-010  0.1133023E+03  0.7561462E-02  0.1254574E+00
          2   -1    0    0  501    0  0.00000000000E+00  0.00000000000E+00  0.17515558937E+04  0.17515558937E+04  0.00000000000E+00 0. -1.
         -2   -1    0    0    0  501 -0.00000000000E+00 -0.00000000000E+00 -0.10977922337E+02  0.10977922337E+02  0.00000000000E+00 0.  1.
         25    2    1    2    0    0 -0.22203946363E+02  0.49968727583E+02  0.14702658289E+04  0.14765902800E+04  0.12508940135E+03 0.  0.
         23    2    1    2    0    0  0.22203946363E+02 -0.49968727583E+02  0.27031214243E+03  0.28594353602E+03  0.75532525959E+02 0.  0.
          5    1    3    3  502    0 -0.72323310695E+02  0.42147352429E+02  0.79380366555E+03  0.79821600612E+03  0.41800000000E+01 0.  1.
         -5    1    3    3    0  502  0.50119364333E+02  0.78213751549E+01  0.67646216338E+03  0.67837427389E+03  0.41800000000E+01 0.  1.
        -11    1    4    4    0    0  0.33289356750E+02 -0.65111236288E+02  0.23252305712E+03  0.24375115683E+03  0.00000000000E+00 0. -1.
         11    1    4    4    0    0 -0.11085410387E+02  0.15142508705E+02  0.37789085307E+02  0.42192379189E+02  0.00000000000E+00 0.  1.
</event>
<event>
 7    1  0.3896452E-010  0.9648326E+02  0.7561462E-02  0.1287870E+00
         -2   -1    0    0    0  501 -0.00000000000E+00  0.00000000000E+00  0.59076421106E+02  0.59076421106E+02  0.00000000000E+00 0.  1.
          2   -1    0    0  501    0  0.00000000000E+00 -0.00000000000E+00 -0.29249497918E+03  0.29249497918E+03  0.00000000000E+00 0. -1.
         25    2    1    2    0    0 -0.22314612896E+02  0.37276216974E+01 -0.10363352709E+03  0.16401105216E+03  0.12509148725E+03 0.  0.
          5    1    3    3  502    0 -0.70531751562E+02  0.10962898827E+02 -0.86355704704E+02  0.11211464340E+03  0.41800000000E+01 0.  1.
         -5    1    3    3    0  502  0.48217138666E+02 -0.72352771294E+01 -0.17277822389E+02  0.51896408766E+02  0.41800000000E+01 0.  1.
        -11    1    1    2    0    0  0.45133964332E+02 -0.14348484660E+02  0.75324794481E+01  0.47955103951E+02  0.00000000000E+00 0.  1.
         11    1    1    2    0    0 -0.22819351436E+02  0.10620862963E+02 -0.13731751043E+03  0.13960524417E+03  0.00000000000E+00 0. -1.
</event>
<event>
 8    1  0.4109105E-010  0.1872850E+03  0.7561462E-02  0.1160933E+00
         -2   -1    0    0    0  501 -0.00000000000E+00  0.00000000000E+00  0.17626223216E+03  0.17626223216E+03  0.00000000000E+00 0.  1.
          2   -1    0    0  501    0  0.00000000000E+00 -0.00000000000E+00 -0.26413542129E+03  0.26413542129E+03  0.00000000000E+00 0. -1.
         25    2    1    2    0    0  0.19794459498E+02 -0.16074241617E+03  0.53626179541E+02  0.21154580237E+03  0.12508362956E+03 0.  0.
         23    2    1    2    0    0 -0.19794459498E+02  0.16074241617E+03 -0.14149936867E+03  0.22885185109E+03  0.78237800511E+02 0.  0.
          5    1    3    3  502    0  0.34732089082E+02  0.61320353277E+01  0.19484468170E+02  0.40509712035E+02  0.41800000000E+01 0. -1.
         -5    1    3    3    0  502 -0.14937629584E+02 -0.16687445150E+03  0.34141711371E+02  0.17103609033E+03  0.41800000000E+01 0. -1.
        -11    1    4    4    0    0  0.19913369073E+02  0.56979473852E+02 -0.18558644634E+02  0.63147652363E+02  0.00000000000E+00 0.  1.
         11    1    4    4    0    0 -0.39707828571E+02  0.10376294232E+03 -0.12294072403E+03  0.16570419872E+03  0.00000000000E+00 0. -1.
</event>
<event>
 8    1  0.3896452E-010  0.8998214E+02  0.7561462E-02  0.1302895E+00
         -2   -1    0    0    0  501 -0.00000000000E+00  0.00000000000E+00  0.11155047797E+03  0.11155047797E+03  0.00000000000E+00 0.  1.
          2   -1    0    0  501    0  0.00000000000E+00 -0.00000000000E+00 -0.18559098078E+03  0.18559098078E+03  0.00000000000E+00 0. -1.
         25    2    1    2    0    0  0.26218703968E+02  0.14017038285E+02  0.28429557439E+02  0.13168053386E+03  0.12509046911E+03 0.  0.
         23    2    1    2    0    0 -0.26218703968E+02 -0.14017038285E+02 -0.10247006025E+03  0.16546092488E+03  0.12646464572E+03 0.  0.
          5    1    3    3  502    0 -0.33087283929E+02  0.45895270849E+02 -0.39134548357E+01  0.56867668960E+02  0.41800000000E+01 0.  1.
         -5    1    3    3    0  502  0.59305987897E+02 -0.31878232564E+02  0.32343012275E+02  0.74812864902E+02  0.41800000000E+01 0.  1.
        -11    1    4    4    0    0 -0.81542410562E+01 -0.30344704576E+02  0.22176050835E+02  0.38458678782E+02  0.00000000000E+00 0.  1.
         11    1    4    4    0    0 -0.18064462912E+02  0.16327666291E+02 -0.12464611108E+03  0.12700224610E+03  0.00000000000E+00 0. -1.
</event>
<event>
 8    1  0.3896452E-010  0.1109152E+03  0.7561462E-02  0.1258884E+00
         -1   -1    0    0    0  501 -0.00000000000E+00  0.00000000000E+00  0.10792733286E+03  0.10792733286E+03  0.00000000000E+00 0.  1.
          1   -1    0    0  501    0  0.00000000000E+00 -0.00000000000E+00 -0.18157580743E+03  0.18157580743E+03  0.00000000000E+00 0. -1.
         25    2    1    2    0    0 -0.59317293354E+02 -0.47208253474E+02 -0.32219451291E+02  0.14977963999E+03  0.12509471222E+03 0.  0.
         23    2    1    2    0    0  0.59317293354E+02  0.47208253474E+02 -0.41429023287E+02  0.13972350030E+03  0.10981407960E+03 0.  0.
          5    1    3    3  502    0  0.23571829010E+02  0.11306119882E+02 -0.39962531479E+02  0.47936789545E+02  0.41800000000E+01 0. -1.
         -5    1    3    3    0  502 -0.82889122364E+02 -0.58514373356E+02  0.77430801880E+01  0.10184285044E+03  0.41800000000E+01 0. -1.
        -11    1    4    4    0    0  0.37778036559E+02  0.58384624610E+02 -0.72393658328E+02  0.10038319682E+03  0.00000000000E+00 0. -1.
         11    1    4    4    0    0  0.21539256795E+02 -0.11176371137E+02  0.30964635041E+02  0.39340303485E+02  0.00000000000E+00 0.  1.
</event>
<event>
 7    1  0.3896452E-010  0.1906627E+03  0.7561462E-02  0.1157865E+00
         -3   -1    0    0    0  501 -0.00000000000E+00  0.00000000000E+00  0.23894048842E+03  0.23894048842E+03  0.00000000000E+00 0. -1.
          3   -1    0    0  501    0  0.00000000000E+00 -0.00000000000E+00 -0.26408207392E+03  0.26408207392E+03  0.00000000000E+00 0.  1.
         25    2    1    2    0    0 -0.11211677026E+03 -0.13102863319E+03 -0.83622626468E+02  0.22886414497E+03  0.12508948919E+03 0.  0.
          5    1    3    3  502    0 -0.92882571290E+02 -0.12389114066E+03 -0.13274762096E+02  0.15546664752E+03  0.41800000000E+01 0. -1.
         -5    1    3    3    0  502 -0.19234198968E+02 -0.71374925349E+01 -0.70347864372E+02  0.73397497446E+02  0.41800000000E+01 0. -1.
        -11    1    1    2    0    0  0.12326584932E+03  0.14322472840E+03 -0.23597785726E+02  0.19043279110E+03  0.00000000000E+00 0.  1.
         11    1    1    2    0    0 -0.11149079063E+02 -0.12196095213E+02  0.82078826699E+02  0.83725626272E+02  0.00000000000E+00 0. -1.
</event>
<event>
 8    1  0.3896452E-010  0.1362003E+03  0.7561462E-02  0.1218535E+00
         -2   -1    0    0    0  501 -0.00000000000E+00  0.00000000000E+00  0.42281579400E+02  0.42281579400E+02  0.00000000000E+00 0.  1.
          2   -1    0    0  501    0  0.00000000000E+00 -0.00000000000E+00 -0.46284841300E+03  0.46284841300E+03  0.00000000000E+00 0. -1.
         25    2    1    2    0    0  0.87784246990E+02  0.31287452588E+02 -0.18667366869E+03  0.24326879301E+03  0.12509064057E+03 0.  0.
         23    2    1    2    0    0 -0.87784246990E+02 -0.31287452588E+02 -0.23389316491E+03  0.26186119940E+03  0.71974276294E+02 0.  0.
          5    1    3    3  502    0  0.25604202320E+02  0.74591352547E+02 -0.80580163789E+02  0.11282765728E+03  0.41800000000E+01 0. -1.
         -5    1    3    3    0  502  0.62180044669E+02 -0.43303899959E+02 -0.10609350490E+03  0.13044113572E+03  0.41800000000E+01 0. -1.
        -11    1    4    4    0    0 -0.53486555707E+02 -0.54313030732E+02 -0.15907990368E+03  0.17640048952E+03  0.00000000000E+00 0.  1.
         11    1    4    4    0    0 -0.34297691283E+02  0.23025578144E+02 -0.74813261230E+02  0.85460709874E+02  0.00000000000E+00 0. -1.
</event>
<event>
 8    1  0.3896452E-010  0.2355719E+03  0.7561462E-02  0.1122778E+00
         -2   -1    0    0    0  501 -0.00000000000E+00  0.00000000000E+00  0.11429514063E+03  0.11429514063E+03  0.00000000000E+00 0. -1.
          2   -1    0    0  501    0  0.00000000000E+00 -0.00000000000E+00 -0.52728056033E+03  0.52728056033E+03  0.00000000000E+00 0.  1.
         25    2    1    2    0    0 -0.14895243302E+03  0.15967075325E+03 -0.15752267368E+03  0.29688422832E+03  0.12508107594E+03 0.  0.
         23    2    1    2    0    0  0.14895243302E+03 -0.15967075325E+03 -0.25546274602E+03  0.34469147264E+03  0.76612139776E+02 0.  0.
          5    1    3    3  502    0 -0.40353885118E+02 -0.15022820264E+02 -0.44839244241E+02  0.62306912914E+02  0.41800000000E+01 0. -1.
         -5    1    3    3    0  502 -0.10859854790E+03  0.17469357352E+03 -0.11268342944E+03  0.23457731541E+03  0.41800000000E+01 0. -1.
        -11    1    4    4    0    0  0.67794914723E+02 -0.10241253839E+03 -0.92141432815E+02  0.15353996914E+03  0.00000000000E+00 0. -1.
         11    1    4    4    0    0  0.81157518295E+02 -0.57258214868E+02 -0.16332131320E+03  0.19115150350E+03  0.00000000000E+00 0.  1.
</event>
<event>
 7    1  0.3896452E-010  0.1650598E+03  0.7561462E-02  0.1183100E+00
         -2   -1    0    0    0  501 -0.00000000000E+00  0.00000000000E+00  0.27555250207E+03  0.27555250207E+03  0.00000000000E+00 0.  1.
          2   -1    0    0  501    0  0.00000000000E+00 -0.00000000000E+00 -0.13714907656E+03  0.13714907656E+03  0.00000000000E+00 0. -1.
         25    2    1    2    0    0 -0.21469985291E+02  0.13534129896E+03  0.12511369424E+03  0.22378307608E+03  0.12508877321E+03 0.  0.
          5    1    3    3  502    0  0.26075147113E+02 -0.12283196161E+02  0.29940210292E+02  0.41769352368E+02  0.41800000000E+01 0. -1.
         -5    1    3    3    0  502 -0.47545132404E+02  0.14762449512E+03  0.95173483946E+02  0.18201372371E+03  0.41800000000E+01 0. -1.
        -11    1    1    2    0    0  0.35095051066E+02 -0.61943467696E+02  0.66359529442E+02  0.97325448610E+02  0.00000000000E+00 0.  1.
         11    1    1    2    0    0 -0.13625065774E+02 -0.73397831261E+02 -0.53069798171E+02  0.91593053935E+02  0.00000000000E+00 0. -1.
</event>
<event>
 8    1  0.3896452E-010  0.2113167E+03  0.7561462E-02  0.1140528E+00
         -1   -1    0    0    0  501 -0.00000000000E+00  0.00000000000E+00  0.55906749994E+02  0.55906749994E+02  0.00000000000E+00 0.  1.
          1   -1    0    0  501    0  0.00000000000E+00 -0.00000000000E+00 -0.98228257476E+03  0.98228257476E+03  0.00000000000E+00 0. -1.
         25    2    1    2    0    0 -0.17948984518E+03 -0.10831306842E+03 -0.44144842690E+03  0.50445401919E+03  0.12509523793E+03 0.  0.
         23    2    1    2    0    0  0.17948984518E+03  0.10831306842E+03 -0.48492739786E+03  0.53373530556E+03  0.75963608998E+02 0.  0.
          5    1    3    3  502    0 -0.16529235983E+02 -0.42550476504E+01 -0.17139560800E+03  0.17229407394E+03  0.41800000000E+01 0.  1.
         -5    1    3    3    0  502 -0.16296060919E+03 -0.10405802077E+03 -0.27005281891E+03  0.33215994526E+03  0.41800000000E+01 0.  1.
        -11    1    4    4    0    0  0.69124676378E+02  0.58598601908E+02 -0.29419224177E+03  0.30783289646E+03  0.00000000000E+00 0. -1.
         11    1    4    4    0    0  0.11036516880E+03  0.49714466507E+02 -0.19073515609E+03  0.22590240909E+03  0.00000000000E+00 0.  1.
</event>
<event>
 8    1  0.3896452E-010  0.1233366E+03  0.7561462E-02  0.1237692E+00
          2   -1    0    0  501    0  0.00000000000E+00  0.00000000000E+00  0.12978496616E+04  0.12978496616E+04  0.00000000000E+00 0.  1.
         -2   -1    0    0    0  501 -0.00000000000E+00 -0.00000000000E+00 -0.13587179761E+02  0.13587179761E+02  0.00000000000E+00 0. -1.
         25    2    1    2    0    0 -0.12778879738E+02 -0.75967440612E+02  0.93775942858E+03  0.94919638209E+03  0.12508666628E+03 0.  0.
         23    2    1    2    0    0  0.12778879738E+02  0.75967440612E+02  0.34650305325E+03  0.36224045926E+03  0.72245640796E+02 0.  0.
          5    1    3    3  502    0 -0.31340902902E+02 -0.10630665581E+03  0.68786830862E+03  0.69675220823E+03  0.41800000000E+01 0. -1.
         -5    1    3    3    0  502  0.18562023164E+02  0.30339215198E+02  0.24989111996E+03  0.25244417386E+03  0.41800000000E+01 0. -1.
        -11    1    4    4    0    0 -0.25840627262E+02  0.36616387141E+02  0.99015845403E+02  0.10868594879E+03  0.00000000000E+00 0.  1.
         11    1    4    4    0    0  0.38619507000E+02  0.39351053472E+02  0.24748720784E+03  0.25355451046E+03  0.00000000000E+00 0. -1.
</event>
<event>
 8    1  0.3896452E-010  0.1153356E+03  0.7561462E-02  0.1250996E+00
          1   -1    0    0  501    0  0.00000000000E+00  0.00000000000E+00  0.99103902436E+03  0.99103902436E+03  0.00000000000E+00 0. -1.
         -1   -1    0    0    0  501 -0.00000000000E+00 -0.00000000000E+00 -0.20335106019E+02  0.20335106019E+02  0.00000000000E+00 0.  1.
         25    2    1    2    0    0 -0.49040815258E+02  0.24624994701E+02  0.71810904053E+03  0.73098545866E+03  0.12509098595E+03 0.  0.
         23    2    1    2    0    0  0.49040815258E+02 -0.24624994701E+02  0.25259487782E+03  0.28038867172E+03  0.10863812869E+03 0.  0.
          5    1    3    3  502    0 -0.78064603833E+02  0.26473116611E+02  0.66656313766E+03  0.67165377775E+03  0.41800000000E+01 0.  1.
         -5    1    3    3    0  502  0.29023788576E+02 -0.18481219105E+01  0.51545902865E+02  0.59331680914E+02  0.41800000000E+01 0.  1.
        -11    1    4    4    0    0 -0.32713223823E+02  0.19946630953E+01  0.44797493619E+02  0.55506298096E+02  0.00000000000E+00 0.  1.
         11    1    4    4    0    0  0.81754039081E+02 -0.26619657796E+02  0.20779738420E+03  0.22488237362E+03  0.00000000000E+00 0. -1.
</event>
<event>
 8    1  0.3896452E-010  0.1269123E+03  0.7561462E-02  0.1232111E+00
          1   -1    0    0  501    0  0.00000000000E+00  0.00000000000E+00  0.21022329699E+03  0.21022329699E+03  0.00000000000E+00 0. -1.
         -1   -1    0    0    0  501 -0.00000000000E+00 -0.00000000000E+00 -0.10259089827E+03  0.10259089827E+03  0.00000000000E+00 0.  1.
         25    2    1    2    0    0  0.60449882721E+02  0.31074556525E+02  0.11664322467E+03  0.18404273652E+03  0.12508505354E+03 0.  0.
         23    2    1    2    0    0 -0.60449882721E+02 -0.31074556525E+02 -0.90108259570E+01  0.12877145874E+03  0.10900035421E+03 0.  0.
          5    1    3    3  502    0  0.80467994494E+02  0.52211706526E+02  0.12083350714E+03  0.15433524965E+03  0.41800000000E+01 0.  1.
         -5    1    3    3    0  502 -0.20018111773E+02 -0.21137150001E+02 -0.41902824679E+01  0.29707486872E+02  0.41800000000E+01 0.  1.
        -11    1    4    4    0    0 -0.81457843431E+02 -0.53668854562E+02 -0.52282331423E+01  0.97688590062E+02  0.00000000000E+00 0. -1.
         11    1    4    4    0    0  0.21007960710E+02  0.22594298037E+02 -0.37825928147E+01  0.31082868680E+02  0.00000000000E+00 0.  1.
</event>
<event>
 8    1  0.3997619E-010  0.8766947E+02  0.7561462E-02  0.1308596E+00
         -2   -1    0    0    0  501 -0.00000000000E+00  0.00000000000E+00  0.10104125674E+03  0.10104125674E+03  0.00000000000E+00 0.  1.
          2   -1    0    0  501    0  0.00000000000E+00 -0.00000000000E+00 -0.14736088679E+03  0.14736088679E+03  0.00000000000E+00 0. -1.
         25    2    1    2    0    0  0.28224236253E+02 -0.19708630366E+02 -0.43490457518E+02  0.13682864164E+03  0.12508245143E+03 0.  0.
         23    2    1    2    0    0 -0.28224236253E+02  0.19708630366E+02 -0.28291725323E+01  0.11157350189E+03  0.10609243368E+03 0.  0.
          5    1    3    3  502    0  0.13081837709E+02 -0.71599175292E+02 -0.11296605256E+02  0.73774399832E+02  0.41800000000E+01 0.  1.
         -5    1    3    3    0  502  0.15142398544E+02  0.51890544926E+02 -0.32193852262E+02  0.63054241807E+02  0.41800000000E+01 0.  1.
        -11    1    4    4    0    0 -0.39238843096E+01 -0.94672188181E+01 -0.49988483386E+02  0.51028164493E+02  0.00000000000E+00 0. -1.
         11    1    4    4    0    0 -0.24300351943E+02  0.29175849184E+02  0.47159310854E+02  0.60545337396E+02  0.00000000000E+00 0.  1.
</event>
<event>
 7    1  0.3896452E-010  0.7694568E+02  0.7561462E-02  0.1337950E+00
         -1   -1    0    0    0  501 -0.00000000000E+00  0.00000000000E+00  0.11626876207E+03  0.11626876207E+03  0.00000000000E+00 0.  1.
          1   -1    0    0  501    0  0.00000000000E+00 -0.00000000000E+00 -0.18778248542E+03  0.18778248542E+03  0.00000000000E+00 0. -1.
         25    2    1    2    0    0  0.31285141486E+02 -0.23242984717E+02 -0.77227566165E+02  0.15208625479E+03  0.12508851067E+03 0.  0.
          5    1    3    3  502    0  0.33693212964E+02 -0.89808898642E+01 -0.11029573810E+03  0.11575193832E+03  0.41800000000E+01 0.  1.
         -5    1    3    3    0  502 -0.24080714782E+01 -0.14262094853E+02  0.33068171934E+02  0.36334316464E+02  0.41800000000E+01 0.  1.
        -11    1    1    2    0    0  0.34228434525E+02  0.80128220882E-01  0.56387275109E+02  0.65962996784E+02  0.00000000000E+00 0.  1.
         11    1    1    2    0    0 -0.65513576011E+02  0.23162856496E+02 -0.50673432290E+02  0.86001995924E+02  0.00000000000E+00 0. -1.
</event>
<event>
 8    1  0.3896452E-010  0.7279981E+02  0.7561462E-02  0.1350823E+00
          1   -1    0    0  501    0  0.00000000000E+00  0.00000000000E+00  0.21660934034E+03  0.21660934034E+03  0.00000000000E+00 0. -1.
         -1   -1    0    0    0  501 -0.00000000000E+00 -0.00000000000E+00 -0.92726544592E+02  0.92726544592E+02  0.00000000000E+00 0.  1.
         25    2    1    2    0    0 -0.44816267663E+02  0.38538600689E+02  0.16229173608E+03  0.21326770673E+03  0.12510309965E+03 0.  0.
         23    2    1    2    0    0  0.44816267663E+02 -0.38538600689E+02 -0.38408940329E+02  0.96068178209E+02  0.65269645141E+02 0.  0.
          5    1    3    3  502    0 -0.42094671961E+01  0.20317498286E+01 -0.21027821899E+02  0.21942864792E+02  0.41800000000E+01 0.  1.
         -5    1    3    3    0  502 -0.40606800467E+02  0.36506850861E+02  0.18331955798E+03  0.19132484194E+03  0.41800000000E+01 0.  1.
        -11    1    4    4    0    0  0.18703722229E+02 -0.51946451168E+02 -0.37421277784E+02  0.66697938837E+02  0.00000000000E+00 0. -1.
         11    1    4    4    0    0  0.26112545434E+02  0.13407850478E+02 -0.98766254553E+00  0.29370239372E+02  0.00000000000E+00 0.  1.
</event>
<event>
 8    1  0.3896452E-010  0.1371405E+03  0.7561462E-02  0.1217229E+00
          2   -1    0    0  501    0  0.00000000000E+00  0.00000000000E+00  0.13512100290E+03  0.13512100290E+03  0.00000000000E+00 0. -1.
         -2   -1    0    0    0  501 -0.00000000000E+00 -0.00000000000E+00 -0.26604755131E+03  0.26604755131E+03  0.00000000000E+00 0.  1.
         25    2    1    2    0    0  0.19216332537E+02 -0.10135375197E+03  0.48108221291E+02  0.16912623165E+03  0.12508969103E+03 0.  0.
         23    2    1    2    0    0 -0.19216332537E+02  0.10135375197E+03 -0.17903476971E+03  0.23204232255E+03  0.10558570082E+03 0.  0.
          5    1    3    3  502    0  0.15902020220E+02 -0.11539726369E+03  0.74798979722E+02  0.13849823999E+03  0.41800000000E+01 0.  1.
         -5    1    3    3    0  502  0.33143123175E+01  0.14043511718E+02 -0.26690758430E+02  0.30627991660E+02  0.41800000000E+01 0.  1.
        -11    1    4    4    0    0 -0.38717360292E+02 -0.77167141459E+00 -0.24625927663E+02  0.45891892291E+02  0.00000000000E+00 0. -1.
         11    1    4    4    0    0  0.19501027755E+02  0.10212542339E+03 -0.15440884205E+03  0.18615043026E+03  0.00000000000E+00 0.  1.
</event>
<event>
 8    1  0.3896452E-010  0.1730552E+03  0.7561462E-02  0.1174699E+00
          1   -1    0    0  501    0  0.00000000000E+00  0.00000000000E+00  0.13144808345E+04  0.13144808345E+04  0.00000000000E+00 0. -1.
         -1   -1    0    0    0  501 -0.00000000000E+00 -0.00000000000E+00 -0.27170541607E+02  0.27170541607E+02  0.00000000000E+00 0.  1.
         25    2    1    2    0    0 -0.10681757812E+03  0.11023582099E+03  0.51469048701E+03  0.55146661700E+03  0.12508877258E+03 0.  0.
         23    2    1    2    0    0  0.10681757812E+03 -0.11023582099E+03  0.77261980593E+03  0.79018475915E+03  0.62359103968E+02 0.  0.
          5    1    3    3  502    0 -0.77860182286E+02  0.12591728159E+03  0.30378463672E+03  0.33796441779E+03  0.41800000000E+01 0.  1.
         -5    1    3    3    0  502 -0.28957395839E+02 -0.15681460600E+02  0.21090585029E+03  0.21350219921E+03  0.41800000000E+01 0.  1.
        -11    1    4    4    0    0 -0.87258505907E+00 -0.31244738741E+02  0.11721914316E+03  0.12131497280E+03  0.00000000000E+00 0.  1.
         11    1    4    4    0    0  0.10769016318E+03 -0.78991082253E+02  0.65540066278E+03  0.66886978635E+03  0.00000000000E+00 0. -1.
</event>
<event>
 8    1  0.3896452E-010  0.1404934E+03  0.7561462E-02  0.1212667E+00
         -2   -1    0    0    0  501 -0.00000000000E+00  0.00000000000E+00  0.15881411295E+02  0.15881411295E+02  0.00000000000E+00 0.  1.
          2   -1    0    0  501    0  0.00000000000E+00 -0.00000000000E+00 -0.12758701469E+04  0.12758701469E+04  0.00000000000E+00 0. -1.
         25    2    1    2    0    0  0.79897277568E+01  0.99714700851E+02 -0.70671142600E+03  0.72463540614E+03  0.12509426398E+03 0.  0.
         23    2    1    2    0    0 -0.79897277568E+01 -0.99714700851E+02 -0.55327730960E+03  0.56711615205E+03  0.74149115168E+02 0.  0.
          5    1    3    3  502    0 -0.38070020467E+01  0.12749155920E+03 -0.61126567178E+03  0.62444518161E+03  0.41800000000E+01 0.  1.
         -5    1    3    3    0  502  0.11796729804E+02 -0.27776858354E+02 -0.95445754218E+02  0.10019022453E+03  0.41800000000E+01 0.  1.
        -11    1    4    4    0    0 -0.39820649447E+02 -0.59914749451E+02 -0.27776822219E+03  0.28693317442E+03  0.00000000000E+00 0.  1.
         11    1    4    4    0    0  0.31830921690E+02 -0.39799951400E+02 -0.27550908741E+03  0.28018297762E+03  0.00000000000E+00 0. -1.
</event>
<event>
 8    1  0.3896452E-010  0.1412594E+03  0.7561462E-02  0.1211644E+00
          2   -1    0    0  501    0  0.00000000000E+00  0.00000000000E+00  0.12747301194E+03  0.12747301194E+03  0.00000000000E+00 0. -1.
         -2   -1    0    0    0  501 -0.00000000000E+00 -0.00000000000E+00 -0.18785849619E+03  0.18785849619E+03  0.00000000000E+00 0.  1.
         25    2    1    2    0    0  0.30237094021E+02  0.10827670394E+03 -0.55903061756E+01  0.16827208728E+03  0.12508444092E+03 0.  0.
         23    2    1    2    0    0 -0.30237094021E+02 -0.10827670394E+03 -0.54795178075E+02  0.14705942086E+03  0.77368179838E+02 0.  0.
          5    1    3    3  502    0 -0.20671717438E+01  0.12129559462E+03  0.22350185035E+02  0.12342567660E+03  0.41800000000E+01 0.  1.
         -5    1    3    3    0  502  0.32304265765E+02 -0.13018890679E+02 -0.27940491211E+02  0.44846410673E+02  0.41800000000E+01 0.  1.
        -11    1    4    4    0    0  0.16722102065E+02 -0.38189713682E+02  0.72763876961E+01  0.42320547568E+02  0.00000000000E+00 0. -1.
         11    1    4    4    0    0 -0.46959196086E+02 -0.70086990263E+02 -0.62071565771E+02  0.10473887329E+03  0.00000000000E+00 0.  1.
</event>
<event>
 8    1  0.3896452E-010  0.9741404E+02  0.7561462E-02  0.1285830E+00
          1   -1    0    0  501    0  0.00000000000E+00  0.00000000000E+00  0.33881790180E+03  0.33881790180E+03  0.00000000000E+00 0. -1.
         -1   -1    0    0    0  501 -0.00000000000E+00 -0.00000000000E+00 -0.30648005841E+02  0.30648005841E+02  0.00000000000E+00 0.  1.
         25    2    1    2    0    0  0.80926906286E+01 -0.85817082216E+01  0.17870850692E+03  0.21845787577E+03  0.12509186898E+03 0.  0.
         23    2    1    2    0    0 -0.80926906286E+01  0.85817082216E+01  0.12946138904E+03  0.15100803187E+03  0.76837732132E+02 0.  0.
          5    1    3    3  502    0  0.45237266227E+02 -0.46529609391E+02  0.13388283817E+03  0.14884052392E+03  0.41800000000E+01 0.  1.
         -5    1    3    3    0  502 -0.37144575598E+02  0.37947901170E+02  0.44825668750E+02  0.69617351849E+02  0.41800000000E+01 0.  1.
        -11    1    4    4    0    0  0.29971194257E+02 -0.13119577213E+02  0.68741289923E+02  0.76129893812E+02  0.00000000000E+00 0.  1.
         11    1    4    4    0    0 -0.38063884886E+02  0.21701285435E+02  0.60720099117E+02  0.74878138057E+02  0.00000000000E+00 0. -1.
</event>
<event>
 8    1  0.3896452E-010  0.1101010E+03  0.7561462E-02  0.1260383E+00
          4   -1    0    0  501    0  0.00000000000E+00  0.00000000000E+00  0.13239510466E+03  0.13239510466E+03  0.00000000000E+00 0. -1.
         -4   -1    0    0    0  501 -0.00000000000E+00 -0.00000000000E+00 -0.11014669561E+03  0.11014669561E+03  0.00000000000E+00 0.  1.
         25    2    1    2    0    0 -0.46571209671E+02 -0.46155510601E+02  0.64340157694E+00  0.14123389018E+03  0.12508952411E+03 0.  0.
         23    2    1    2    0    0  0.46571209671E+02  0.46155510601E+02  0.21605007478E+02  0.10130791009E+03  0.74143830287E+02 0.  0.
          5    1    3    3  502    0 -0.75905690424E+02 -0.50739371336E+02  0.32951355437E+02  0.97156687199E+02  0.41800000000E+01 0. -1.
         -5    1    3    3    0  502  0.29334480753E+02  0.45838607350E+01 -0.32307953860E+02  0.44077202984E+02  0.41800000000E+01 0. -1.
        -11    1    4    4    0    0  0.29383677571E+02  0.66192792403E+02  0.18340990682E+02  0.74707952809E+02  0.00000000000E+00 0.  1.
         11    1    4    4    0    0  0.17187532100E+02 -0.20037281802E+02  0.32640167960E+01  0.26599957281E+02  0.00000000000E+00 0. -1.
</event>
<event>
 8    1  0.3896452E-010  0.5200725E+02  0.7561462E-02  0.1434806E+00
          2   -1    0    0  501    0  0.00000000000E+00  0.00000000000E+00  0.89709249767E+02  0.89709249767E+02  0.00000000000E+00 0. -1.
         -2   -1    0    0    0  501 -0.00000000000E+00 -0.00000000000E+00 -0.95864380497E+02  0.95864380497E+02  0.00000000000E+00 0.  1.
         25    2    1    2    0    0 -0.62194140882E+01 -0.41334477867E+01 -0.12618512080E+02  0.12595107708E+03  0.12509468601E+03 0.  0.
         23    2    1    2    0    0  0.62194140882E+01  0.41334477867E+01  0.64633813504E+01  0.59622553188E+02  0.58798869445E+02 0.  0.
          5    1    3    3  502    0  0.26216842196E+02  0.27489592056E+01  0.49031420046E+02  0.55825013598E+02  0.41800000000E+01 0. -1.
         -5    1    3    3    0  502 -0.32436256284E+02 -0.68824069923E+01 -0.61649932126E+02  0.70126063478E+02  0.41800000000E+01 0. -1.
        -11    1    4    4    0    0 -0.38780362969E+01 -0.18615176491E+02  0.22923262196E+02  0.29783215256E+02  0.00000000000E+00 0.  1.
         11    1    4    4    0    0  0.10097450385E+02  0.22748624277E+02 -0.16459880845E+02  0.29839337932E+02  0.00000000000E+00 0. -1.
</event>
<event>
 8    1  0.3896452E-010  0.5052157E+02  0.7561462E-02  0.1442548E+00
          2   -1    0    0  501    0  0.00000000000E+00  0.00000000000E+00  0.18157979626E+03  0.18157979626E+03  0.00000000000E+00 0. -1.
         -2   -1    0    0    0  501 -0.00000000000E+00 -0.00000000000E+00 -0.48771128007E+02  0.48771128007E+02  0.00000000000E+00 0.  1.
         25    2    1    2    0    0 -0.79265166087E+01 -0.15878030985E+02  0.71407400832E+02  0.14512753004E+03  0.12509213224E+03 0.  0.
         23    2    1    2    0    0  0.79265166087E+01  0.15878030985E+02  0.61401267420E+02  0.85223394231E+02  0.56373484458E+02 0.  0.
          5    1    3    3  502    0  0.94148449527E+01  0.20948728496E+02  0.95046036782E+02  0.97870884532E+02  0.41800000000E+01 0. -1.
         -5    1    3    3    0  502 -0.17341361561E+02 -0.36826759481E+02 -0.23638635950E+02  0.47256645504E+02  0.41800000000E+01 0. -1.
        -11    1    4    4    0    0 -0.90291899819E+01  0.17554883326E+02 -0.17459632771E+01  0.19817885560E+02  0.00000000000E+00 0.  1.
         11    1    4    4    0    0  0.16955706591E+02 -0.16768523409E+01  0.63147230697E+02  0.65405508671E+02  0.00000000000E+00 0. -1.
</event>
<event>
 8    1  0.3896452E-010  0.9862026E+02  0.7561462E-02  0.1283224E+00
          3   -1    0    0  501    0  0.00000000000E+00  0.00000000000E+00  0.70088151029E+02  0.70088151029E+02  0.00000000000E+00 0. -1.
         -3   -1    0    0    0  501 -0.00000000000E+00 -0.00000000000E+00 -0.24361016434E+03  0.24361016434E+03  0.00000000000E+00 0.  1.
         25    2    1    2    0    0  0.45441948370E+02 -0.31906413949E+02 -0.60612614874E+02  0.14967833706E+03  0.12508687214E+03 0.  0.
         23    2    1    2    0    0 -0.45441948370E+02  0.31906413949E+02 -0.11290939843E+03  0.16401997830E+03  0.10521896742E+03 0.  0.
          5    1    3    3  502    0 -0.52885848618E+01  0.38961937266E+02 -0.46914303697E+02  0.61354918113E+02  0.41800000000E+01 0. -1.
         -5    1    3    3    0  502  0.50730533232E+02 -0.70868351215E+02 -0.13698311178E+02  0.88323418950E+02  0.41800000000E+01 0. -1.
        -11    1    4    4    0    0 -0.50138938840E+02  0.14178036878E+02 -0.12931207512E+03  0.13941500166E+03  0.00000000000E+00 0.  1.
         11    1    4    4    0    0  0.46969904705E+01  0.17728377071E+02  0.16402676684E+02  0.24604976639E+02  0.00000000000E+00 0. -1.
</event>
<event>
 8    1  0.3896452E-010  0.1408552E+03  0.7561462E-02  0.1212183E+00
          1   -1    0    0  501    0  0.00000000000E+00  0.00000000000E+00  0.11834997705E+03  0.11834997705E+03  0.00000000000E+00 0. -1.
         -1   -1    0    0    0  501 -0.00000000000E+00 -0.00000000000E+00 -0.24669013718E+03  0.24669013718E+03  0.00000000000E+00 0.  1.
         25    2    1    2    0    0 -0.11735303529E+03  0.13400135554E+02  0.69823270578E+01  0.17218468160E+03  0.12509002024E+03 0.  0.
         23    2    1    2    0    0  0.11735303529E+03 -0.13400135554E+02 -0.13532248719E+03  0.19285543263E+03  0.70212134487E+02 0.  0.
          5    1    3    3  502    0 -0.48392484707E+02 -0.48494984142E+02 -0.26490698510E+02  0.73571907483E+02  0.41800000000E+01 0.  1.
         -5    1    3    3    0  502 -0.68960550585E+02  0.61895119696E+02  0.33473025568E+02  0.98612774121E+02  0.41800000000E+01 0.  1.
        -11    1    4    4    0    0  0.87909856731E+02 -0.19966242347E+02 -0.51617528899E+02  0.10388052288E+03  0.00000000000E+00 0. -1.
         11    1    4    4    0    0  0.29443178560E+02  0.65661067933E+01 -0.83704958289E+02  0.88974909746E+02  0.00000000000E+00 0.  1.
</event>
<event>
 7    1  0.3896452E-010  0.1864576E+03  0.7561462E-02  0.1161696E+00
          1   -1    0    0  501    0  0.00000000000E+00  0.00000000000E+00  0.45052818438E+02  0.45052818438E+02  0.00000000000E+00 0. -1.
         -1   -1    0    0    0  501 -0.00000000000E+00 -0.00000000000E+00 -0.99888307118E+03  0.99888307118E+03  0.00000000000E+00 0.  1.
         25    2    1    2    0    0 -0.14160138340E+03 -0.35361068216E+02 -0.57087684814E+03  0.60236971932E+03  0.12509015183E+03 0.  0.
          5    1    3    3  502    0 -0.12303935605E+03 -0.54770789864E+02 -0.55450085480E+03  0.57063753200E+03  0.41800000000E+01 0.  1.
         -5    1    3    3    0  502 -0.18562027359E+02  0.19409721648E+02 -0.16375993344E+02  0.31732187321E+02  0.41800000000E+01 0.  1.
        -11    1    1    2    0    0  0.13630162054E+03  0.85286220138E+02 -0.33749656460E+03  0.37383927325E+03  0.00000000000E+00 0.  1.
         11    1    1    2    0    0  0.52997628660E+01 -0.49925151922E+02 -0.45456840004E+02  0.67726897050E+02  0.00000000000E+00 0. -1.
</event>
<event>
 8    1  0.3896452E-010  0.1239030E+03  0.7561462E-02  0.1236794E+00
          2   -1    0    0  501    0  0.00000000000E+00  0.00000000000E+00  0.15949463668E+03  0.15949463668E+03  0.00000000000E+00 0. -1.
         -2   -1    0    0    0  501 -0.00000000000E+00 -0.00000000000E+00 -0.20532934083E+03  0.20532934083E+03  0.00000000000E+00 0.  1.
         25    2    1    2    0    0  0.77576119625E+02 -0.50593149444E+02  0.93990374324E+02  0.18182214356E+03  0.12508948923E+03 0.  0.
         23    2    1    2    0    0 -0.77576119625E+02  0.50593149444E+02 -0.13982507848E+03  0.18300183395E+03  0.73218150419E+02 0.  0.
          5    1    3    3  502    0 -0.29699599846E+02 -0.12697890844E+02  0.50203970863E+02  0.59843243171E+02  0.41800000000E+01 0.  1.
         -5    1    3    3    0  502  0.10727571947E+03 -0.37895258600E+02  0.43786403462E+02  0.12197890039E+03  0.41800000000E+01 0.  1.
        -11    1    4    4    0    0 -0.22987628774E+02 -0.49448079651E+01 -0.65144758186E+00  0.23522469820E+02  0.00000000000E+00 0. -1.
         11    1    4    4    0    0 -0.54588490851E+02  0.55537957409E+02 -0.13917363089E+03  0.15947936413E+03  0.00000000000E+00 0.  1.
</event>
<event>
 8    1  0.3896452E-010  0.2403601E+03  0.7561462E-02  0.1119553E+00
          2   -1    0    0  501    0  0.00000000000E+00  0.00000000000E+00  0.10785633988E+04  0.10785633988E+04  0.00000000000E+00 0. -1.
         -2   -1    0    0    0  501 -0.00000000000E+00 -0.00000000000E+00 -0.60580963587E+02  0.60580963587E+02  0.00000000000E+00 0.  1.
         25    2    1    2    0    0  0.20752533452E+03  0.96348069461E+02  0.42382549883E+03  0.49761997619E+03  0.12509145570E+03 0.  0.
         23    2    1    2    0    0 -0.20752533452E+03 -0.96348069461E+02  0.59415693640E+03  0.64152438621E+03  0.78621613320E+02 0.  0.
          5    1    3    3  502    0  0.13439812166E+03  0.11958213399E+02  0.14961020937E+03  0.20151064766E+03  0.41800000000E+01 0.  1.
         -5    1    3    3    0  502  0.73127212855E+02  0.84389856061E+02  0.27421528946E+03  0.29610932852E+03  0.41800000000E+01 0.  1.
        -11    1    4    4    0    0 -0.57024371558E+02 -0.34701132264E+01  0.84031831466E+02  0.10161284041E+03  0.00000000000E+00 0.  1.
         11    1    4    4    0    0 -0.15050096296E+03 -0.92877956234E+02  0.51012510493E+03  0.53991154580E+03  0.00000000000E+00 0. -1.
</event>
<event>
 8    1  0.3896452E-010  0.1094175E+03  0.7561462E-02  0.1261652E+00
          4   -1    0    0  501    0  0.00000000000E+00  0.00000000000E+00  0.17604544152E+03  0.17604544152E+03  0.00000000000E+00 0. -1.
         -4   -1    0    0    0  501 -0.00000000000E+00 -0.00000000000E+00 -0.11471734237E+03  0.11471734237E+03  0.00000000000E+00 0.  1.
         25    2    1    2    0    0  0.21007199009E+02  0.22690988713E+01  0.11119973559E+03  0.16869867491E+03  0.12508960988E+03 0.  0.
         23    2    1    2    0    0 -0.21007199009E+02 -0.22690988713E+01 -0.49871636443E+02  0.12206410898E+03  0.10938928357E+03 0.  0.
          5    1    3    3  502    0 -0.51464373829E+02  0.97475270960E+01  0.58805916181E+02  0.78861931476E+02  0.41800000000E+01 0.  1.
         -5    1    3    3    0  502  0.72471572838E+02 -0.74784282247E+01  0.52393819407E+02  0.89836743432E+02  0.41800000000E+01 0.  1.
        -11    1    4    4    0    0 -0.26324020666E+02 -0.43984553747E+02 -0.59892824615E+02  0.78833656979E+02  0.00000000000E+00 0. -1.
         11    1    4    4    0    0  0.53168216573E+01  0.41715454876E+02  0.10021188172E+02  0.43230452003E+02  0.00000000000E+00 0.  1.
</event>
<event>
 8    1  0.3896452E-010  0.2369178E+03  0.7561462E-02  0.1121863E+00
         -1   -1    0    0    0  501 -0.00000000000E+00  0.00000000000E+00  0.22864232120E+03  0.22864232120E+03  0.00000000000E+00 0.  1.
          1   -1    0    0  501    0  0.00000000000E+00 -0.00000000000E+00 -0.34095210813E+03  0.34095210813E+03  0.00000000000E+00 0. -1.
         25    2    1    2    0    0  0.28994609997E+02 -0.22853483135E+03 -0.18173665939E+03  0.31897432355E+03  0.12509016416E+03 0.  0.
         23    2    1    2    0    0 -0.28994609997E+02  0.22853483135E+03  0.69426872463E+02  0.25062010578E+03  0.70153333862E+02 0.  0.
          5    1    3    3  502    0 -0.20419788569E+01 -0.14520861587E+03 -0.38444934031E+02  0.15028372218E+03  0.41800000000E+01 0.  1.
         -5    1    3    3    0  502  0.31036588854E+02 -0.83326215481E+02 -0.14329172535E+03  0.16869060137E+03  0.41800000000E+01 0.  1.
        -11    1    4    4    0    0  0.20858103949E+02  0.50124330573E+02  0.26748488060E+02  0.60522645590E+02  0.00000000000E+00 0.  1.
         11    1    4    4    0    0 -0.49852713946E+02  0.17841050078E+03  0.42678384403E+02  0.19009746019E+03  0.00000000000E+00 0. -1.
</event>
<event>
 8    1  0.3896452E-010  0.9500466E+02  0.7561462E-02  0.1291166E+00
         -3   -1    0    0    0  501 -0.00000000000E+00  0.00000000000E+00  0.38235842168E+02  0.38235842168E+02  0.00000000000E+00 0.  1.
          3   -1    0    0  501    0  0.00000000000E+00 -0.00000000000E+00 -0.65028262104E+03  0.65028262104E+03  0.00000000000E+00 0. -1.
         25    2    1    2    0    0 -0.49755826829E+02  0.81491193438E+01 -0.49024849764E+03  0.50846134401E+03  0.12508916207E+03 0.  0.
         23    2    1    2    0    0  0.49755826829E+02 -0.81491193438E+01 -0.12179828123E+03  0.18005711919E+03  0.12265273911E+03 0.  0.
          5    1    3    3  502    0 -0.58970489498E+02 -0.43915334296E+02 -0.19411145054E+03  0.20761214523E+03  0.41800000000E+01 0.  1.
         -5    1    3    3    0  502  0.92146626688E+01  0.52064453639E+02 -0.29613704710E+03  0.30084919878E+03  0.41800000000E+01 0.  1.
        -11    1    4    4    0    0 -0.62689283870E+00 -0.12720859898E+02  0.23211420226E+02  0.26476089215E+02  0.00000000000E+00 0.  1.
         11    1    4    4    0    0  0.50382719668E+02  0.45717405545E+01 -0.14500970145E+03  0.15358102998E+03  0.00000000000E+00 0. -1.
</event>
<event>
 8    1  0.3896452E-010  0.9567450E+02  0.7561462E-02  0.1289664E+00
         -1   -1    0    0    0  501 -0.00000000000E+00  0.00000000000E+00  0.84712817753E+02  0.84712817753E+02  0.00000000000E+00 0.  1.
          1   -1    0    0  501    0  0.00000000000E+00 -0.00000000000E+00 -0.15693182942E+03  0.15693182942E+03  0.00000000000E+00 0. -1.
         25    2    1    2    0    0 -0.48357850330E+02 -0.25965897585E+02 -0.61705016947E+02  0.14989501555E+03  0.12509315347E+03 0.  0.
         23    2    1    2    0    0  0.48357850330E+02  0.25965897585E+02 -0.10513994717E+02  0.91749631619E+02  0.72764972971E+02 0.  0.
          5    1    3    3  502    0 -0.80636737020E+02  0.16133491459E+02 -0.28318888455E+02  0.87074707850E+02  0.41800000000E+01 0. -1.
         -5    1    3    3    0  502  0.32278886690E+02 -0.42099389044E+02 -0.33386128492E+02  0.62820307700E+02  0.41800000000E+01 0. -1.
        -11    1    4    4    0    0  0.21483548264E+02  0.17216858760E+02 -0.41505455435E+02  0.49806283764E+02  0.00000000000E+00 0. -1.
         11    1    4    4    0    0  0.26874302066E+02  0.87490388248E+01  0.30991460718E+02  0.41943347855E+02  0.00000000000E+00 0.  1.
</event>
<event>
 7    1  0.3896452E-010  0.7932395E+02  0.7561462E-02  0.1330981E+00
         -2   -1    0    0    0  501 -0.00000000000E+00  0.00000000000E+00  0.22274483334E+03  0.22274483334E+03  0.00000000000E+00 0.  1.
          2   -1    0    0  501    0  0.00000000000E+00 -0.00000000000E+00 -0.59769673916E+02  0.59769673916E+02  0.00000000000E+00 0. -1.
         25    2    1    2    0    0 -0.38387413850E+02 -0.66903417184E+02  0.13052047416E+03  0.19654357518E+03  0.12507646460E+03 0.  0.
          5    1    3    3  502    0 -0.38786019458E+02 -0.57534277192E+02  0.15506791481E+03  0.16993551413E+03  0.41800000000E+01 0.  1.
         -5    1    3    3    0  502  0.39860560774E+00 -0.93691399918E+01 -0.24547440648E+02  0.26608061053E+02  0.41800000000E+01 0.  1.
        -11    1    1    2    0    0  0.12678218992E+02  0.91024419370E+01  0.11293189558E+02  0.19264677948E+02  0.00000000000E+00 0.  1.
         11    1    1    2    0    0  0.25709194858E+02  0.57800975247E+02  0.21161495706E+02  0.66706254132E+02  0.00000000000E+00 0. -1.
</event>
<event>
 8    1  0.3896452E-010  0.1108941E+03  0.7561462E-02  0.1258923E+00
          2   -1    0    0  501    0  0.00000000000E+00  0.00000000000E+00  0.42329310830E+03  0.42329310830E+03  0.00000000000E+00 0.  1.
         -2   -1    0    0    0  501 -0.00000000000E+00 -0.00000000000E+00 -0.42421102569E+02  0.42421102569E+02  0.00000000000E+00 0. -1.
         25    2    1    2    0    0 -0.20214166623E+02  0.54050724124E+02  0.13935519619E+03  0.19595999657E+03  0.12510138384E+03 0.  0.
         23    2    1    2    0    0  0.20214166623E+02 -0.54050724124E+02  0.24151680955E+03  0.26975421430E+03  0.10538915282E+03 0.  0.
          5    1    3    3  502    0 -0.29449749386E+02 -0.19270131717E+02 -0.29415776944E+01  0.35563337788E+02  0.41800000000E+01 0.  1.
         -5    1    3    3    0  502  0.92355827631E+01  0.73320855841E+02  0.14229677388E+03  0.16039665878E+03  0.41800000000E+01 0.  1.
        -11    1    4    4    0    0  0.32572447523E+02  0.19355382964E+02  0.13202795184E+03  0.13735710849E+03  0.00000000000E+00 0.  1.
         11    1    4    4    0    0 -0.12358280900E+02 -0.73406107089E+02  0.10948885771E+03  0.13239710581E+03  0.00000000000E+00 0. -1.
</event>
<event>
 8    1  0.3896452E-010  0.5249833E+02  0.7561462E-02  0.1432314E+00
         -1   -1    0    0    0  501 -0.00000000000E+00  0.00000000000E+00  0.14896043713E+03  0.14896043713E+03  0.00000000000E+00 0.  1.
          1   -1    0    0  501    0  0.00000000000E+00 -0.00000000000E+00 -0.64849428731E+02  0.64849428731E+02  0.00000000000E+00 0. -1.
         25    2    1    2    0    0  0.26602936629E+01 -0.18919243738E+02  0.33336609000E+02  0.13085277826E+03  0.12508439205E+03 0.  0.
         23    2    1    2    0    0 -0.26602936629E+01  0.18919243738E+02  0.50774399395E+02  0.82957087594E+02  0.62760049411E+02 0.  0.
          5    1    3    3  502    0  0.17625293662E+02 -0.52563832490E+01 -0.45548550672E+02  0.49299324639E+02  0.41800000000E+01 0. -1.
         -5    1    3    3    0  502 -0.14964999999E+02 -0.13662860489E+02  0.78885159672E+02  0.81553453625E+02  0.41800000000E+01 0. -1.
        -11    1    4    4    0    0  0.29862684171E+02  0.60572043405E+01  0.20770299748E+02  0.36876482776E+02  0.00000000000E+00 0.  1.
         11    1    4    4    0    0 -0.32522977834E+02  0.12862039397E+02  0.30004099648E+02  0.46080604817E+02  0.00000000000E+00 0. -1.
</event>
<event>
 8    1  0.3896452E-010  0.8936808E+02  0.7561462E-02  0.1304389E+00
          3   -1    0    0  501    0  0.00000000000E+00  0.00000000000E+00  0.11686621930E+03  0.11686621930E+03  0.00000000000E+00 0. -1.
         -3   -1    0    0    0  501 -0.00000000000E+00 -0.00000000000E+00 -0.13917107865E+03  0.13917107865E+03  0.00000000000E+00 0.  1.
         25    2    1    2    0    0  0.33503840970E+02 -0.17979928582E+02  0.26920969712E+02  0.13348487095E+03  0.12509071497E+03 0.  0.
         23    2    1    2    0    0 -0.33503840970E+02  0.17979928582E+02 -0.49225829070E+02  0.12255242700E+03  0.10559417562E+03 0.  0.
          5    1    3    3  502    0  0.60632810486E+01 -0.46969876133E+02  0.63401481639E+02  0.79247415826E+02  0.41800000000E+01 0. -1.
         -5    1    3    3    0  502  0.27440559922E+02  0.28989947551E+02 -0.36480511928E+02  0.54237455124E+02  0.41800000000E+01 0. -1.
        -11    1    4    4    0    0 -0.47996171643E+02 -0.18782852458E+02 -0.62367614166E+02  0.80908264940E+02  0.00000000000E+00 0.  1.
         11    1    4    4    0    0  0.14492330673E+02  0.36762781040E+02  0.13141785096E+02  0.41644162059E+02  0.00000000000E+00 0. -1.
</event>
<event>
 8    1  0.3896452E-010  0.1660911E+03  0.7561462E-02  0.1181987E+00
          1   -1    0    0  501    0  0.00000000000E+00  0.00000000000E+00  0.21086009145E+03  0.21086009145E+03  0.00000000000E+00 0. -1.
         -1   -1    0    0    0  501 -0.00000000000E+00 -0.00000000000E+00 -0.26596257465E+03  0.26596257465E+03  0.00000000000E+00 0.  1.
         25    2    1    2    0    0 -0.16999707298E+02  0.14560337176E+03  0.12709237728E+03  0.23084437935E+03  0.12508926093E+03 0.  0.
         23    2    1    2    0    0  0.16999707298E+02 -0.14560337176E+03 -0.18219486047E+03  0.24597828675E+03  0.76295599178E+02 0.  0.
          5    1    3    3  502    0 -0.54694175365E+02  0.42367328722E+02  0.92428785420E+02  0.11552920036E+03  0.41800000000E+01 0. -1.
         -5    1    3    3    0  502  0.37694468067E+02  0.10323604304E+03  0.34663591855E+02  0.11531517899E+03  0.41800000000E+01 0. -1.
        -11    1    4    4    0    0  0.31805665306E+02 -0.10165889263E+03 -0.78288124139E+02  0.13219365029E+03  0.00000000000E+00 0. -1.
         11    1    4    4    0    0 -0.14805958008E+02 -0.43944479128E+02 -0.10390673633E+03  0.11378463646E+03  0.00000000000E+00 0.  1.
</event>
<event>
 8    1  0.3896452E-010  0.1024110E+03  0.7561462E-02  0.1275306E+00
         -1   -1    0    0    0  501 -0.00000000000E+00  0.00000000000E+00  0.38373083379E+03  0.38373083379E+03  0.00000000000E+00 0.  1.
          1   -1    0    0  501    0  0.00000000000E+00 -0.00000000000E+00 -0.30814388436E+02  0.30814388436E+02  0.00000000000E+00 0. -1.
         25    2    1    2    0    0 -0.28153111882E+01 -0.26855680074E+02  0.26148160846E+03  0.29111149071E+03  0.12507643637E+03 0.  0.
         23    2    1    2    0    0  0.28153111882E+01  0.26855680074E+02  0.91434836900E+02  0.12343373152E+03  0.78398999660E+02 0.  0.
          5    1    3    3  502    0  0.21237367506E+01 -0.75160524208E+02  0.19200996591E+03  0.20624964016E+03  0.41800000000E+01 0. -1.
         -5    1    3    3    0  502 -0.49390479388E+01  0.48304844134E+02  0.69471642545E+02  0.84861850553E+02  0.41800000000E+01 0. -1.
        -11    1    4    4    0    0 -0.32570165581E+02 -0.52605523873E+01  0.24064028104E+02  0.40835848785E+02  0.00000000000E+00 0. -1.
         11    1    4    4    0    0  0.35385476770E+02  0.32116232462E+02  0.67370808796E+02  0.82597882731E+02  0.00000000000E+00 0.  1.
</event>
<event>
 8    1  0.3896452E-010  0.1099543E+03  0.7561462E-02  0.1260654E+00
          3   -1    0    0  501    0  0.00000000000E+00  0.00000000000E+00  0.55700460806E+02  0.55700460806E+02  0.00000000000E+00 0. -1.
         -3   -1    0    0    0  501 -0.00000000000E+00 -0.00000000000E+00 -0.38623246348E+03  0.38623246348E+03  0.00000000000E+00 0.  1.
         25    2    1    2    0    0  0.62604669111E+02 -0.67932232933E+02 -0.26468930486E+03  0.30698903152E+03  0.12509078504E+03 0.  0.
         23    2    1    2    0    0 -0.62604669111E+02  0.67932232933E+02 -0.65842697820E+02  0.13494389277E+03  0.73078454236E+02 0.  0.
          5    1    3    3  502    0  0.31742878036E+02 -0.63526191181E+02 -0.43094999928E+02  0.83173545619E+02  0.41800000000E+01 0. -1.
         -5    1    3    3    0  502  0.30861791075E+02 -0.44060417516E+01 -0.22159430493E+03  0.22381548590E+03  0.41800000000E+01 0. -1.
        -11    1    4    4    0    0  0.55664981037E+01  0.45072335965E+02 -0.19657421260E+02  0.49486519185E+02  0.00000000000E+00 0. -1.
         11    1    4    4    0    0 -0.68171167214E+02  0.22859896967E+02 -0.46185276560E+02  0.85457373583E+02  0.00000000000E+00 0.  1.
</event>
<event>
 7    1  0.3896452E-010  0.5636746E+02  0.7561462E-02  0.1413741E+00
          2   -1    0    0  501    0  0.00000000000E+00  0.00000000000E+00  0.46549060225E+03  0.46549060225E+03  0.00000000000E+00 0. -1.
         -2   -1    0    0    0  501 -0.00000000000E+00 -0.00000000000E+00 -0.27332772541E+02  0.27332772541E+02  0.00000000000E+00 0.  1.
         25    2    1    2    0    0  0.45254691117E+02  0.25038629884E+02  0.37022753644E+03  0.39419671224E+03  0.12509076364E+03 0.  0.
          5    1    3    3  502    0  0.23446931271E+01 -0.29383619153E+01  0.32697562215E+03  0.32702394628E+03  0.41800000000E+01 0. -1.
         -5    1    3    3    0  502  0.42909997989E+02  0.27976991799E+02  0.43251914286E+02  0.67172765962E+02  0.41800000000E+01 0. -1.
        -11    1    1    2    0    0 -0.66870540593E+01 -0.14137905250E+02 -0.41256145464E+01  0.16174602073E+02  0.00000000000E+00 0.  1.
         11    1    1    2    0    0 -0.38567637057E+02 -0.10900724634E+02  0.72055907817E+02  0.82452060478E+02  0.00000000000E+00 0. -1.
</event>
<event>
 8    1  0.3896452E-010  0.1786426E+03  0.7561462E-02  0.1169123E+00
         -1   -1    0    0    0  501 -0.00000000000E+00  0.00000000000E+00  0.98562785472E+03  0.98562785472E+03  0.00000000000E+00 0.  1.
          1   -1    0    0  501    0  0.00000000000E+00 -0.00000000000E+00 -0.72190066043E+02  0.72190066043E+02  0.00000000000E+00 0. -1.
         25    2    1    2    0    0 -0.46438620608E+02 -0.13557200786E+03  0.84556081954E+03  0.86669255307E+03  0.12508623906E+03 0.  0.
         23    2    1    2    0    0  0.46438620608E+02  0.13557200786E+03  0.67876969137E+02  0.19112536769E+03  0.10670196079E+03 0.  0.
          5    1    3    3  502    0 -0.41881275353E+02  0.88061911635E+00  0.96552555193E+02  0.10533131077E+03  0.41800000000E+01 0. -1.
         -5    1    3    3    0  502 -0.45573452548E+01 -0.13645262698E+03  0.74900826435E+03  0.76136124229E+03  0.41800000000E+01 0. -1.
        -11    1    4    4    0    0 -0.25300110524E+02  0.90270427229E+02  0.32912954043E+02  0.99358483123E+02  0.00000000000E+00 0.  1.
         11    1    4    4    0    0  0.71738731132E+02  0.45301580635E+02  0.34964015094E+02  0.91766884572E+02  0.00000000000E+00 0. -1.
</event>
<event>
 7    1  0.3896452E-010  0.9477661E+02  0.7561462E-02  0.1291680E+00
          1   -1    0    0  501    0  0.00000000000E+00  0.00000000000E+00  0.29263498297E+03  0.29263498297E+03  0.00000000000E+00 0. -1.
         -1   -1    0    0    0  501 -0.00000000000E+00 -0.00000000000E+00 -0.58487390721E+02  0.58487390721E+02  0.00000000000E+00 0.  1.
         25    2    1    2    0    0  0.12316310147E+02  0.90964287040E+01  0.11277695672E+03  0.16911706759E+03  0.12508998390E+03 0.  0.
          5    1    3    3  502    0 -0.82811831024E+01 -0.20714413793E+02  0.12770455998E+03  0.12970579004E+03  0.41800000000E+01 0.  1.
         -5    1    3    3    0  502  0.20597493249E+02  0.29810842497E+02 -0.14927603259E+02  0.39411277543E+02  0.41800000000E+01 0.  1.
        -11    1    1    2    0    0 -0.14130239001E+01  0.60208135907E+02  0.31413575233E+02  0.67925171880E+02  0.00000000000E+00 0.  1.
         11    1    1    2    0    0 -0.10903286246E+02 -0.69304564611E+02  0.89957060297E+02  0.11408013422E+03  0.00000000000E+00 0. -1.
</event>
<event>
 8    1  0.3896452E-010  0.1216394E+03  0.7561462E-02  0.1240417E+00
         -2   -1    0    0    0  501 -0.00000000000E+00  0.00000000000E+00  0.21566782296E+02  0.21566782296E+02  0.00000000000E+00 0.  1.
          2   -1    0    0  501    0  0.00000000000E+00 -0.00000000000E+00 -0.92012934604E+03  0.92012934604E+03  0.00000000000E+00 0. -1.
         25    2    1    2    0    0 -0.99945868983E+02  0.19058474489E+02 -0.59335393386E+03  0.61487418862E+03  0.12509586253E+03 0.  0.
         23    2    1    2    0    0  0.99945868983E+02 -0.19058474489E+02 -0.30520862988E+03  0.32682193972E+03  0.57514088280E+02 0.  0.
          5    1    3    3  502    0 -0.54568163530E+02 -0.36087517574E+02 -0.12557272635E+03  0.14165442244E+03  0.41800000000E+01 0. -1.
         -5    1    3    3    0  502 -0.45377705452E+02  0.55145992063E+02 -0.46778120752E+03  0.47321976618E+03  0.41800000000E+01 0. -1.
        -11    1    4    4    0    0  0.85973049919E+02 -0.27000953249E+02 -0.29326504274E+03  0.30679765658E+03  0.00000000000E+00 0. -1.
         11    1    4    4    0    0  0.13972819064E+02  0.79424787595E+01 -0.11943587139E+02  0.20024283138E+02  0.00000000000E+00 0.  1.
</event>
<event>
 8    1  0.3896452E-010  0.1135007E+03  0.7561462E-02  0.1254221E+00
         -2   -1    0    0    0  501 -0.00000000000E+00  0.00000000000E+00  0.16733894400E+02  0.16733894400E+02  0.00000000000E+00 0. -1.
          2   -1    0    0  501    0  0.00000000000E+00 -0.00000000000E+00 -0.89140561637E+03  0.89140561637E+03  0.00000000000E+00 0.  1.
         25    2    1    2    0    0  0.21632356219E+01  0.23667961433E+02 -0.45365736711E+03  0.47118707118E+03  0.12508955723E+03 0.  0.
         23    2    1    2    0    0 -0.21632356219E+01 -0.23667961433E+02 -0.42101435486E+03  0.43695243959E+03  0.11449670510E+03 0.  0.
          5    1    3    3  502    0  0.37312334529E+02  0.62099878065E+02 -0.21635391770E+03  0.22819968288E+03  0.41800000000E+01 0.  1.
         -5    1    3    3    0  502 -0.35149098907E+02 -0.38431916632E+02 -0.23730344942E+03  0.24298738830E+03  0.41800000000E+01 0.  1.
        -11    1    4    4    0    0  0.48181625996E+02 -0.47986034886E+01 -0.95985246306E+02  0.10750657276E+03  0.00000000000E+00 0. -1.
         11    1    4    4    0    0 -0.50344861618E+02 -0.18869357944E+02 -0.32502910856E+03  0.32944586683E+03  0.00000000000E+00 0.  1.
</event>
<event>
 8    1  0.3896452E-010  0.9159471E+02  0.7561462E-02  0.1299035E+00
          1   -1    0    0  501    0  0.00000000000E+00  0.00000000000E+00  0.26582498563E+03  0.26582498563E+03  0.00000000000E+00 0. -1.
         -1   -1    0    0    0  501 -0.00000000000E+00 -0.00000000000E+00 -0.56064773336E+02  0.56064773336E+02  0.00000000000E+00 0.  1.
         25    2    1    2    0    0  0.30836036901E+02 -0.24493189969E+02  0.10314624195E+03  0.16684943577E+03  0.12509520160E+03 0.  0.
         23    2    1    2    0    0 -0.30836036901E+02  0.24493189969E+02  0.10661397035E+03  0.15504032319E+03  0.10545229071E+03 0.  0.
          5    1    3    3  502    0  0.26809240297E+02 -0.69718015509E+02  0.94353837842E+02  0.12041368762E+03  0.41800000000E+01 0.  1.
         -5    1    3    3    0  502  0.40267966039E+01  0.45224825539E+02  0.87924041047E+01  0.46435748146E+02  0.41800000000E+01 0.  1.
        -11    1    4    4    0    0 -0.25574590177E+02 -0.10316347908E+02  0.11548745867E+03  0.11873432446E+03  0.00000000000E+00 0. -1.
         11    1    4    4    0    0 -0.52614467236E+01  0.34809537877E+02 -0.88734883193E+01  0.36305998731E+02  0.00000000000E+00 0.  1.
</event>
<event>
 8    1  0.3896452E-010  0.9170791E+02  0.7561462E-02  0.1298768E+00
         -2   -1    0    0    0  501 -0.00000000000E+00  0.00000000000E+00  0.19369440513E+02  0.19369440513E+02  0.00000000000E+00 0.  1.
          2   -1    0    0  501    0  0.00000000000E+00 -0.00000000000E+00 -0.62873040766E+03  0.62873040766E+03  0.00000000000E+00 0. -1.
         25    2    1    2    0    0  0.49546026242E+00 -0.40304629360E+02 -0.29407734121E+03  0.32210812971E+03  0.12508979168E+03 0.  0.
         23    2    1    2    0    0 -0.49546026242E+00  0.40304629360E+02 -0.31528362593E+03  0.32599171846E+03  0.72402535134E+02 0.  0.
          5    1    3    3  502    0 -0.65292421885E+01 -0.69841594256E+02 -0.27944902102E+03  0.28814875852E+03  0.41800000000E+01 0. -1.
         -5    1    3    3    0  502  0.70247024509E+01  0.29536964896E+02 -0.14628320196E+02  0.33959371189E+02  0.41800000000E+01 0. -1.
        -11    1    4    4    0    0 -0.11618271406E+02  0.59331627418E+02 -0.21680234230E+03  0.22507439185E+03  0.00000000000E+00 0. -1.
         11    1    4    4    0    0  0.11122811144E+02 -0.19026998057E+02 -0.98481283633E+02  0.10091732660E+03  0.00000000000E+00 0.  1.
</event>
<event>
 8    1  0.3896452E-010  0.1800002E+03  0.7561462E-02  0.1167803E+00
         -1   -1    0    0    0  501 -0.00000000000E+00  0.00000000000E+00  0.11713966120E+03  0.11713966120E+03  0.00000000000E+00 0.  1.
          1   -1    0    0  501    0  0.00000000000E+00 -0.00000000000E+00 -0.34289423136E+03  0.34289423136E+03  0.00000000000E+00 0. -1.
         25    2    1    2    0    0 -0.15217844532E+03  0.42987263676E+02 -0.41562033740E+02  0.20586768279E+03  0.12509163085E+03 0.  0.
         23    2    1    2    0    0  0.15217844532E+03 -0.42987263676E+02 -0.18419253642E+03  0.25416620976E+03  0.75282054004E+02 0.  0.
          5    1    3    3  502    0 -0.12873613069E+03 -0.23441741135E+02 -0.30669087302E+02  0.13446401707E+03  0.41800000000E+01 0. -1.
         -5    1    3    3    0  502 -0.23442314635E+02  0.66429004810E+02 -0.10892946438E+02  0.71403665716E+02  0.41800000000E+01 0. -1.
        -11    1    4    4    0    0  0.83981809490E+02 -0.29374655684E+02 -0.47632957531E+02  0.10091934089E+03  0.00000000000E+00 0.  1.
         11    1    4    4    0    0  0.68196635832E+02 -0.13612607991E+02 -0.13655957889E+03  0.15324686888E+03  0.00000000000E+00 0. -1.
</event>
<event>
 8    1  0.3896452E-010  0.2273427E+03  0.7561462E-02  0.1128524E+00
         -1   -1    0    0    0  501 -0.00000000000E+00  0.00000000000E+00  0.43696891904E+02  0.43696891904E+02  0.00000000000E+00 0.  1.
          1   -1    0    0  501    0  0.00000000000E+00 -0.00000000000E+00 -0.12846239001E+04  0.12846239001E+04  0.00000000000E+00 0. -1.
         25    2    1    2    0    0  0.18619805209E+03  0.68451872551E+02 -0.48919300185E+03  0.54250614752E+03  0.12509098122E+03 0.  0.
         23    2    1    2    0    0 -0.18619805209E+03 -0.68451872551E+02 -0.75173400633E+03  0.78581464446E+03  0.11421587338E+03 0.  0.
          5    1    3    3  502    0  0.14850594772E+03  0.99829712206E+02 -0.42837539285E+03  0.46426602024E+03  0.41800000000E+01 0.  1.
         -5    1    3    3    0  502  0.37692104366E+02 -0.31377839654E+02 -0.60817609003E+02  0.78240127286E+02  0.41800000000E+01 0.  1.
        -11    1    4    4    0    0  0.18308057173E+00 -0.37547705123E+02 -0.87056941082E+02  0.94809148657E+02  0.00000000000E+00 0.  1.
         11    1    4    4    0    0 -0.18638113266E+03 -0.30904167428E+02 -0.66467706524E+03  0.69100549581E+03  0.00000000000E+00 0. -1.
</event>
<event>
 8    1  0.3896452E-010  0.7879112E+02  0.7561462E-02  0.1332517E+00
         -1   -1    0    0    0  501 -0.00000000000E+00  0.00000000000E+00  0.14919550570E+03  0.14919550570E+03  0.00000000000E+00 0.  1.
          1   -1    0    0  501    0  0.00000000000E+00 -0.00000000000E+00 -0.11350602834E+03  0.11350602834E+03  0.00000000000E+00 0. -1.
         25    2    1    2    0    0  0.18032434582E+01 -0.25534539258E+02  0.10567656614E+03  0.16573670974E+03  0.12508339595E+03 0.  0.
         23    2    1    2    0    0 -0.18032434582E+01  0.25534539258E+02 -0.69987088777E+02  0.96964824296E+02  0.62038054235E+02 0.  0.
          5    1    3    3  502    0 -0.29825616515E+02 -0.44316608217E+02 -0.19146455397E+00  0.53582069977E+02  0.41800000000E+01 0.  1.
         -5    1    3    3    0  502  0.31628859973E+02  0.18782068959E+02  0.10586803069E+03  0.11215463976E+03  0.41800000000E+01 0.  1.
        -11    1    4    4    0    0  0.26484391694E+02  0.28052194335E+02 -0.37273649343E+02  0.53643951623E+02  0.00000000000E+00 0.  1.
         11    1    4    4    0    0 -0.28287635152E+02 -0.25176550770E+01 -0.32713439434E+02  0.43320872673E+02  0.00000000000E+00 0. -1.
</event>
<event>
 8    1  0.3896452E-010  0.4966716E+02  0.7561462E-02  0.1447145E+00
         -1   -1    0    0    0  501 -0.00000000000E+00  0.00000000000E+00  0.10389146409E+03  0.10389146409E+03  0.00000000000E+00 0.  1.
          1   -1    0    0  501    0  0.00000000000E+00 -0.00000000000E+00 -0.32277054005E+03  0.32277054005E+03  0.00000000000E+00 0. -1.
         25    2    1    2    0    0  0.24354756734E+01 -0.29389736176E+02 -0.29058612709E+03  0.31773820122E+03  0.12509028389E+03 0.  0.
         23    2    1    2    0    0 -0.24354756734E+01  0.29389736176E+02  0.71707051124E+02  0.10892380293E+03  0.76503630829E+02 0.  0.
          5    1    3    3  502    0  0.14362479523E+02 -0.13946039886E+02  0.53426067800E+01  0.21137376700E+02  0.41800000000E+01 0.  1.
         -5    1    3    3    0  502 -0.11927003849E+02 -0.15443696289E+02 -0.29592873387E+03  0.29660082452E+03  0.41800000000E+01 0.  1.
        -11    1    4    4    0    0 -0.21142699230E+02 -0.31672496727E+01  0.67895744259E+02  0.71182001164E+02  0.00000000000E+00 0.  1.
         11    1    4    4    0    0  0.18707223556E+02  0.32556985848E+02  0.38113068658E+01  0.37741801769E+02  0.00000000000E+00 0. -1.
</event>
<event>
 8    1  0.3896452E-010  0.1049295E+03  0.7561462E-02  0.1270258E+00
         -2   -1    0    0    0  501 -0.00000000000E+00  0.00000000000E+00  0.51344350161E+02  0.51344350161E+02  0.00000000000E+00 0.  1.
          2   -1    0    0  501    0  0.00000000000E+00 -0.00000000000E+00 -0.27733395271E+03  0.27733395271E+03  0.00000000000E+00 0. -1.
         25    2    1    2    0    0 -0.50718638107E+01  0.28143824850E+02 -0.10684246384E+03  0.16696973528E+03  0.12508309934E+03 0.  0.
         23    2    1    2    0    0  0.50718638107E+01 -0.28143824850E+02 -0.11914713871E+03  0.16170856759E+03  0.10552640186E+03 0.  0.
          5    1    3    3  502    0  0.58120603062E+02  0.12437562264E+02 -0.31838849095E+02  0.67556510915E+02  0.41800000000E+01 0. -1.
         -5    1    3    3    0  502 -0.63192466873E+02  0.15706262585E+02 -0.75003614742E+02  0.99413224363E+02  0.41800000000E+01 0. -1.
        -11    1    4    4    0    0 -0.37360595488E+02 -0.17628272424E+02 -0.10937106233E+03  0.11691278526E+03  0.00000000000E+00 0. -1.
         11    1    4    4    0    0  0.42432459298E+02 -0.10515552425E+02 -0.97760763863E+01  0.44795782329E+02  0.00000000000E+00 0.  1.
</event>
<event>
 8    1  0.3896452E-010  0.8144747E+02  0.7561462E-02  0.1324993E+00
         -2   -1    0    0    0  501 -0.00000000000E+00  0.00000000000E+00  0.32430612156E+02  0.32430612156E+02  0.00000000000E+00 0. -1.
          2   -1    0    0  501    0  0.00000000000E+00 -0.00000000000E+00 -0.50313207600E+03  0.50313207600E+03  0.00000000000E+00 0.  1.
         25    2    1    2    0    0  0.31969246058E+02  0.65373624525E+02 -0.31352636904E+03  0.34531419844E+03  0.12508944034E+03 0.  0.
         23    2    1    2    0    0 -0.31969246058E+02 -0.65373624525E+02 -0.15717509481E+03  0.19024848972E+03  0.78706632090E+02 0.  0.
          5    1    3    3  502    0 -0.50051293927E+00  0.99448287917E+00 -0.24725281840E+03  0.24729065513E+03  0.41800000000E+01 0.  1.
         -5    1    3    3    0  502  0.32469758997E+02  0.64379141646E+02 -0.66273550639E+02  0.98023543309E+02  0.41800000000E+01 0.  1.
        -11    1    4    4    0    0  0.12203697225E+02 -0.13023396730E+02  0.10036875327E+01  0.17875862972E+02  0.00000000000E+00 0. -1.
         11    1    4    4    0    0 -0.44172943282E+02 -0.52350227796E+02 -0.15817878234E+03  0.17237262675E+03  0.00000000000E+00 0.  1.
</event>
<event>
 8    1  0.3896452E-010  0.9349662E+02  0.7561462E-02  0.1294598E+00
         -1   -1    0    0    0  501 -0.00000000000E+00  0.00000000000E+00  0.34605034042E+02  0.34605034042E+02  0.00000000000E+00 0.  1.
          1   -1    0    0  501    0  0.00000000000E+00 -0.00000000000E+00 -0.37300149819E+03  0.37300149819E+03  0.00000000000E+00 0. -1.
         25    2    1    2    0    0 -0.47629905702E+02 -0.22234169046E+02 -0.20529060100E+03  0.24607874162E+03  0.12509016758E+03 0.  0.
         23    2    1    2    0    0  0.47629905702E+02  0.22234169046E+02 -0.13310586315E+03  0.16152779062E+03  0.74907210250E+02 0.  0.
          5    1    3    3  502    0 -0.63848838017E+02 -0.38245172883E+02 -0.20964399579E+03  0.22250268479E+03  0.41800000000E+01 0. -1.
         -5    1    3    3    0  502  0.16218932315E+02  0.16011003837E+02  0.43533947912E+01  0.23576056828E+02  0.41800000000E+01 0. -1.
        -11    1    4    4    0    0  0.62163808125E+02 -0.65207831181E+00 -0.10780119063E+03  0.12444219922E+03  0.00000000000E+00 0. -1.
         11    1    4    4    0    0 -0.14533902423E+02  0.22886247358E+02 -0.25304672516E+02  0.37085591392E+02  0.00000000000E+00 0.  1.
</event>
<event>
 8    1  0.3896452E-010  0.1291070E+03  0.7561462E-02  0.1228787E+00
          4   -1    0    0  501    0  0.00000000000E+00  0.00000000000E+00  0.79808931071E+02  0.79808931071E+02  0.00000000000E+00 0. -1.
         -4   -1    0    0    0  501 -0.00000000000E+00 -0.00000000000E+00 -0.34758744850E+03  0.34758744850E+03  0.00000000000E+00 0.  1.
         25    2    1    2    0    0  0.10102173760E+03 -0.40798531917E+02 -0.11946787973E+03  0.20442441045E+03  0.12508738397E+03 0.  0.
         23    2    1    2    0    0 -0.10102173760E+03  0.40798531917E+02 -0.14831063769E+03  0.22297196912E+03  0.12589893600E+03 0.  0.
          5    1    3    3  502    0  0.81094046486E+02 -0.71878192380E+01 -0.30755680899E+01  0.81577206621E+02  0.41800000000E+01 0. -1.
         -5    1    3    3    0  502  0.19927691110E+02 -0.33610712679E+02 -0.11639231164E+03  0.12284720383E+03  0.41800000000E+01 0. -1.
        -11    1    4    4    0    0 -0.11540560393E+03  0.29525452561E+02 -0.61121514722E+02  0.13388818219E+03  0.00000000000E+00 0. -1.
         11    1    4    4    0    0  0.14383866334E+02  0.11273079356E+02 -0.87189122973E+02  0.89083786929E+02  0.00000000000E+00 0.  1.
</event>
<event>
 7    1  0.3896452E-010  0.1782276E+03  0.7561462E-02  0.1169530E+00
          3   -1    0    0  501    0  0.00000000000E+00  0.00000000000E+00  0.68051034804E+02  0.68051034804E+02  0.00000000000E+00 0. -1.
         -3   -1    0    0    0  501 -0.00000000000E+00 -0.00000000000E+00 -0.86520376295E+03  0.86520376295E+03  0.00000000000E+00 0.  1.
         25    2    1    2    0    0  0.16842015214E+03  0.25421196910E+02 -0.57594866659E+03  0.61349438190E+03  0.12508759004E+03 0.  0.
          5    1    3    3  502    0  0.14771833325E+03  0.52561429094E+01 -0.56201000757E+03  0.58113772380E+03  0.41800000000E+01 0. -1.
         -5    1    3    3    0  502  0.20701818891E+02  0.20165054000E+02 -0.13938659018E+02  0.32356658100E+02  0.41800000000E+01 0. -1.
        -11    1    1    2    0    0 -0.64896204028E+02 -0.37832148150E+02  0.10656060144E+00  0.75118573509E+02  0.00000000000E+00 0. -1.
         11    1    1    2    0    0 -0.10352394811E+03  0.12410951240E+02 -0.22131062215E+03  0.24464184234E+03  0.00000000000E+00 0.  1.
</event>
<event>
 8    1  0.3896452E-010  0.1246885E+03  0.7561462E-02  0.1235557E+00
         -2   -1    0    0    0  501 -0.00000000000E+00  0.00000000000E+00  0.60153890182E+02  0.60153890182E+02  0.00000000000E+00 0.  1.
          2   -1    0    0  501    0  0.00000000000E+00 -0.00000000000E+00 -0.90008129786E+03  0.90008129786E+03  0.00000000000E+00 0. -1.
         25    2    1    2    0    0  0.82074910148E+02 -0.12925343776E+02 -0.83664558804E+03  0.85001645310E+03  0.12509506453E+03 0.  0.
         23    2    1    2    0    0 -0.82074910148E+02  0.12925343776E+02 -0.32818196391E+01  0.11021873494E+03  0.72346691732E+02 0.  0.
          5    1    3    3  502    0  0.34384784373E+02  0.50255452659E+02 -0.52127269149E+03  0.52483389297E+03  0.41800000000E+01 0.  1.
         -5    1    3    3    0  502  0.47690125775E+02 -0.63180796435E+02 -0.31537289655E+03  0.32518256013E+03  0.41800000000E+01 0.  1.
        -11    1    4    4    0    0 -0.76170413351E+02 -0.17436727859E+02 -0.93504062984E+01  0.78698166729E+02  0.00000000000E+00 0. -1.
         11    1    4    4    0    0 -0.59044967969E+01  0.30362071636E+02  0.60685866593E+01  0.31520568213E+02  0.00000000000E+00 0.  1.
</event>
<event>
 8    1  0.3896452E-010  0.2098406E+03  0.7561462E-02  0.1141692E+00
         -1   -1    0    0    0  501 -0.00000000000E+00  0.00000000000E+00  0.28412762851E+02  0.28412762851E+02  0.00000000000E+00 0.  1.
          1   -1    0    0  501    0  0.00000000000E+00 -0.00000000000E+00 -0.15735009140E+04  0.15735009140E+04  0.00000000000E+00 0. -1.
         25    2    1    2    0    0 -0.10769555941E+03 -0.13196391283E+03 -0.69116697197E+03  0.72275282478E+03  0.12508818803E+03 0.  0.
         23    2    1    2    0    0  0.10769555941E+03  0.13196391283E+03 -0.85392117920E+03  0.87916085209E+03  0.12136562836E+03 0.  0.
          5    1    3    3  502    0 -0.55606615727E+02  0.12353019880E+02 -0.21518371641E+03  0.22263467165E+03  0.41800000000E+01 0.  1.
         -5    1    3    3    0  502 -0.52088943686E+02 -0.14431693271E+03 -0.47598325556E+03  0.50011815313E+03  0.41800000000E+01 0.  1.
        -11    1    4    4    0    0  0.38029821806E+02 -0.19224204599E+02 -0.18320379833E+03  0.18809430909E+03  0.00000000000E+00 0.  1.
         11    1    4    4    0    0  0.69665737606E+02  0.15118811743E+03 -0.67071738087E+03  0.69106654300E+03  0.00000000000E+00 0. -1.
</event>
<event>
 8    1  0.3896452E-010  0.8960668E+02  0.7561462E-02  0.1303807E+00
          1   -1    0    0  501    0  0.00000000000E+00  0.00000000000E+00  0.18046863822E+03  0.18046863822E+03  0.00000000000E+00 0. -1.
         -1   -1    0    0    0  501 -0.00000000000E+00 -0.00000000000E+00 -0.64594904083E+02  0.64594904083E+02  0.00000000000E+00 0.  1.
         25    2    1    2    0    0  0.21090595866E+00  0.34213328885E+02  0.54887274087E+02  0.14082830991E+03  0.12509757656E+03 0.  0.
         23    2    1    2    0    0 -0.21090595866E+00 -0.34213328885E+02  0.60986460047E+02  0.10423523239E+03  0.77298376483E+02 0.  0.
          5    1    3    3  502    0 -0.42914795647E+02 -0.82263766126E+01 -0.16734034219E+02  0.46977156777E+02  0.41800000000E+01 0.  1.
         -5    1    3    3    0  502  0.43125701606E+02  0.42439705497E+02  0.71621308306E+02  0.93851153137E+02  0.41800000000E+01 0.  1.
        -11    1    4    4    0    0  0.16340466715E+02 -0.49505954881E+02  0.17038653308E+02  0.54846751296E+02  0.00000000000E+00 0.  1.
         11    1    4    4    0    0 -0.16551372674E+02  0.15292625996E+02  0.43947806739E+02  0.49388481090E+02  0.00000000000E+00 0. -1.
</event>
<event>
 8    1  0.3896452E-010  0.1213371E+03  0.7561462E-02  0.1240907E+00
         -1   -1    0    0    0  501 -0.00000000000E+00  0.00000000000E+00  0.85240394176E+02  0.85240394176E+02  0.00000000000E+00 0.  1.
          1   -1    0    0  501    0  0.00000000000E+00 -0.00000000000E+00 -0.28399718028E+03  0.28399718028E+03  0.00000000000E+00 0. -1.
         25    2    1    2    0    0  0.35659826470E+02  0.85766989642E+02 -0.84339140917E+02  0.17716745322E+03  0.12509043150E+03 0.  0.
         23    2    1    2    0    0 -0.35659826470E+02 -0.85766989642E+02 -0.11441764519E+03  0.19207012124E+03  0.12317440565E+03 0.  0.
          5    1    3    3  502    0  0.57508813140E+02  0.89777561918E+02 -0.10266324686E+03  0.14806920297E+03  0.41800000000E+01 0.  1.
         -5    1    3    3    0  502 -0.21848986670E+02 -0.40105722759E+01  0.18324105946E+02  0.29098250243E+02  0.41800000000E+01 0.  1.
        -11    1    4    4    0    0 -0.20094349195E+02  0.54620990190E+01  0.20000709922E+02  0.28872924906E+02  0.00000000000E+00 0.  1.
         11    1    4    4    0    0 -0.15565477275E+02 -0.91229088661E+02 -0.13441835511E+03  0.16319719633E+03  0.00000000000E+00 0. -1.
</event>
<event>
 8    1  0.3896452E-010  0.8893728E+02  0.7561462E-02  0.1305446E+00
          1   -1    0    0  501    0  0.00000000000E+00  0.00000000000E+00  0.49620955899E+03  0.49620955899E+03  0.00000000000E+00 0. -1.
         -1   -1    0    0    0  501 -0.00000000000E+00 -0.00000000000E+00 -0.29230714182E+02  0.29230714182E+02  0.00000000000E+00 0.  1.
         25    2    1    2    0    0 -0.12555336362E+01  0.18564641025E+02  0.25249841966E+03  0.28239810657E+03  0.12508803461E+03 0.  0.
         23    2    1    2    0    0  0.12555336362E+01 -0.18564641025E+02  0.21448042515E+03  0.24304216660E+03  0.11278927127E+03 0.  0.
          5    1    3    3  502    0 -0.48674512433E+02 -0.15635588139E+01  0.20962078705E+03  0.21524404670E+03  0.41800000000E+01 0.  1.
         -5    1    3    3    0  502  0.47418978796E+02  0.20128199839E+02  0.42877632607E+02  0.67154059869E+02  0.41800000000E+01 0.  1.
        -11    1    4    4    0    0  0.24213650640E+02  0.20681992047E+02  0.18747162949E+03  0.19015692871E+03  0.00000000000E+00 0. -1.
         11    1    4    4    0    0 -0.22958117004E+02 -0.39246633073E+02  0.27008795658E+02  0.52885237891E+02  0.00000000000E+00 0.  1.
</event>
<event>
 8    1  0.3896452E-010  0.1878128E+03  0.7561462E-02  0.1160449E+00
         -1   -1    0    0    0  501 -0.00000000000E+00  0.00000000000E+00  0.26961092070E+02  0.26961092070E+02  0.00000000000E+00 0.  1.
          1   -1    0    0  501    0  0.00000000000E+00 -0.00000000000E+00 -0.15881664997E+04  0.15881664997E+04  0.00000000000E+00 0. -1.
         25    2    1    2    0    0 -0.45050437085E+02  0.14070619221E+03 -0.11209470587E+04  0.11375404817E+04  0.12509302452E+03 0.  0.
         23    2    1    2    0    0  0.45050437085E+02 -0.14070619221E+03 -0.44025834898E+03  0.47758711008E+03  0.11150901066E+03 0.  0.
          5    1    3    3  502    0 -0.85727120301E+02  0.65473358349E+02 -0.61960880854E+03  0.62894232472E+03  0.41800000000E+01 0. -1.
         -5    1    3    3    0  502  0.40676683216E+02  0.75232833861E+02 -0.50133825012E+03  0.50859815698E+03  0.41800000000E+01 0. -1.
        -11    1    4    4    0    0  0.79193421546E+02 -0.11346496152E+03 -0.36799188068E+03  0.39314618115E+03  0.00000000000E+00 0.  1.
         11    1    4    4    0    0 -0.34142984461E+02 -0.27241230685E+02 -0.72266468305E+02  0.84440928929E+02  0.00000000000E+00 0. -1.
</event>
<event>
 8    1  0.3896452E-010  0.8624178E+02  0.7561462E-02  0.1312217E+00
          1   -1    0    0  501    0  0.00000000000E+00  0.00000000000E+00  0.15899992624E+03  0.15899992624E+03  0.00000000000E+00 0. -1.
         -1   -1    0    0    0  501 -0.00000000000E+00 -0.00000000000E+00 -0.96701004598E+02  0.96701004598E+02  0.00000000000E+00 0.  1.
         25    2    1    2    0    0  0.15287895245E+01  0.19128508625E+02  0.74775593002E+02  0.14699560609E+03  0.12509229338E+03 0.  0.
         23    2    1    2    0    0 -0.15287895245E+01 -0.19128508625E+02 -0.12476671356E+02  0.10870532475E+03  0.10626826084E+03 0.  0.
          5    1    3    3  502    0  0.33887790025E+02 -0.13292884031E+02  0.91096214975E+02  0.98188980346E+02  0.41800000000E+01 0.  1.
         -5    1    3    3    0  502 -0.32359000500E+02  0.32421392657E+02 -0.16320621973E+02  0.48806625747E+02  0.41800000000E+01 0.  1.
        -11    1    4    4    0    0  0.41034351986E+02  0.43025180180E+01 -0.35969818234E+02  0.54737167702E+02  0.00000000000E+00 0.  1.
         11    1    4    4    0    0 -0.42563141511E+02 -0.23431026643E+02  0.23493146878E+02  0.53968157047E+02  0.00000000000E+00 0. -1.
</event>
<event>
 8    1  0.3896452E-010  0.1605608E+03  0.7561462E-02  0.1188065E+00
         -1   -1    0    0    0  501 -0.00000000000E+00  0.00000000000E+00  0.61714978369E+02  0.61714978369E+02  0.00000000000E+00 0.  1.
          1   -1    0    0  501    0  0.00000000000E+00 -0.00000000000E+00 -0.49496540751E+03  0.49496540751E+03  0.00000000000E+00 0. -1.
         25    2    1    2    0    0 -0.13819723221E+03  0.26823881916E+02 -0.30554202249E+03  0.35891677182E+03  0.12508927193E+03 0.  0.
         23    2    1    2    0    0  0.13819723221E+03 -0.26823881916E+02 -0.12770840666E+03  0.19776361406E+03  0.54616977986E+02 0.  0.
          5    1    3    3  502    0 -0.15479987592E+03  0.31839589752E+02 -0.30178054913E+03  0.34068421345E+03  0.41800000000E+01 0.  1.
         -5    1    3    3    0  502  0.16602643700E+02 -0.50157078359E+01 -0.37614733596E+01  0.18232558371E+02  0.41800000000E+01 0.  1.
        -11    1    4    4    0    0  0.30879640079E+02 -0.21707638146E+02 -0.59625040123E+02  0.70568542106E+02  0.00000000000E+00 0. -1.
         11    1    4    4    0    0  0.10731759214E+03 -0.51162437706E+01 -0.68083366533E+02  0.12719507196E+03  0.00000000000E+00 0.  1.
</event>
<event>
 8    1  0.3896452E-010  0.1234515E+03  0.7561462E-02  0.1237509E+00
         -1   -1    0    0    0  501 -0.00000000000E+00  0.00000000000E+00  0.43550396265E+03  0.43550396265E+03  0.00000000000E+00 0.  1.
          1   -1    0    0  501    0  0.00000000000E+00 -0.00000000000E+00 -0.42372527137E+02  0.42372527137E+02  0.00000000000E+00 0. -1.
         25    2    1    2    0    0  0.53698813337E+02  0.47913482549E+02  0.12937201180E+03  0.19381445550E+03  0.12509061259E+03 0.  0.
         23    2    1    2    0    0 -0.53698813337E+02 -0.47913482549E+02  0.26375942371E+03  0.28406203429E+03  0.77090475198E+02 0.  0.
          5    1    3    3  502    0  0.12915422804E+02 -0.42495344221E+02  0.33305445931E+02  0.55672143441E+02  0.41800000000E+01 0.  1.
         -5    1    3    3    0  502  0.40783390533E+02  0.90408826771E+02  0.96066565873E+02  0.13814231206E+03  0.41800000000E+01 0.  1.
        -11    1    4    4    0    0 -0.55294146918E+02 -0.21246320417E+00  0.11082858385E+03  0.12385662204E+03  0.00000000000E+00 0.  1.
         11    1    4    4    0    0  0.15953335809E+01 -0.47701019345E+02  0.15293083985E+03  0.16020541225E+03  0.00000000000E+00 0. -1.
</event>
<event>
 8    1  0.3896452E-010  0.1075582E+03  0.7561462E-02  0.1265160E+00
         -1   -1    0    0    0  501 -0.00000000000E+00  0.00000000000E+00  0.19204585081E+02  0.19204585081E+02  0.00000000000E+00 0.  1.
          1   -1    0    0  501    0  0.00000000000E+00 -0.00000000000E+00 -0.10332727988E+04  0.10332727988E+04  0.00000000000E+00 0. -1.
         25    2    1    2    0    0  0.57665191228E+02  0.52257751768E+02 -0.83188259663E+03  0.84482825168E+03  0.12509985357E+03 0.  0.
         23    2    1    2    0    0 -0.57665191228E+02 -0.52257751768E+02 -0.18218561711E+03  0.20764913222E+03  0.62212668577E+02 0.  0.
          5    1    3    3  502    0 -0.15079907746E+02  0.61559263110E+02 -0.54507569141E+03  0.54876400051E+03  0.41800000000E+01 0.  1.
         -5    1    3    3    0  502  0.72745098974E+02 -0.93015113421E+01 -0.28680690522E+03  0.29606425117E+03  0.41800000000E+01 0.  1.
        -11    1    4    4    0    0 -0.30162523532E+02 -0.32074828344E+02 -0.34113963061E+02  0.55698607836E+02  0.00000000000E+00 0.  1.
         11    1    4    4    0    0 -0.27502667696E+02 -0.20182923424E+02 -0.14807165405E+03  0.15195052439E+03  0.00000000000E+00 0. -1.
</event>
<event>
 8    1  0.3896452E-010  0.7383068E+02  0.7561462E-02  0.1347531E+00
          1   -1    0    0  501    0  0.00000000000E+00  0.00000000000E+00  0.79612852748E+02  0.79612852748E+02  0.00000000000E+00 0. -1.
         -1   -1    0    0    0  501 -0.00000000000E+00 -0.00000000000E+00 -0.25318188275E+03  0.25318188275E+03  0.00000000000E+00 0.  1.
         25    2    1    2    0    0 -0.39476345051E+02  0.30469799795E+02 -0.19942960050E+03  0.24063705420E+03  0.12508891150E+03 0.  0.
         23    2    1    2    0    0  0.39476345051E+02 -0.30469799795E+02  0.25860570497E+02  0.92157681301E+02  0.73058049510E+02 0.  0.
          5    1    3    3  502    0 -0.32140781955E+02  0.48832575798E+02 -0.22853255054E+02  0.62907821377E+02  0.41800000000E+01 0.  1.
         -5    1    3    3    0  502 -0.73355630957E+01 -0.18362776003E+02 -0.17657634545E+03  0.17772923282E+03  0.41800000000E+01 0.  1.
        -11    1    4    4    0    0  0.68534556683E+01 -0.35213935711E+02  0.42180521784E+02  0.55373166253E+02  0.00000000000E+00 0. -1.
         11    1    4    4    0    0  0.32622889383E+02  0.47441359163E+01 -0.16319951288E+02  0.36784515048E+02  0.00000000000E+00 0.  1.
</event>
<event>
 8    1  0.3896452E-010  0.7841321E+02  0.7561462E-02  0.1333616E+00
         -2   -1    0    0    0  501 -0.00000000000E+00  0.00000000000E+00  0.39512521448E+03  0.39512521448E+03  0.00000000000E+00 0. -1.
          2   -1    0    0  501    0  0.00000000000E+00 -0.00000000000E+00 -0.33151210229E+02  0.33151210229E+02  0.00000000000E+00 0.  1.
         25    2    1    2    0    0  0.30543055274E+02  0.32739364110E+02  0.29136106315E+03  0.32022366659E+03  0.12508870189E+03 0.  0.
         23    2    1    2    0    0 -0.30543055274E+02 -0.32739364110E+02  0.70612941105E+02  0.10805275812E+03  0.68443165455E+02 0.  0.
          5    1    3    3  502    0  0.54619370160E+02  0.71933882565E+01  0.44770112238E+02  0.71111572765E+02  0.41800000000E+01 0.  1.
         -5    1    3    3    0  502 -0.24076314886E+02  0.25545975854E+02  0.24659095091E+03  0.24911209383E+03  0.41800000000E+01 0.  1.
        -11    1    4    4    0    0 -0.43605594952E+02 -0.29859452098E+02  0.76870582925E+02  0.93285161252E+02  0.00000000000E+00 0. -1.
         11    1    4    4    0    0  0.13062539678E+02 -0.28799120122E+01 -0.62576418196E+01  0.14767596865E+02  0.00000000000E+00 0.  1.
</event>
<event>
 8    1  0.3896452E-010  0.2216592E+03  0.7561462E-02  0.1132652E+00
         -1   -1    0    0    0  501 -0.00000000000E+00  0.00000000000E+00  0.11001695708E+04  0.11001695708E+04  0.00000000000E+00 0.  1.
          1   -1    0    0  501    0  0.00000000000E+00 -0.00000000000E+00 -0.49594875463E+02  0.49594875463E+02  0.00000000000E+00 0. -1.
         25    2    1    2    0    0  0.19866908742E+03  0.68731046994E+02  0.51723371235E+03  0.57216473410E+03  0.12509359152E+03 0.  0.
         23    2    1    2    0    0 -0.19866908742E+03 -0.68731046994E+02  0.53334098294E+03  0.57759971212E+03  0.70536942337E+02 0.  0.
          5    1    3    3  502    0  0.12408353747E+03  0.80255848454E+02  0.43968527671E+03  0.46387319435E+03  0.41800000000E+01 0. -1.
         -5    1    3    3    0  502  0.74585549958E+02 -0.11524801461E+02  0.77548435636E+02  0.10829153975E+03  0.41800000000E+01 0. -1.
        -11    1    4    4    0    0 -0.10831346474E+03 -0.71005231517E+02  0.27675705300E+03  0.30556180378E+03  0.00000000000E+00 0.  1.
         11    1    4    4    0    0 -0.90355622686E+02  0.22741845236E+01  0.25658392994E+03  0.27203790833E+03  0.00000000000E+00 0. -1.
</event>
<event>
 8    1  0.3896452E-010  0.9668395E+02  0.7561462E-02  0.1287428E+00
         -3   -1    0    0    0  501 -0.00000000000E+00  0.00000000000E+00  0.86440658609E+02  0.86440658609E+02  0.00000000000E+00 0.  1.
          3   -1    0    0  501    0  0.00000000000E+00 -0.00000000000E+00 -0.24211037822E+03  0.24211037822E+03  0.00000000000E+00 0. -1.
         25    2    1    2    0    0  0.11822590033E+02 -0.64094408736E+02 -0.17616545738E+03  0.22567408191E+03  0.12508659403E+03 0.  0.
         23    2    1    2    0    0 -0.11822590033E+02  0.64094408736E+02  0.20495737766E+02  0.10287695492E+03  0.76913755079E+02 0.  0.
          5    1    3    3  502    0 -0.28214007049E+02 -0.20127706298E+02 -0.16020383861E+03  0.16396309664E+03  0.41800000000E+01 0.  1.
         -5    1    3    3    0  502  0.40036597082E+02 -0.43966702438E+02 -0.15961618765E+02  0.61710985268E+02  0.41800000000E+01 0.  1.
        -11    1    4    4    0    0  0.28779227520E+02  0.46305833548E+02  0.21322380954E+02  0.58541592793E+02  0.00000000000E+00 0.  1.
         11    1    4    4    0    0 -0.40601817553E+02  0.17788575188E+02 -0.82664318739E+00  0.44335362125E+02  0.00000000000E+00 0. -1.
</event>
<event>
 8    1  0.3896452E-010  0.1589495E+03  0.7561462E-02  0.1189888E+00
         -2   -1    0    0    0  501 -0.00000000000E+00  0.00000000000E+00  0.35348810574E+03  0.35348810574E+03  0.00000000000E+00 0.  1.
          2   -1    0    0  501    0  0.00000000000E+00 -0.00000000000E+00 -0.22167146896E+03  0.22167146896E+03  0.00000000000E+00 0. -1.
         25    2    1    2    0    0  0.18791718012E+02  0.15199809661E+03  0.28743079273E+03  0.34888762319E+03  0.12509821327E+03 0.  0.
         23    2    1    2    0    0 -0.18791718012E+02 -0.15199809661E+03 -0.15561415595E+03  0.22627195152E+03  0.59385860881E+02 0.  0.
          5    1    3    3  502    0 -0.13466804680E+02  0.39511163314E+02  0.39050127364E+01  0.42133221799E+02  0.41800000000E+01 0. -1.
         -5    1    3    3    0  502  0.32258522692E+02  0.11248693329E+03  0.28352578000E+03  0.30675440139E+03  0.41800000000E+01 0. -1.
        -11    1    4    4    0    0 -0.20791060188E+02 -0.28192257223E+02 -0.61371294620E+02  0.70664753268E+02  0.00000000000E+00 0. -1.
         11    1    4    4    0    0  0.19993421758E+01 -0.12380583939E+03 -0.94242861328E+02  0.15560719825E+03  0.00000000000E+00 0.  1.
</event>
<event>
 7    1  0.3896452E-010  0.8161273E+02  0.7561462E-02  0.1324536E+00
         -2   -1    0    0    0  501 -0.00000000000E+00  0.00000000000E+00  0.26145303036E+03  0.26145303036E+03  0.00000000000E+00 0.  1.
          2   -1    0    0  501    0  0.00000000000E+00 -0.00000000000E+00 -0.35225542057E+02  0.35225542057E+02  0.00000000000E+00 0. -1.
         25    2    1    2    0    0  0.77022074974E+01 -0.16965019496E+02  0.10896025724E+03  0.16693643070E+03  0.12509315870E+03 0.  0.
          5    1    3    3  502    0  0.35023024965E+02 -0.60514802865E+02  0.39482230365E+02  0.80405053063E+02  0.41800000000E+01 0. -1.
         -5    1    3    3    0  502 -0.27320817468E+02  0.43549783368E+02  0.69478026871E+02  0.86531377641E+02  0.41800000000E+01 0. -1.
        -11    1    1    2    0    0 -0.10511768562E+02  0.28160898411E+02  0.11378043518E+03  0.11768398748E+03  0.00000000000E+00 0.  1.
         11    1    1    2    0    0  0.28095610642E+01 -0.11195878915E+02  0.34867958824E+01  0.12058154236E+02  0.00000000000E+00 0. -1.
</event>
<event>
 7    1  0.3896452E-010  0.5510890E+03  0.7561462E-02  0.1001242E+00
         -2   -1    0    0    0  501 -0.00000000000E+00  0.00000000000E+00  0.30051432735E+03  0.30051432735E+03  0.00000000000E+00 0.  1.
          2   -1    0    0  501    0  0.00000000000E+00 -0.00000000000E+00 -0.10329709155E+04  0.10329709155E+04  0.00000000000E+00 0. -1.
         25    2    1    2    0    0  0.33153553418E+03 -0.42791169905E+03 -0.40735688074E+03  0.68892087158E+03  0.12509239152E+03 0.  0.
          5    1    3    3  502    0  0.32892511755E+03 -0.36793848804E+03 -0.34439291335E+03  0.60182590099E+03  0.41800000000E+01 0.  1.
         -5    1    3    3    0  502  0.26104166243E+01 -0.59973211004E+02 -0.62963967387E+02  0.87094970591E+02  0.41800000000E+01 0.  1.
        -11    1    1    2    0    0 -0.30245521211E+02  0.93823224909E+02 -0.10398128603E+03  0.14328187928E+03  0.00000000000E+00 0.  1.
         11    1    1    2    0    0 -0.30129001297E+03  0.33408847414E+03 -0.22111842134E+03  0.50128249194E+03  0.00000000000E+00 0. -1.
</event>
<event>
 8    1  0.3896452E-010  0.1256864E+03  0.7561462E-02  0.1234000E+00
          1   -1    0    0  501    0  0.00000000000E+00  0.00000000000E+00  0.15543233862E+03  0.15543233862E+03  0.00000000000E+00 0. -1.
         -1   -1    0    0    0  501 -0.00000000000E+00 -0.00000000000E+00 -0.14757017954E+03  0.14757017954E+03  0.00000000000E+00 0.  1.
         25    2    1    2    0    0  0.84254607749E+02  0.42472871337E+02  0.29707473191E+02  0.15947804764E+03  0.12509168633E+03 0.  0.
         23    2    1    2    0    0 -0.84254607749E+02 -0.42472871337E+02 -0.21845314104E+02  0.14352447052E+03  0.10592106572E+03 0.  0.
          5    1    3    3  502    0  0.51518494117E+02  0.65161281716E+02 -0.29283784661E+02  0.88176869502E+02  0.41800000000E+01 0.  1.
         -5    1    3    3    0  502  0.32736113632E+02 -0.22688410380E+02  0.58991257852E+02  0.71301178140E+02  0.41800000000E+01 0.  1.
        -11    1    4    4    0    0 -0.70562076095E+02  0.12359117631E+02 -0.42567847503E+02  0.83329322645E+02  0.00000000000E+00 0.  1.
         11    1    4    4    0    0 -0.13692531654E+02 -0.54831988968E+02  0.20722533399E+02  0.60195147875E+02  0.00000000000E+00 0. -1.
</event>
<event>
 7    1  0.3896452E-010  0.1902607E+03  0.7561462E-02  0.1158226E+00
          1   -1    0    0  501    0  0.00000000000E+00  0.00000000000E+00  0.93899383296E+02  0.93899383296E+02  0.00000000000E+00 0. -1.
         -1   -1    0    0    0  501 -0.00000000000E+00 -0.00000000000E+00 -0.42358188142E+03  0.42358188142E+03  0.00000000000E+00 0.  1.
         25    2    1    2    0    0  0.58973185089E+01 -0.17603563967E+03 -0.16467402752E+03  0.27163804347E+03  0.12508543689E+03 0.  0.
          5    1    3    3  502    0  0.11850043798E+02 -0.18606245424E+03 -0.11201557382E+03  0.21754222945E+03  0.41800000000E+01 0. -1.
         -5    1    3    3    0  502 -0.59527252888E+01  0.10026814571E+02 -0.52658453700E+02  0.54095814024E+02  0.41800000000E+01 0. -1.
        -11    1    1    2    0    0  0.17663454078E+02  0.42095210146E+02 -0.50327998262E+02  0.67947860424E+02  0.00000000000E+00 0. -1.
         11    1    1    2    0    0 -0.23560772587E+02  0.13394042952E+03 -0.11468047234E+03  0.17789536082E+03  0.00000000000E+00 0.  1.
</event>
<event>
 7    1  0.3896452E-010  0.1361886E+03  0.7561462E-02  0.1218551E+00
          1   -1    0    0  501    0  0.00000000000E+00  0.00000000000E+00  0.17217536094E+03  0.17217536094E+03  0.00000000000E+00 0.  1.
         -1   -1    0    0    0  501 -0.00000000000E+00 -0.00000000000E+00 -0.26027687824E+03  0.26027687824E+03  0.00000000000E+00 0. -1.
         25    2    1    2    0    0 -0.75827757316E+02 -0.78785135102E+02  0.82215182182E+02  0.18537473147E+03  0.12509000197E+03 0.  0.
          5    1    3    3  502    0  0.14947773559E+02  0.89419024461E+01  0.52704193945E+02  0.55665051990E+02  0.41800000000E+01 0. -1.
         -5    1    3    3    0  502 -0.90775530876E+02 -0.87727037548E+02  0.29510988238E+02  0.12970967948E+03  0.41800000000E+01 0. -1.
        -11    1    1    2    0    0 -0.11942895378E+02  0.32989022989E+01  0.20462661954E+02  0.23921455654E+02  0.00000000000E+00 0.  1.
         11    1    1    2    0    0  0.87770652694E+02  0.75486232803E+02 -0.19077936145E+03  0.22315605206E+03  0.00000000000E+00 0. -1.
</event>
<event>
 8    1  0.3896452E-010  0.9209298E+02  0.7561462E-02  0.1297861E+00
          1   -1    0    0  501    0  0.00000000000E+00  0.00000000000E+00  0.59545052258E+02  0.59545052258E+02  0.00000000000E+00 0. -1.
         -1   -1    0    0    0  501 -0.00000000000E+00 -0.00000000000E+00 -0.29744172284E+03  0.29744172284E+03  0.00000000000E+00 0.  1.
         25    2    1    2    0    0  0.79797352964E+02  0.27507788583E+02 -0.13324295103E+03  0.20130978320E+03  0.12509056256E+03 0.  0.
         23    2    1    2    0    0 -0.79797352964E+02 -0.27507788583E+02 -0.10465371956E+03  0.15567699190E+03  0.78476931750E+02 0.  0.
          5    1    3    3  502    0  0.36625655853E+02  0.37064285479E+02 -0.14601949137E+03  0.15509469425E+03  0.41800000000E+01 0.  1.
         -5    1    3    3    0  502  0.43171697111E+02 -0.95564968956E+01  0.12776540335E+02  0.46215088957E+02  0.41800000000E+01 0.  1.
        -11    1    4    4    0    0 -0.39681525208E+02 -0.15427761660E+01 -0.10008262318E+03  0.10767327925E+03  0.00000000000E+00 0.  1.
         11    1    4    4    0    0 -0.40115827757E+02 -0.25965012417E+02 -0.45710963779E+01  0.48003712653E+02  0.00000000000E+00 0. -1.
</event>
<event>
 7    1  0.3896452E-010  0.1400368E+03  0.7561462E-02  0.1213279E+00
          2   -1    0    0  501    0  0.00000000000E+00  0.00000000000E+00  0.11496909235E+04  0.11496909235E+04  0.00000000000E+00 0. -1.
         -2   -1    0    0    0  501 -0.00000000000E+00 -0.00000000000E+00 -0.26626854453E+02  0.26626854453E+02  0.00000000000E+00 0.  1.
         25    2    1    2    0    0  0.30722549727E+02 -0.11266232711E+03  0.95642748005E+03  0.97161578892E+03  0.12508813569E+03 0.  0.
          5    1    3    3  502    0 -0.31172985843E+02 -0.89746087345E+02  0.71491447636E+03  0.72121168609E+03  0.41800000000E+01 0.  1.
         -5    1    3    3    0  502  0.61895535570E+02 -0.22916239765E+02  0.24151300369E+03  0.25040410284E+03  0.41800000000E+01 0.  1.
        -11    1    1    2    0    0 -0.17259937648E+02  0.95409773456E+02  0.13819450122E+03  0.16881543320E+03  0.00000000000E+00 0. -1.
         11    1    1    2    0    0 -0.13462612079E+02  0.17252553654E+02  0.28442087750E+02  0.35886555799E+02  0.00000000000E+00 0.  1.
</event>
<event>
 8    1  0.3896452E-010  0.7278693E+02  0.7561462E-02  0.1350864E+00
         -1   -1    0    0    0  501 -0.00000000000E+00  0.00000000000E+00  0.59343976846E+02  0.59343976846E+02  0.00000000000E+00 0.  1.
          1   -1    0    0  501    0  0.00000000000E+00 -0.00000000000E+00 -0.19192152232E+03  0.19192152232E+03  0.00000000000E+00 0. -1.
         25    2    1    2    0    0  0.10953149159E+02 -0.30579364599E+02 -0.74546140260E+02  0.14918876292E+03  0.12508033794E+03 0.  0.
         23    2    1    2    0    0 -0.10953149159E+02  0.30579364599E+02 -0.58031405210E+02  0.10207673624E+03  0.77439957869E+02 0.  0.
          5    1    3    3  502    0 -0.25434967836E+02 -0.39022525102E+02  0.17366313100E+02  0.49887436143E+02  0.41800000000E+01 0.  1.
         -5    1    3    3    0  502  0.36388116996E+02  0.84431605033E+01 -0.91912453361E+02  0.99301326782E+02  0.41800000000E+01 0.  1.
        -11    1    4    4    0    0 -0.28710920804E+02  0.36224891080E+01 -0.63082750165E+02  0.69403694203E+02  0.00000000000E+00 0. -1.
         11    1    4    4    0    0  0.17757771645E+02  0.26956875491E+02  0.50513449542E+01  0.32673042036E+02  0.00000000000E+00 0.  1.
</event>
<event>
 8    1  0.5019612E-010  0.9666113E+02  0.7561462E-02  0.1287478E+00
         -2   -1    0    0    0  501 -0.00000000000E+00  0.00000000000E+00  0.93413288656E+02  0.93413288656E+02  0.00000000000E+00 0.  1.
          2   -1    0    0  501    0  0.00000000000E+00 -0.00000000000E+00 -0.17158926687E+03  0.17158926687E+03  0.00000000000E+00 0. -1.
         25    2    1    2    0    0 -0.37972234641E+02 -0.22634393551E+01 -0.79698121870E+02  0.15311963555E+03  0.12508724316E+03 0.  0.
         23    2    1    2    0    0  0.37972234641E+02  0.22634393551E+01  0.15221436530E+01  0.11188291998E+03  0.10520673505E+03 0.  0.
          5    1    3    3  502    0  0.20545721819E+02 -0.12919144903E+02 -0.89380912738E+02  0.92711654887E+02  0.41800000000E+01 0.  1.
         -5    1    3    3    0  502 -0.58517956460E+02  0.10655705548E+02  0.96827908677E+01  0.60407980665E+02  0.41800000000E+01 0.  1.
        -11    1    4    4    0    0 -0.86394658116E+01  0.45004872608E+02 -0.11650008853E+02  0.47284264130E+02  0.00000000000E+00 0.  1.
         11    1    4    4    0    0  0.46611700452E+02 -0.42741433253E+02  0.13172152506E+02  0.64598655847E+02  0.00000000000E+00 0. -1.
</event>
<event>
 8    1  0.3896452E-010  0.1575095E+03  0.7561462E-02  0.1191538E+00
         -1   -1    0    0    0  501 -0.00000000000E+00  0.00000000000E+00  0.39336390904E+03  0.39336390904E+03  0.00000000000E+00 0.  1.
          1   -1    0    0  501    0  0.00000000000E+00 -0.00000000000E+00 -0.68539718039E+02  0.68539718039E+02  0.00000000000E+00 0. -1.
         25    2    1    2    0    0  0.11064848379E+03  0.13530380122E+02  0.14462802236E+03  0.22133808077E+03  0.12508846068E+03 0.  0.
         23    2    1    2    0    0 -0.11064848379E+03 -0.13530380122E+02  0.18019616864E+03  0.24056554631E+03  0.11390770267E+03 0.  0.
          5    1    3    3  502    0  0.98402317156E+02  0.55235939105E+02  0.64398318786E+02  0.12999477241E+03  0.41800000000E+01 0.  1.
         -5    1    3    3    0  502  0.12246166629E+02 -0.41705558983E+02  0.80229703570E+02  0.91343308360E+02  0.41800000000E+01 0.  1.
        -11    1    4    4    0    0 -0.54762132362E+02  0.49762474609E+02  0.71161293632E+02  0.10266023929E+03  0.00000000000E+00 0. -1.
         11    1    4    4    0    0 -0.55886351423E+02 -0.63292854731E+02  0.10903487501E+03  0.13790530702E+03  0.00000000000E+00 0.  1.
</event>
<event>
 7    1  0.3896452E-010  0.1103679E+03  0.7561462E-02  0.1259890E+00
         -1   -1    0    0    0  501 -0.00000000000E+00  0.00000000000E+00  0.14946805367E+03  0.14946805367E+03  0.00000000000E+00 0.  1.
          1   -1    0    0  501    0  0.00000000000E+00 -0.00000000000E+00 -0.10498717932E+03  0.10498717932E+03  0.00000000000E+00 0. -1.
         25    2    1    2    0    0  0.77405687402E+02 -0.45711936541E+02  0.22249663018E+02  0.15563718832E+03  0.12508663118E+03 0.  0.
          5    1    3    3  502    0 -0.13421536900E+02  0.11608122625E+02 -0.30787790091E+02  0.35780533567E+02  0.41800000000E+01 0. -1.
         -5    1    3    3    0  502  0.90827224302E+02 -0.57320059165E+02  0.53037453109E+02  0.11985665476E+03  0.41800000000E+01 0. -1.
        -11    1    1    2    0    0 -0.76402599647E+02  0.34612549895E+02  0.24629031466E+02  0.87418390708E+02  0.00000000000E+00 0.  1.
         11    1    1    2    0    0 -0.10030877552E+01  0.11099386646E+02 -0.23978201380E+01  0.11399653958E+02  0.00000000000E+00 0. -1.
</event>
<event>
 8    1  0.3896452E-010  0.1063322E+03  0.7561462E-02  0.1267517E+00
         -2   -1    0    0    0  501 -0.00000000000E+00  0.00000000000E+00  0.82259422822E+02  0.82259422822E+02  0.00000000000E+00 0.  1.
          2   -1    0    0  501    0  0.00000000000E+00 -0.00000000000E+00 -0.17489486639E+03  0.17489486639E+03  0.00000000000E+00 0. -1.
         25    2    1    2    0    0 -0.55774757617E+02 -0.44495299809E+02 -0.27966472195E+02  0.14669964087E+03  0.12509198924E+03 0.  0.
         23    2    1    2    0    0  0.55774757617E+02  0.44495299809E+02 -0.64668971375E+02  0.11045464835E+03  0.54106359982E+02 0.  0.
          5    1    3    3  502    0 -0.86216693185E+00  0.30722876847E+02 -0.42223530141E+02  0.52392150091E+02  0.41800000000E+01 0.  1.
         -5    1    3    3    0  502 -0.54912590685E+02 -0.75218176656E+02  0.14257057946E+02  0.94307490776E+02  0.41800000000E+01 0.  1.
        -11    1    4    4    0    0  0.79313289880E+01  0.39535347975E+02 -0.20882027745E+02  0.45409347075E+02  0.00000000000E+00 0. -1.
         11    1    4    4    0    0  0.47843428629E+02  0.49599518340E+01 -0.43786943630E+02  0.65045301273E+02  0.00000000000E+00 0.  1.
</event>
<event>
 8    1  0.3896452E-010  0.2432177E+03  0.7561462E-02  0.1117668E+00
         -1   -1    0    0    0  501 -0.00000000000E+00  0.00000000000E+00  0.27780282093E+03  0.27780282093E+03  0.00000000000E+00 0.  1.
          1   -1    0    0  501    0  0.00000000000E+00 -0.00000000000E+00 -0.22277303939E+03  0.22277303939E+03  0.00000000000E+00 0. -1.
         25    2    1    2    0    0 -0.16359251952E+03  0.14352643299E+03  0.18303158502E+02  0.25168181869E+03  0.12508550211E+03 0.  0.
         23    2    1    2    0    0  0.16359251952E+03 -0.14352643299E+03  0.36726623038E+02  0.24889404163E+03  0.11505237812E+03 0.  0.
          5    1    3    3  502    0 -0.39934753002E+02 -0.11676010292E+02 -0.24734731919E+02  0.48583876716E+02  0.41800000000E+01 0.  1.
         -5    1    3    3    0  502 -0.12365776652E+03  0.15520244328E+03  0.43037890421E+02  0.20309794197E+03  0.41800000000E+01 0.  1.
        -11    1    4    4    0    0  0.32387437902E+02 -0.10426636159E+03  0.18399652634E+02  0.11072022178E+03  0.00000000000E+00 0. -1.
         11    1    4    4    0    0  0.13120508162E+03 -0.39260071398E+02  0.18326970404E+02  0.13817381985E+03  0.00000000000E+00 0.  1.
</event>
<event>
 8    1  0.3896452E-010  0.1156779E+03  0.7561462E-02  0.1250402E+00
         -1   -1    0    0    0  501 -0.00000000000E+00  0.00000000000E+00  0.43479273368E+03  0.43479273368E+03  0.00000000000E+00 0.  1.
          1   -1    0    0  501    0  0.00000000000E+00 -0.00000000000E+00 -0.56574658762E+02  0.56574658762E+02  0.00000000000E+00 0. -1.
         25    2    1    2    0    0 -0.84481859272E+02 -0.62746795344E+02  0.22911642182E+03  0.28144506238E+03  0.12507055416E+03 0.  0.
         23    2    1    2    0    0  0.84481859272E+02  0.62746795344E+02  0.14910165310E+03  0.20992233007E+03  0.10373879135E+03 0.  0.
          5    1    3    3  502    0 -0.94391745338E+02 -0.43721227113E+02  0.81490512616E+02  0.13221014838E+03  0.41800000000E+01 0.  1.
         -5    1    3    3    0  502  0.99098860665E+01 -0.19025568231E+02  0.14762590920E+03  0.14923491400E+03  0.41800000000E+01 0.  1.
        -11    1    4    4    0    0  0.56624776778E+02  0.38650829807E+02  0.15782352710E+03  0.17207125761E+03  0.00000000000E+00 0.  1.
         11    1    4    4    0    0  0.27857082493E+02  0.24095965537E+02 -0.87218739945E+01  0.37851072457E+02  0.00000000000E+00 0. -1.
</event>
<event>
 8    1  0.3896452E-010  0.1098843E+03  0.7561462E-02  0.1260784E+00
          2   -1    0    0  501    0  0.00000000000E+00  0.00000000000E+00  0.33770429053E+03  0.33770429053E+03  0.00000000000E+00 0. -1.
         -2   -1    0    0    0  501 -0.00000000000E+00 -0.00000000000E+00 -0.48893661079E+02  0.48893661079E+02  0.00000000000E+00 0.  1.
         25    2    1    2    0    0 -0.11507945427E+02 -0.53258798761E+02  0.77822127664E+02  0.15707467200E+03  0.12508891468E+03 0.  0.
         23    2    1    2    0    0  0.11507945427E+02  0.53258798761E+02  0.21098850179E+03  0.22952327961E+03  0.72082283146E+02 0.  0.
          5    1    3    3  502    0  0.29901674834E+02  0.30322991403E+02  0.19852631050E+02  0.47171954857E+02  0.41800000000E+01 0. -1.
         -5    1    3    3    0  502 -0.41409620260E+02 -0.83581790164E+02  0.57969496614E+02  0.10990271714E+03  0.41800000000E+01 0. -1.
        -11    1    4    4    0    0  0.14045497269E+02  0.67599490342E+02  0.12961787451E+03  0.14685966254E+03  0.00000000000E+00 0.  1.
         11    1    4    4    0    0 -0.25375518424E+01 -0.14340691581E+02  0.81370627272E+02  0.82663617070E+02  0.00000000000E+00 0. -1.
</event>
<event>
 7    1  0.3896452E-010  0.1852160E+03  0.7561462E-02  0.1162848E+00
         -2   -1    0    0    0  501 -0.00000000000E+00  0.00000000000E+00  0.74617699656E+02  0.74617699656E+02  0.00000000000E+00 0.  1.
          2   -1    0    0  501    0  0.00000000000E+00 -0.00000000000E+00 -0.46307205222E+03  0.46307205222E+03  0.00000000000E+00 0. -1.
         25    2    1    2    0    0 -0.62026084345E+02 -0.14685143398E+03 -0.19135564528E+03  0.27870642988E+03  0.12509081610E+03 0.  0.
          5    1    3    3  502    0  0.38031509976E+02 -0.29538916547E+02 -0.48398151000E+02  0.68401730695E+02  0.41800000000E+01 0.  1.
         -5    1    3    3    0  502 -0.10005759432E+03 -0.11731251743E+03 -0.14295749428E+03  0.21030469918E+03  0.41800000000E+01 0.  1.
        -11    1    1    2    0    0  0.68076944478E+02  0.10223782057E+03 -0.13930198922E+03  0.18572045263E+03  0.00000000000E+00 0. -1.
         11    1    1    2    0    0 -0.60508601331E+01  0.44613613405E+02 -0.57796718055E+02  0.73262869363E+02  0.00000000000E+00 0.  1.
</event>
<event>
 8    1  0.3896452E-010  0.7969959E+02  0.7561462E-02  0.1329906E+00
         -2   -1    0    0    0  501 -0.00000000000E+00  0.00000000000E+00  0.33091289166E+02  0.33091289166E+02  0.00000000000E+00 0.  1.
          2   -1    0    0  501    0  0.00000000000E+00 -0.00000000000E+00 -0.10345184853E+04  0.10345184853E+04  0.00000000000E+00 0. -1.
         25    2    1    2    0    0 -0.20994974153E+02 -0.59045885409E+02 -0.96180699829E+03  0.97192992674E+03  0.12509146659E+03 0.  0.
         23    2    1    2    0    0  0.20994974153E+02  0.59045885409E+02 -0.39620197848E+02  0.95679847728E+02  0.60478654584E+02 0.  0.
          5    1    3    3  502    0 -0.27425366559E+01  0.99667421711E+01 -0.46101636426E+01  0.12065797347E+02  0.41800000000E+01 0.  1.
         -5    1    3    3    0  502 -0.18252437497E+02 -0.69012627580E+02 -0.95719683464E+03  0.95986412939E+03  0.41800000000E+01 0.  1.
        -11    1    4    4    0    0  0.29351877919E+02  0.17097794617E+02 -0.40549479924E+02  0.52897331126E+02  0.00000000000E+00 0.  1.
         11    1    4    4    0    0 -0.83569037655E+01  0.41948090792E+02  0.92928207655E+00  0.42782516602E+02  0.00000000000E+00 0. -1.
</event>
<event>
 8    1  0.3896452E-010  0.1156047E+03  0.7561462E-02  0.1250529E+00
         -2   -1    0    0    0  501 -0.00000000000E+00  0.00000000000E+00  0.21312869292E+03  0.21312869292E+03  0.00000000000E+00 0.  1.
          2   -1    0    0  501    0  0.00000000000E+00 -0.00000000000E+00 -0.94406603221E+02  0.94406603221E+02  0.00000000000E+00 0. -1.
         25    2    1    2    0    0 -0.83676725892E+02  0.49078395825E+02  0.44249149168E+02  0.16436071009E+03  0.12508386158E+03 0.  0.
         23    2    1    2    0    0  0.83676725892E+02 -0.49078395825E+02  0.74472940533E+02  0.14317458605E+03  0.74446355362E+02 0.  0.
          5    1    3    3  502    0 -0.86776986027E+01  0.57716061376E+02  0.63488767911E+02  0.86340849223E+02  0.41800000000E+01 0. -1.
         -5    1    3    3    0  502 -0.74999027289E+02 -0.86376655508E+01 -0.19239618743E+02  0.78019860868E+02  0.41800000000E+01 0. -1.
        -11    1    4    4    0    0  0.64761430747E+02 -0.39831254548E+02  0.89405406185E+02  0.11736225290E+03  0.00000000000E+00 0.  1.
         11    1    4    4    0    0  0.18915295145E+02 -0.92471412768E+01 -0.14932465651E+02  0.25812333150E+02  0.00000000000E+00 0. -1.
</event>
<event>
 7    1  0.3896452E-010  0.1196900E+03  0.7561462E-02  0.1243609E+00
         -1   -1    0    0    0  501 -0.00000000000E+00  0.00000000000E+00  0.38087057901E+02  0.38087057901E+02  0.00000000000E+00 0.  1.
          1   -1    0    0  501    0  0.00000000000E+00 -0.00000000000E+00 -0.52686062345E+03  0.52686062345E+03  0.00000000000E+00 0. -1.
         25    2    1    2    0    0  0.76746372780E+02  0.34557834329E+02 -0.15158745021E+03  0.21380333869E+03  0.12509541529E+03 0.  0.
          5    1    3    3  502    0  0.55940856642E+02  0.81535681465E+02 -0.10551515035E+03  0.14466639605E+03  0.41800000000E+01 0.  1.
         -5    1    3    3    0  502  0.20805516137E+02 -0.46977847136E+02 -0.46072299859E+02  0.69136942640E+02  0.41800000000E+01 0.  1.
        -11    1    1    2    0    0 -0.30054002060E+02  0.11575870125E+01 -0.52976067417E+02  0.60918361489E+02  0.00000000000E+00 0.  1.
         11    1    1    2    0    0 -0.46692370719E+02 -0.35715421341E+02 -0.28421004792E+03  0.29022598117E+03  0.00000000000E+00 0. -1.
</event>
<event>
 8    1  0.3896452E-010  0.1402402E+03  0.7561462E-02  0.1213006E+00
         -2   -1    0    0    0  501 -0.00000000000E+00  0.00000000000E+00  0.39322415604E+02  0.39322415604E+02  0.00000000000E+00 0.  1.
          2   -1    0    0  501    0  0.00000000000E+00 -0.00000000000E+00 -0.72837468140E+03  0.72837468140E+03  0.00000000000E+00 0. -1.
         25    2    1    2    0    0  0.35489126009E+02  0.92152922709E+02 -0.58483137301E+03  0.60615750627E+03  0.12509016079E+03 0.  0.
         23    2    1    2    0    0 -0.35489126009E+02 -0.92152922709E+02 -0.10422089278E+03  0.16153959073E+03  0.74036515662E+02 0.  0.
          5    1    3    3  502    0 -0.41942443316E+02  0.64471836129E+02 -0.27989905228E+03  0.29030456089E+03  0.41800000000E+01 0.  1.
         -5    1    3    3    0  502  0.77431569325E+02  0.27681086580E+02 -0.30493232073E+03  0.31585294538E+03  0.41800000000E+01 0.  1.
        -11    1    4    4    0    0 -0.24685980675E+02  0.34310836797E+01 -0.98933605184E+01  0.26815080821E+02  0.00000000000E+00 0.  1.
         11    1    4    4    0    0 -0.10803145334E+02 -0.95584006389E+02 -0.94327532263E+02  0.13472450991E+03  0.00000000000E+00 0. -1.
</event>
<event>
 8    1  0.3896452E-010  0.1133272E+03  0.7561462E-02  0.1254530E+00
          4   -1    0    0  501    0  0.00000000000E+00  0.00000000000E+00  0.17455053676E+03  0.17455053676E+03  0.00000000000E+00 0. -1.
         -4   -1    0    0    0  501 -0.00000000000E+00 -0.00000000000E+00 -0.89121832845E+02  0.89121832845E+02  0.00000000000E+00 0.  1.
         25    2    1    2    0    0  0.59534156066E+02 -0.50962147837E+02  0.65468987948E+02  0.16147560639E+03  0.12508687711E+03 0.  0.
         23    2    1    2    0    0 -0.59534156066E+02  0.50962147837E+02  0.19959715968E+02  0.10219676321E+03  0.62484653309E+02 0.  0.
          5    1    3    3  502    0  0.96434061942E+02 -0.18571160501E+02  0.45284356505E+02  0.10822458893E+03  0.41800000000E+01 0.  1.
         -5    1    3    3    0  502 -0.36899905876E+02 -0.32390987335E+02  0.20184631443E+02  0.53251017462E+02  0.41800000000E+01 0.  1.
        -11    1    4    4    0    0 -0.12294070223E+02  0.53229878399E+01  0.32654636488E+02  0.35295943766E+02  0.00000000000E+00 0. -1.
         11    1    4    4    0    0 -0.47240085843E+02  0.45639159997E+02 -0.12694920520E+02  0.66900819447E+02  0.00000000000E+00 0.  1.
</event>
<event>
 8    1  0.3896452E-010  0.1039700E+03  0.7561462E-02  0.1272162E+00
         -2   -1    0    0    0  501 -0.00000000000E+00  0.00000000000E+00  0.10701778571E+03  0.10701778571E+03  0.00000000000E+00 0.  1.
          2   -1    0    0  501    0  0.00000000000E+00 -0.00000000000E+00 -0.11512669902E+03  0.11512669902E+03  0.00000000000E+00 0. -1.
         25    2    1    2    0    0 -0.53415852021E+02 -0.15075866970E+02  0.12843628437E+02  0.13745272136E+03  0.12509099410E+03 0.  0.
         23    2    1    2    0    0  0.53415852021E+02  0.15075866970E+02 -0.20952541746E+02  0.84691763382E+02  0.60441300178E+02 0.  0.
          5    1    3    3  502    0 -0.45341374268E+01  0.47137802851E+02 -0.20141814559E+02  0.51630378205E+02  0.41800000000E+01 0. -1.
         -5    1    3    3    0  502 -0.48881714594E+02 -0.62213669821E+02  0.32985442996E+02  0.85822343151E+02  0.41800000000E+01 0. -1.
        -11    1    4    4    0    0 -0.42054847527E+01 -0.15415355540E+02 -0.92352839970E+01  0.18455615918E+02  0.00000000000E+00 0.  1.
         11    1    4    4    0    0  0.57621336774E+02  0.30491222509E+02 -0.11717257749E+02  0.66236147464E+02  0.00000000000E+00 0. -1.
</event>
<event>
 7    1  0.3896452E-010  0.8058999E+02  0.7561462E-02  0.1327385E+00
         -2   -1    0    0    0  501 -0.00000000000E+00  0.00000000000E+00  0.25807407402E+03  0.25807407402E+03  0.00000000000E+00 0.  1.
          2   -1    0    0  501    0  0.00000000000E+00 -0.00000000000E+00 -0.38930578499E+02  0.38930578499E+02  0.00000000000E+00 0. -1.
         25    2    1    2    0    0 -0.33411045213E+02  0.42202877582E+02  0.18149332774E+03  0.22689699088E+03  0.12508011687E+03 0.  0.
          5    1    3    3  502    0 -0.96769818924E+01 -0.27521071950E+02 -0.15860819668E+01  0.29513411118E+02  0.41800000000E+01 0.  1.
         -5    1    3    3    0  502 -0.23734063320E+02  0.69723949532E+02  0.18307940971E+03  0.19738357976E+03  0.41800000000E+01 0.  1.
        -11    1    1    2    0    0  0.10140010025E+02 -0.46464366411E+00  0.16642011950E+01  0.10286168512E+02  0.00000000000E+00 0. -1.
         11    1    1    2    0    0  0.23271035188E+02 -0.41738233918E+02  0.35985966587E+02  0.59821493132E+02  0.00000000000E+00 0.  1.
</event>
<event>
 8    1  0.3896452E-010  0.1087238E+03  0.7561462E-02  0.1262952E+00
          1   -1    0    0  501    0  0.00000000000E+00  0.00000000000E+00  0.94840655709E+03  0.94840655709E+03  0.00000000000E+00 0. -1.
         -1   -1    0    0    0  501 -0.00000000000E+00 -0.00000000000E+00 -0.13718966093E+02  0.13718966093E+02  0.00000000000E+00 0.  1.
         25    2    1    2    0    0 -0.17956472266E+02 -0.54672721851E+02  0.57722653230E+03  0.59342212759E+03  0.12509120878E+03 0.  0.
         23    2    1    2    0    0  0.17956472266E+02  0.54672721851E+02  0.35746105870E+03  0.36870339559E+03  0.69658050685E+02 0.  0.
          5    1    3    3  502    0 -0.25948032815E+02 -0.88472684691E+02  0.29671808347E+03  0.31074074371E+03  0.41800000000E+01 0.  1.
         -5    1    3    3    0  502  0.79915605491E+01  0.33799962840E+02  0.28050844883E+03  0.28268138388E+03  0.41800000000E+01 0.  1.
        -11    1    4    4    0    0 -0.26678318915E+02  0.25089617242E+02  0.13380903262E+03  0.13873023753E+03  0.00000000000E+00 0.  1.
         11    1    4    4    0    0  0.44634791181E+02  0.29583104609E+02  0.22365202607E+03  0.22997315806E+03  0.00000000000E+00 0. -1.
</event>
<event>
 8    1  0.3896452E-010  0.1356496E+03  0.7561462E-02  0.1219306E+00
         -2   -1    0    0    0  501 -0.00000000000E+00  0.00000000000E+00  0.74874526517E+02  0.74874526517E+02  0.00000000000E+00 0.  1.
          2   -1    0    0  501    0  0.00000000000E+00 -0.00000000000E+00 -0.74685585791E+03  0.74685585791E+03  0.00000000000E+00 0. -1.
         25    2    1    2    0    0  0.93950979993E+02  0.12966385989E+02 -0.65619806948E+03  0.67471612690E+03  0.12510408346E+03 0.  0.
         23    2    1    2    0    0 -0.93950979993E+02 -0.12966385989E+02 -0.15783261911E+02  0.14701425753E+03  0.11121675572E+03 0.  0.
          5    1    3    3  502    0  0.10284901795E+03  0.51218455741E+02 -0.53612116002E+03  0.54831069780E+03  0.41800000000E+01 0. -1.
         -5    1    3    3    0  502 -0.88980379518E+01 -0.38252069752E+02 -0.12007690946E+03  0.12640542910E+03  0.41800000000E+01 0. -1.
        -11    1    4    4    0    0 -0.49526685210E+02  0.27577631507E+02 -0.51901553640E+02  0.76858243395E+02  0.00000000000E+00 0. -1.
         11    1    4    4    0    0 -0.44424294784E+02 -0.40544017496E+02  0.36118291729E+02  0.70156014134E+02  0.00000000000E+00 0.  1.
</event>
<event>
 8    1  0.3896452E-010  0.1321308E+03  0.7561462E-02  0.1224328E+00
          2   -1    0    0  501    0  0.00000000000E+00  0.00000000000E+00  0.54193221470E+02  0.54193221470E+02  0.00000000000E+00 0.  1.
         -2   -1    0    0    0  501 -0.00000000000E+00 -0.00000000000E+00 -0.60797860094E+03  0.60797860094E+03  0.00000000000E+00 0. -1.
         25    2    1    2    0    0  0.54887055558E+02 -0.11089638913E+03 -0.39809670983E+03  0.43524572972E+03  0.12508899580E+03 0.  0.
         23    2    1    2    0    0 -0.54887055558E+02  0.11089638913E+03 -0.15568866965E+03  0.22692609270E+03  0.10929726300E+03 0.  0.
          5    1    3    3  502    0  0.49917008765E+01 -0.79577699531E+02 -0.84965752026E+02  0.11659407685E+03  0.41800000000E+01 0.  1.
         -5    1    3    3    0  502  0.49895354682E+02 -0.31318689602E+02 -0.31313095780E+03  0.31865165286E+03  0.41800000000E+01 0.  1.
        -11    1    4    4    0    0 -0.50703625063E+02  0.83823206143E+02 -0.36362964020E+02  0.10449618479E+03  0.00000000000E+00 0.  1.
         11    1    4    4    0    0 -0.41834304950E+01  0.27073182990E+02 -0.11932570563E+03  0.12242990791E+03  0.00000000000E+00 0. -1.
</event>
<event>
 8    1  0.3896452E-010  0.1991642E+03  0.7561462E-02  0.1150446E+00
         -1   -1    0    0    0  501 -0.00000000000E+00  0.00000000000E+00  0.31511898672E+03  0.31511898672E+03  0.00000000000E+00 0.  1.
          1   -1    0    0  501    0  0.00000000000E+00 -0.00000000000E+00 -0.14793066080E+03  0.14793066080E+03  0.00000000000E+00 0. -1.
         25    2    1    2    0    0  0.95316624087E+02 -0.16127318862E+03  0.11809980096E+03  0.25434365238E+03  0.12509528498E+03 0.  0.
         23    2    1    2    0    0 -0.95316624087E+02  0.16127318862E+03  0.49088524955E+02  0.20870599514E+03  0.77808797254E+02 0.  0.
          5    1    3    3  502    0 -0.15932462291E+02 -0.28583738222E+02  0.65480080550E+02  0.73321121065E+02  0.41800000000E+01 0.  1.
         -5    1    3    3    0  502  0.11124908638E+03 -0.13268945040E+03  0.52619720409E+02  0.18102253131E+03  0.41800000000E+01 0.  1.
        -11    1    4    4    0    0 -0.12609892835E+02  0.60329336890E+02 -0.14832376592E+02  0.63392725784E+02  0.00000000000E+00 0. -1.
         11    1    4    4    0    0 -0.82706731252E+02  0.10094385173E+03  0.63920901547E+02  0.14531326936E+03  0.00000000000E+00 0.  1.
</event>
<event>
 7    1  0.3896452E-010  0.1487031E+03  0.7561462E-02  0.1202076E+00
         -1   -1    0    0    0  501 -0.00000000000E+00  0.00000000000E+00  0.74955239707E+02  0.74955239707E+02  0.00000000000E+00 0.  1.
          1   -1    0    0  501    0  0.00000000000E+00 -0.00000000000E+00 -0.31961976337E+03  0.31961976337E+03  0.00000000000E+00 0. -1.
         25    2    1    2    0    0 -0.45705686713E+02  0.11750608786E+03 -0.16350628277E+03  0.24140903713E+03  0.12508928099E+03 0.  0.
          5    1    3    3  502    0  0.32004802898E+02  0.68623400764E+02 -0.35253925925E+02  0.83628883970E+02  0.41800000000E+01 0. -1.
         -5    1    3    3    0  502 -0.77710489611E+02  0.48882687100E+02 -0.12825235684E+03  0.15778015316E+03  0.41800000000E+01 0. -1.
        -11    1    1    2    0    0  0.24244225023E+02 -0.25468540602E+02 -0.26100024518E+02  0.43790869907E+02  0.00000000000E+00 0.  1.
         11    1    1    2    0    0  0.21461461690E+02 -0.92037547262E+02 -0.55058216373E+02  0.10937509604E+03  0.00000000000E+00 0. -1.
</event>
<event>
 8    1  0.3896452E-010  0.1023851E+03  0.7561462E-02  0.1275359E+00
          2   -1    0    0  501    0  0.00000000000E+00  0.00000000000E+00  0.83178369520E+02  0.83178369520E+02  0.00000000000E+00 0.  1.
         -2   -1    0    0    0  501 -0.00000000000E+00 -0.00000000000E+00 -0.22859510115E+03  0.22859510115E+03  0.00000000000E+00 0. -1.
         25    2    1    2    0    0  0.57774356620E+02  0.53468860005E+02 -0.15402212253E+03  0.21346682093E+03  0.12509386130E+03 0.  0.
         23    2    1    2    0    0 -0.57774356620E+02 -0.53468860005E+02  0.86053909015E+01  0.98306649744E+02  0.58252462250E+02 0.  0.
          5    1    3    3  502    0 -0.14974438890E+02 -0.45498291122E+01  0.13962844597E+02  0.21386168293E+02  0.41800000000E+01 0.  1.
         -5    1    3    3    0  502  0.72748795510E+02  0.58018689118E+02 -0.16798496713E+03  0.19208065263E+03  0.41800000000E+01 0.  1.
        -11    1    4    4    0    0 -0.51075659667E+02 -0.10762118385E+02 -0.63093890454E+01  0.52577129940E+02  0.00000000000E+00 0. -1.
         11    1    4    4    0    0 -0.66986969528E+01 -0.42706741620E+02  0.14914779947E+02  0.45729519804E+02  0.00000000000E+00 0.  1.
</event>
<event>
 8    1  0.3896452E-010  0.1275741E+03  0.7561462E-02  0.1231100E+00
          2   -1    0    0  501    0  0.00000000000E+00  0.00000000000E+00  0.33824450338E+03  0.33824450338E+03  0.00000000000E+00 0. -1.
         -2   -1    0    0    0  501 -0.00000000000E+00 -0.00000000000E+00 -0.83690300216E+02  0.83690300216E+02  0.00000000000E+00 0.  1.
         25    2    1    2    0    0 -0.25896957896E+02 -0.11531893583E+03  0.16605038544E+03  0.23914074495E+03  0.12508579456E+03 0.  0.
         23    2    1    2    0    0  0.25896957896E+02  0.11531893583E+03  0.88503817721E+02  0.18279405865E+03  0.10775728624E+03 0.  0.
          5    1    3    3  502    0 -0.46702163552E+02 -0.98535220075E+02  0.50097154498E+02  0.12007280693E+03  0.41800000000E+01 0.  1.
         -5    1    3    3    0  502  0.20805205656E+02 -0.16783715751E+02  0.11595323094E+03  0.11906793802E+03  0.41800000000E+01 0.  1.
        -11    1    4    4    0    0  0.16501580039E+02  0.43254185053E+02 -0.21426448917E+02  0.51012933474E+02  0.00000000000E+00 0.  1.
         11    1    4    4    0    0  0.93953778569E+01  0.72064750773E+02  0.10993026664E+03  0.13178112517E+03  0.00000000000E+00 0. -1.
</event>
<event>
 7    1  0.3896452E-010  0.1705161E+03  0.7561462E-02  0.1177311E+00
         -4   -1    0    0    0  501 -0.00000000000E+00  0.00000000000E+00  0.61288800601E+03  0.61288800601E+03  0.00000000000E+00 0.  1.
          4   -1    0    0  501    0  0.00000000000E+00 -0.00000000000E+00 -0.60229601194E+02  0.60229601194E+02  0.00000000000E+00 0. -1.
         25    2    1    2    0    0  0.65707811426E+02 -0.68771931303E+02  0.30870297113E+03  0.34639703037E+03  0.12508510403E+03 0.  0.
          5    1    3    3  502    0  0.83277491298E+02 -0.16730658549E+02  0.10365161719E+03  0.13407529839E+03  0.41800000000E+01 0. -1.
         -5    1    3    3    0  502 -0.17569679871E+02 -0.52041272754E+02  0.20505135394E+03  0.21232173198E+03  0.41800000000E+01 0. -1.
        -11    1    1    2    0    0 -0.11928995150E+03  0.75281650556E+01  0.20310972178E+03  0.23566994904E+03  0.00000000000E+00 0.  1.
         11    1    1    2    0    0  0.53582140078E+02  0.61243766247E+02  0.40845711907E+02  0.91050627788E+02  0.00000000000E+00 0. -1.
</event>
<event>
 7    1  0.3896452E-010  0.1506366E+03  0.7561462E-02  0.1199693E+00
          1   -1    0    0  501    0  0.00000000000E+00  0.00000000000E+00  0.47252684121E+03  0.47252684121E+03  0.00000000000E+00 0. -1.
         -1   -1    0    0    0  501 -0.00000000000E+00 -0.00000000000E+00 -0.78515083213E+02  0.78515083213E+02  0.00000000000E+00 0.  1.
         25    2    1    2    0    0  0.93270099682E+02 -0.85402302583E+02  0.27174521866E+03  0.32479033016E+03  0.12510167831E+03 0.  0.
          5    1    3    3  502    0 -0.24845010982E+02 -0.53434715570E+01  0.90416577024E+02  0.94013068558E+02  0.41800000000E+01 0. -1.
         -5    1    3    3    0  502  0.11811511066E+03 -0.80058831026E+02  0.18132864164E+03  0.23077726160E+03  0.41800000000E+01 0. -1.
        -11    1    1    2    0    0 -0.45542569514E+02  0.15466235036E+02 -0.26620910582E+02  0.54972747288E+02  0.00000000000E+00 0.  1.
         11    1    1    2    0    0 -0.47727530168E+02  0.69936067547E+02  0.14888744992E+03  0.17127884698E+03  0.00000000000E+00 0. -1.
</event>
<event>
 8    1  0.3896452E-010  0.9979503E+02  0.7561462E-02  0.1280728E+00
         -1   -1    0    0    0  501 -0.00000000000E+00  0.00000000000E+00  0.14540966652E+02  0.14540966652E+02  0.00000000000E+00 0.  1.
          1   -1    0    0  501    0  0.00000000000E+00 -0.00000000000E+00 -0.81069700968E+03  0.81069700968E+03  0.00000000000E+00 0. -1.
         25    2    1    2    0    0  0.48933647019E+02 -0.16305068386E+02 -0.46662607053E+03  0.48584713231E+03  0.12508872532E+03 0.  0.
         23    2    1    2    0    0 -0.48933647019E+02  0.16305068386E+02 -0.32952997249E+03  0.33939084403E+03  0.62735836417E+02 0.  0.
          5    1    3    3  502    0  0.58663629658E+01  0.44479282300E+02 -0.29885962093E+03  0.30223726804E+03  0.41800000000E+01 0. -1.
         -5    1    3    3    0  502  0.43067284053E+02 -0.60784350686E+02 -0.16776644961E+03  0.18360986427E+03  0.41800000000E+01 0. -1.
        -11    1    4    4    0    0 -0.55194843793E+02  0.31453266148E+02 -0.28346804291E+03  0.29049941494E+03  0.00000000000E+00 0. -1.
         11    1    4    4    0    0  0.62611967743E+01 -0.15148197762E+02 -0.46061929587E+02  0.48891429082E+02  0.00000000000E+00 0.  1.
</event>
<event>
 8    1  0.3896452E-010  0.1153549E+03  0.7561462E-02  0.1250963E+00
         -1   -1    0    0    0  501 -0.00000000000E+00  0.00000000000E+00  0.81580211632E+02  0.81580211632E+02  0.00000000000E+00 0.  1.
          1   -1    0    0  501    0  0.00000000000E+00 -0.00000000000E+00 -0.20425932671E+03  0.20425932671E+03  0.00000000000E+00 0. -1.
         25    2    1    2    0    0  0.27522983979E+02 -0.15248300819E+02 -0.85343726805E+02  0.15467005141E+03  0.12509695349E+03 0.  0.
         23    2    1    2    0    0 -0.27522983979E+02  0.15248300819E+02 -0.37335388271E+02  0.13116948693E+03  0.12174349165E+03 0.  0.
          5    1    3    3  502    0 -0.16107958218E+02  0.37406389288E+02  0.50457490525E+01  0.41250894063E+02  0.41800000000E+01 0.  1.
         -5    1    3    3    0  502  0.43630942196E+02 -0.52654690107E+02 -0.90389475857E+02  0.11341915735E+03  0.41800000000E+01 0.  1.
        -11    1    4    4    0    0  0.39990869472E+01  0.63498321745E+02 -0.21841657165E+01  0.63661606488E+02  0.00000000000E+00 0.  1.
         11    1    4    4    0    0 -0.31522070926E+02 -0.48250020926E+02 -0.35151222554E+02  0.67507880443E+02  0.00000000000E+00 0. -1.
</event>
<event>
 8    1  0.3896452E-010  0.1399070E+03  0.7561462E-02  0.1213454E+00
          1   -1    0    0  501    0  0.00000000000E+00  0.00000000000E+00  0.66766444483E+03  0.66766444483E+03  0.00000000000E+00 0. -1.
         -1   -1    0    0    0  501 -0.00000000000E+00 -0.00000000000E+00 -0.34390408004E+02  0.34390408004E+02  0.00000000000E+00 0.  1.
         25    2    1    2    0    0 -0.30005365625E+02 -0.82060084927E+02  0.33992655792E+03  0.37260095303E+03  0.12508887205E+03 0.  0.
         23    2    1    2    0    0  0.30005365625E+02  0.82060084927E+02  0.29334747890E+03  0.32945389980E+03  0.12187267624E+03 0.  0.
          5    1    3    3  502    0  0.37904281241E+02  0.50637854660E+01  0.56242039438E+02  0.68139679041E+02  0.41800000000E+01 0. -1.
         -5    1    3    3    0  502 -0.67909646866E+02 -0.87123870393E+02  0.28368451848E+03  0.30446127399E+03  0.41800000000E+01 0. -1.
        -11    1    4    4    0    0  0.65161423421E+02  0.42099779450E+02  0.87964457488E+02  0.11728660756E+03  0.00000000000E+00 0.  1.
         11    1    4    4    0    0 -0.35156057796E+02  0.39960305476E+02  0.20538302141E+03  0.21216729224E+03  0.00000000000E+00 0. -1.
</event>
<event>
 8    1  0.3896452E-010  0.1010687E+03  0.7561462E-02  0.1278065E+00
         -2   -1    0    0    0  501 -0.00000000000E+00  0.00000000000E+00  0.35948273862E+02  0.35948273862E+02  0.00000000000E+00 0.  1.
          2   -1    0    0  501    0  0.00000000000E+00 -0.00000000000E+00 -0.50539734163E+03  0.50539734163E+03  0.00000000000E+00 0. -1.
         25    2    1    2    0    0  0.68250551063E+02 -0.20491123306E+02 -0.16486919900E+03  0.21887787526E+03  0.12509055777E+03 0.  0.
         23    2    1    2    0    0 -0.68250551063E+02  0.20491123306E+02 -0.30457986877E+03  0.32246774023E+03  0.78348727993E+02 0.  0.
          5    1    3    3  502    0  0.89567408017E+02 -0.29998859951E+02 -0.61425390438E+02  0.11275106726E+03  0.41800000000E+01 0. -1.
         -5    1    3    3    0  502 -0.21316856955E+02  0.95077366444E+01 -0.10344380856E+03  0.10612680800E+03  0.41800000000E+01 0. -1.
        -11    1    4    4    0    0 -0.61548447629E+02 -0.80013141867E+00 -0.28840924197E+03  0.29490463284E+03  0.00000000000E+00 0.  1.
         11    1    4    4    0    0 -0.67021034339E+01  0.21291254725E+02 -0.16170626795E+02  0.27563107393E+02  0.00000000000E+00 0. -1.
</event>
<event>
 8    1  0.3896452E-010  0.7275972E+02  0.7561462E-02  0.1350952E+00
          2   -1    0    0  501    0  0.00000000000E+00  0.00000000000E+00  0.78663954218E+02  0.78663954218E+02  0.00000000000E+00 0. -1.
         -2   -1    0    0    0  501 -0.00000000000E+00 -0.00000000000E+00 -0.11512812165E+03  0.11512812165E+03  0.00000000000E+00 0.  1.
         25    2    1    2    0    0  0.95368629628E+01  0.15610216500E+02 -0.11655536229E+02  0.12693878360E+03  0.12507186991E+03 0.  0.
         23    2    1    2    0    0 -0.95368629628E+01 -0.15610216500E+02 -0.24808631198E+02  0.66853292265E+02  0.59323384010E+02 0.  0.
          5    1    3    3  502    0  0.26754910822E+02  0.43464739270E+02  0.40448069602E+02  0.65257394580E+02  0.41800000000E+01 0. -1.
         -5    1    3    3    0  502 -0.17218047859E+02 -0.27854522770E+02 -0.52103605831E+02  0.61681389019E+02  0.41800000000E+01 0. -1.
        -11    1    4    4    0    0 -0.10824921780E+02  0.21549208086E+02 -0.46536550095E+01  0.24560207768E+02  0.00000000000E+00 0.  1.
         11    1    4    4    0    0  0.12880588168E+01 -0.37159424586E+02 -0.20154976189E+02  0.42293084497E+02  0.00000000000E+00 0. -1.
</event>
<event>
 8    1  0.3896452E-010  0.4151195E+02  0.7561462E-02  0.1497371E+00
          1   -1    0    0  501    0  0.00000000000E+00  0.00000000000E+00  0.91734935748E+02  0.91734935748E+02  0.00000000000E+00 0. -1.
         -1   -1    0    0    0  501 -0.00000000000E+00 -0.00000000000E+00 -0.12323829677E+03  0.12323829677E+03  0.00000000000E+00 0.  1.
         25    2    1    2    0    0  0.29772613038E+02 -0.14078167319E+02 -0.44193205753E+01  0.12943113978E+03  0.12509311039E+03 0.  0.
         23    2    1    2    0    0 -0.29772613038E+02  0.14078167319E+02 -0.27084040451E+02  0.85542092743E+02  0.74157272749E+02 0.  0.
          5    1    3    3  502    0  0.17365819798E+01 -0.57050909838E+01  0.59007764268E+02  0.59455465888E+02  0.41800000000E+01 0. -1.
         -5    1    3    3    0  502  0.28036031058E+02 -0.83730763347E+01 -0.63427084843E+02  0.69975673891E+02  0.41800000000E+01 0. -1.
        -11    1    4    4    0    0 -0.34350799980E+02  0.33419579884E+01 -0.49456397369E+02  0.60308219864E+02  0.00000000000E+00 0.  1.
         11    1    4    4    0    0  0.45781869423E+01  0.10736209330E+02  0.22372356917E+02  0.25233872880E+02  0.00000000000E+00 0. -1.
</event>
<event>
 8    1  0.3896452E-010  0.1298489E+03  0.7561462E-02  0.1227680E+00
         -1   -1    0    0    0  501 -0.00000000000E+00  0.00000000000E+00  0.53919824604E+03  0.53919824604E+03  0.00000000000E+00 0. -1.
          1   -1    0    0  501    0  0.00000000000E+00 -0.00000000000E+00 -0.38701026820E+02  0.38701026820E+02  0.00000000000E+00 0.  1.
         25    2    1    2    0    0 -0.68838076241E+02  0.44983022013E+02  0.21107311882E+03  0.25876949533E+03  0.12509051609E+03 0.  0.
         23    2    1    2    0    0  0.68838076241E+02 -0.44983022013E+02  0.28942410040E+03  0.31912977753E+03  0.10637364337E+03 0.  0.
          5    1    3    3  502    0 -0.10667645827E+02 -0.28984840293E+02  0.41839761037E+01  0.31446743716E+02  0.41800000000E+01 0.  1.
         -5    1    3    3    0  502 -0.58170430414E+02  0.73967862305E+02  0.20688914272E+03  0.22732275162E+03  0.41800000000E+01 0.  1.
        -11    1    4    4    0    0  0.80382236391E+02 -0.70124621976E+02  0.22431051088E+03  0.24838271242E+03  0.00000000000E+00 0.  1.
         11    1    4    4    0    0 -0.11544160150E+02  0.25141599963E+02  0.65113589521E+02  0.70747065117E+02  0.00000000000E+00 0. -1.
</event>
<event>
 8    1  0.3896452E-010  0.2999821E+03  0.7561462E-02  0.1085250E+00
          1   -1    0    0  501    0  0.00000000000E+00  0.00000000000E+00  0.13332490803E+04  0.13332490803E+04  0.00000000000E+00 0. -1.
         -1   -1    0    0    0  501 -0.00000000000E+00 -0.00000000000E+00 -0.71185499692E+02  0.71185499692E+02  0.00000000000E+00 0.  1.
         25    2    1    2    0    0  0.27651795341E+03  0.66485772730E+02  0.64695093750E+03  0.71768838348E+03  0.12509421936E+03 0.  0.
         23    2    1    2    0    0 -0.27651795341E+03 -0.66485772730E+02  0.61511264309E+03  0.68674619649E+03  0.11123955310E+03 0.  0.
          5    1    3    3  502    0  0.87060011097E+02  0.60724647633E+02  0.34651858299E+03  0.36243555168E+03  0.41800000000E+01 0. -1.
         -5    1    3    3    0  502  0.18945794231E+03  0.57611250966E+01  0.30043235451E+03  0.35525283181E+03  0.41800000000E+01 0. -1.
        -11    1    4    4    0    0 -0.21915671148E+03 -0.38203609335E+01  0.46991398318E+03  0.51852040551E+03  0.00000000000E+00 0. -1.
         11    1    4    4    0    0 -0.57361241933E+02 -0.62665411796E+02  0.14519865991E+03  0.16822579098E+03  0.00000000000E+00 0.  1.
</event>
<event>
 8    1  0.3896452E-010  0.1198115E+03  0.7561462E-02  0.1243408E+00
         -1   -1    0    0    0  501 -0.00000000000E+00  0.00000000000E+00  0.30973867251E+02  0.30973867251E+02  0.00000000000E+00 0.  1.
          1   -1    0    0  501    0  0.00000000000E+00 -0.00000000000E+00 -0.73798286205E+03  0.73798286205E+03  0.00000000000E+00 0. -1.
         25    2    1    2    0    0 -0.96600260353E+02 -0.91418145927E+01 -0.54361654598E+03  0.56619895951E+03  0.12508848716E+03 0.  0.
         23    2    1    2    0    0  0.96600260353E+02  0.91418145927E+01 -0.16339244882E+03  0.20275776978E+03  0.70699630851E+02 0.  0.
          5    1    3    3  502    0 -0.18859929068E+02  0.35593864692E+02 -0.35497907163E+03  0.35728172892E+03  0.41800000000E+01 0. -1.
         -5    1    3    3    0  502 -0.77740331285E+02 -0.44735679285E+02 -0.18863747435E+03  0.20891723059E+03  0.41800000000E+01 0. -1.
        -11    1    4    4    0    0  0.48775550582E+02 -0.20674902149E+02 -0.37738785340E+02  0.65043999203E+02  0.00000000000E+00 0.  1.
         11    1    4    4    0    0  0.47824709771E+02  0.29816716741E+02 -0.12565366348E+03  0.13771377058E+03  0.00000000000E+00 0. -1.
</event>
<event>
 8    1  0.3896452E-010  0.1374657E+03  0.7561462E-02  0.1216780E+00
          4   -1    0    0  501    0  0.00000000000E+00  0.00000000000E+00  0.17514578669E+03  0.17514578669E+03  0.00000000000E+00 0. -1.
         -4   -1    0    0    0  501 -0.00000000000E+00 -0.00000000000E+00 -0.29529548871E+03  0.29529548871E+03  0.00000000000E+00 0.  1.
         25    2    1    2    0    0 -0.10629058261E+03 -0.27171257977E+02 -0.21923371243E+03  0.27522201827E+03  0.12509106069E+03 0.  0.
         23    2    1    2    0    0  0.10629058261E+03  0.27171257977E+02  0.99084010402E+02  0.19521925712E+03  0.12750275300E+03 0.  0.
          5    1    3    3  502    0 -0.73655508518E+02 -0.76258333462E+02 -0.15610775626E+03  0.18875267236E+03  0.41800000000E+01 0.  1.
         -5    1    3    3    0  502 -0.32635074097E+02  0.49087075485E+02 -0.63125956164E+02  0.86469345913E+02  0.41800000000E+01 0.  1.
        -11    1    4    4    0    0  0.58456358702E+02  0.16165017004E+02  0.12556649077E+03  0.13944675418E+03  0.00000000000E+00 0. -1.
         11    1    4    4    0    0  0.47834223913E+02  0.11006240973E+02 -0.26482480370E+02  0.55772502940E+02  0.00000000000E+00 0.  1.
</event>
<event>
 8    1  0.3896452E-010  0.1905674E+03  0.7561462E-02  0.1157951E+00
         -1   -1    0    0    0  501 -0.00000000000E+00  0.00000000000E+00  0.37152137773E+03  0.37152137773E+03  0.00000000000E+00 0.  1.
          1   -1    0    0  501    0  0.00000000000E+00 -0.00000000000E+00 -0.11627498398E+03  0.11627498398E+03  0.00000000000E+00 0. -1.
         25    2    1    2    0    0  0.16042385029E+03 -0.62250387645E+02  0.12975564937E+03  0.24918668991E+03  0.12508619180E+03 0.  0.
         23    2    1    2    0    0 -0.16042385029E+03  0.62250387645E+02  0.12549074439E+03  0.23860967181E+03  0.10759054813E+03 0.  0.
          5    1    3    3  502    0  0.52050800281E+02  0.84614329517E+01  0.10471437519E+03  0.11731774985E+03  0.41800000000E+01 0. -1.
         -5    1    3    3    0  502  0.10837305001E+03 -0.70711820597E+02  0.25041274176E+02  0.13186894006E+03  0.41800000000E+01 0. -1.
        -11    1    4    4    0    0 -0.44845587221E+01  0.41163700233E+02  0.47402758025E+02  0.62941107014E+02  0.00000000000E+00 0.  1.
         11    1    4    4    0    0 -0.15593929157E+03  0.21086687413E+02  0.78087986367E+02  0.17566856479E+03  0.00000000000E+00 0. -1.
</event>
<event>
 8    1  0.3896452E-010  0.1056365E+03  0.7561462E-02  0.1268871E+00
         -1   -1    0    0    0  501 -0.00000000000E+00  0.00000000000E+00  0.36501821474E+02  0.36501821474E+02  0.00000000000E+00 0.  1.
          1   -1    0    0  501    0  0.00000000000E+00 -0.00000000000E+00 -0.42402237799E+03  0.42402237799E+03  0.00000000000E+00 0. -1.
         25    2    1    2    0    0  0.26554662918E+02  0.16366542792E+02 -0.25327434421E+03  0.28419760259E+03  0.12508944815E+03 0.  0.
         23    2    1    2    0    0 -0.26554662918E+02 -0.16366542792E+02 -0.13424621230E+03  0.17632659687E+03  0.10998185942E+03 0.  0.
          5    1    3    3  502    0 -0.50909547021E+00 -0.47512340957E+02 -0.48821744559E+02  0.68254793702E+02  0.41800000000E+01 0. -1.
         -5    1    3    3    0  502  0.27063758388E+02  0.63878883750E+02 -0.20445259965E+03  0.21594280889E+03  0.41800000000E+01 0. -1.
        -11    1    4    4    0    0 -0.58445687466E+02 -0.48789060387E+00 -0.12723556218E+03  0.14001794422E+03  0.00000000000E+00 0. -1.
         11    1    4    4    0    0  0.31891024548E+02 -0.15878652188E+02 -0.70106501232E+01  0.36308652649E+02  0.00000000000E+00 0.  1.
</event>
<event>
 8    1  0.3896452E-010  0.1604292E+03  0.7561462E-02  0.1188213E+00
          1   -1    0    0  501    0  0.00000000000E+00  0.00000000000E+00  0.56519045456E+03  0.56519045456E+03  0.00000000000E+00 0. -1.
         -1   -1    0    0    0  501 -0.00000000000E+00 -0.00000000000E+00 -0.48837817518E+02  0.48837817518E+02  0.00000000000E+00 0.  1.
         25    2    1    2    0    0 -0.23684010542E+02 -0.12314475410E+03  0.35199512836E+03  0.39404975702E+03  0.12509627410E+03 0.  0.
         23    2    1    2    0    0  0.23684010542E+02  0.12314475410E+03  0.16435750868E+03  0.21997851506E+03  0.75177081688E+02 0.  0.
          5    1    3    3  502    0  0.31901884301E+02 -0.11657752905E+03  0.24531562169E+03  0.27350553403E+03  0.41800000000E+01 0.  1.
         -5    1    3    3    0  502 -0.55585894843E+02 -0.65672250565E+01  0.10667950667E+03  0.12054422298E+03  0.41800000000E+01 0.  1.
        -11    1    4    4    0    0 -0.17200797652E+02  0.88644570889E+02  0.12179029436E+03  0.15161333447E+03  0.00000000000E+00 0.  1.
         11    1    4    4    0    0  0.40884808194E+02  0.34500183215E+02  0.42567214317E+02  0.68365180594E+02  0.00000000000E+00 0. -1.
</event>
<event>
 8    1  0.3896452E-010  0.1024322E+03  0.7561462E-02  0.1275263E+00
         -1   -1    0    0    0  501 -0.00000000000E+00  0.00000000000E+00  0.13761885036E+03  0.13761885036E+03  0.00000000000E+00 0.  1.
          1   -1    0    0  501    0  0.00000000000E+00 -0.00000000000E+00 -0.16151787275E+03  0.16151787275E+03  0.00000000000E+00 0. -1.
         25    2    1    2    0    0  0.29777253510E+02  0.62464419782E+02  0.71768157866E+02  0.15995307065E+03  0.12508328331E+03 0.  0.
         23    2    1    2    0    0 -0.29777253510E+02 -0.62464419782E+02 -0.95667180252E+02  0.13918365246E+03  0.73697972624E+02 0.  0.
          5    1    3    3  502    0  0.67702055701E+02  0.65527530728E+02  0.21433471370E+02  0.96717587462E+02  0.41800000000E+01 0. -1.
         -5    1    3    3    0  502 -0.37924802191E+02 -0.30631109456E+01  0.50334686495E+02  0.63235483192E+02  0.41800000000E+01 0. -1.
        -11    1    4    4    0    0 -0.37764583026E+01 -0.32003939231E+02  0.33251942075E+01  0.32397078265E+02  0.00000000000E+00 0.  1.
         11    1    4    4    0    0 -0.26000795207E+02 -0.30460480552E+02 -0.98992374459E+02  0.10678657419E+03  0.00000000000E+00 0. -1.
</event>
<event>
 8    1  0.3896452E-010  0.8134399E+02  0.7561462E-02  0.1325280E+00
          4   -1    0    0  501    0  0.00000000000E+00  0.00000000000E+00  0.99619908403E+02  0.99619908403E+02  0.00000000000E+00 0.  1.
         -4   -1    0    0    0  501 -0.00000000000E+00 -0.00000000000E+00 -0.18028719288E+03  0.18028719288E+03  0.00000000000E+00 0. -1.
         25    2    1    2    0    0  0.92754060632E+01 -0.37775870827E+02 -0.97949662590E+02  0.16357069324E+03  0.12509270846E+03 0.  0.
         23    2    1    2    0    0 -0.92754060632E+01  0.37775870827E+02  0.17282378111E+02  0.11633640805E+03  0.10827016981E+03 0.  0.
          5    1    3    3  502    0  0.60898718039E+02 -0.73080703037E+01 -0.18984196124E+02  0.64342317746E+02  0.41800000000E+01 0. -1.
         -5    1    3    3    0  502 -0.51623311976E+02 -0.30467800523E+02 -0.78965466466E+02  0.99228375490E+02  0.41800000000E+01 0. -1.
        -11    1    4    4    0    0  0.19219140088E+01  0.20133219427E+02  0.62947847608E+02  0.66117106685E+02  0.00000000000E+00 0.  1.
         11    1    4    4    0    0 -0.11197320072E+02  0.17642651400E+02 -0.45665469497E+02  0.50219301365E+02  0.00000000000E+00 0. -1.
</event>
<event>
 8    1  0.3896452E-010  0.1229193E+03  0.7561462E-02  0.1238357E+00
          1   -1    0    0  501    0  0.00000000000E+00  0.00000000000E+00  0.33972058398E+03  0.33972058398E+03  0.00000000000E+00 0. -1.
         -1   -1    0    0    0  501 -0.00000000000E+00 -0.00000000000E+00 -0.45844579550E+02  0.45844579550E+02  0.00000000000E+00 0.  1.
         25    2    1    2    0    0 -0.39748183723E+02  0.14853279540E+02  0.18997721513E+03  0.23138777877E+03  0.12509366040E+03 0.  0.
         23    2    1    2    0    0  0.39748183723E+02 -0.14853279540E+02  0.10389878930E+03  0.15417738476E+03  0.10571267442E+03 0.  0.
          5    1    3    3  502    0 -0.34584437602E+02  0.69056538593E+02  0.10607724040E+03  0.13128115698E+03  0.41800000000E+01 0. -1.
         -5    1    3    3    0  502 -0.51637461209E+01 -0.54203259053E+02  0.83899974734E+02  0.10010662179E+03  0.41800000000E+01 0. -1.
        -11    1    4    4    0    0 -0.22699282867E+02 -0.40458311656E+02  0.43974057927E+02  0.63920655467E+02  0.00000000000E+00 0.  1.
         11    1    4    4    0    0  0.62447466590E+02  0.25605032116E+02  0.59924731373E+02  0.90256729297E+02  0.00000000000E+00 0. -1.
</event>
<event>
 8    1  0.3896452E-010  0.1912627E+03  0.7561462E-02  0.1157327E+00
          2   -1    0    0  501    0  0.00000000000E+00  0.00000000000E+00  0.33493109380E+03  0.33493109380E+03  0.00000000000E+00 0. -1.
         -2   -1    0    0    0  501 -0.00000000000E+00 -0.00000000000E+00 -0.13486699885E+03  0.13486699885E+03  0.00000000000E+00 0.  1.
         25    2    1    2    0    0  0.16700454595E+03 -0.79709547632E+02  0.13927103105E+03  0.26322634188E+03  0.12509019392E+03 0.  0.
         23    2    1    2    0    0 -0.16700454595E+03  0.79709547632E+02  0.60793063902E+02  0.20657175076E+03  0.68789252371E+02 0.  0.
          5    1    3    3  502    0  0.17278323272E+03 -0.76424492926E+02  0.15580450835E+03  0.24492297943E+03  0.41800000000E+01 0. -1.
         -5    1    3    3    0  502 -0.57786867681E+01 -0.32850547063E+01 -0.16533477304E+02  0.18303362449E+02  0.41800000000E+01 0. -1.
        -11    1    4    4    0    0 -0.11185039730E+03  0.61324616362E+02  0.73278345255E+02  0.14710858517E+03  0.00000000000E+00 0. -1.
         11    1    4    4    0    0 -0.55154148655E+02  0.18384931270E+02 -0.12485281354E+02  0.59463165591E+02  0.00000000000E+00 0.  1.
</event>
<event>
 8    1  0.3896452E-010  0.8828949E+02  0.7561462E-02  0.1307048E+00
         -1   -1    0    0    0  501 -0.00000000000E+00  0.00000000000E+00  0.18157700318E+02  0.18157700318E+02  0.00000000000E+00 0. -1.
          1   -1    0    0  501    0  0.00000000000E+00 -0.00000000000E+00 -0.57769558627E+03  0.57769558627E+03  0.00000000000E+00 0.  1.
         25    2    1    2    0    0 -0.31417385922E+02  0.46089460367E+01 -0.41080003153E+03  0.43059530365E+03  0.12508938843E+03 0.  0.
         23    2    1    2    0    0  0.31417385922E+02 -0.46089460367E+01 -0.14873785442E+03  0.16525798294E+03  0.64644853355E+02 0.  0.
          5    1    3    3  502    0  0.21563705232E+01  0.61997811292E+02 -0.21202897011E+03  0.22095731512E+03  0.41800000000E+01 0.  1.
         -5    1    3    3    0  502 -0.33573756445E+02 -0.57388865255E+02 -0.19877106142E+03  0.20963798853E+03  0.41800000000E+01 0.  1.
        -11    1    4    4    0    0 -0.38702719531E+01 -0.11231685179E+02  0.37281621448E+00  0.11885653069E+02  0.00000000000E+00 0. -1.
         11    1    4    4    0    0  0.35287657875E+02  0.66227391424E+01 -0.14911067063E+03  0.15337232987E+03  0.00000000000E+00 0.  1.
</event>
<event>
 8    1  0.3896452E-010  0.7551937E+02  0.7561462E-02  0.1342270E+00
          1   -1    0    0  501    0  0.00000000000E+00  0.00000000000E+00  0.29874080174E+03  0.29874080174E+03  0.00000000000E+00 0. -1.
         -1   -1    0    0    0  501 -0.00000000000E+00 -0.00000000000E+00 -0.48935210945E+02  0.48935210945E+02  0.00000000000E+00 0.  1.
         25    2    1    2    0    0  0.38198594086E+02 -0.66486881923E+01  0.13149857775E+03  0.18558819726E+03  0.12509102832E+03 0.  0.
         23    2    1    2    0    0 -0.38198594086E+02  0.66486881923E+01  0.11830701304E+03  0.16208781543E+03  0.10379100601E+03 0.  0.
          5    1    3    3  502    0  0.42167991313E+02 -0.85873670124E+01  0.15520468896E+03  0.16111440109E+03  0.41800000000E+01 0. -1.
         -5    1    3    3    0  502 -0.39693972267E+01  0.19386788201E+01 -0.23706111213E+02  0.24473796165E+02  0.41800000000E+01 0. -1.
        -11    1    4    4    0    0  0.24498134092E+02  0.26372131184E+02  0.13634707434E+02  0.38490948599E+02  0.00000000000E+00 0.  1.
         11    1    4    4    0    0 -0.62696728178E+02 -0.19723442992E+02  0.10467230561E+03  0.12359686683E+03  0.00000000000E+00 0. -1.
</event>
<event>
 8    1  0.3896452E-010  0.1144460E+03  0.7561462E-02  0.1252551E+00
         -4   -1    0    0    0  501 -0.00000000000E+00  0.00000000000E+00  0.55018282517E+03  0.55018282517E+03  0.00000000000E+00 0. -1.
          4   -1    0    0  501    0  0.00000000000E+00 -0.00000000000E+00 -0.46032708570E+02  0.46032708570E+02  0.00000000000E+00 0.  1.
         25    2    1    2    0    0 -0.56048859899E+01 -0.10655814972E+03  0.30511552148E+03  0.34659668226E+03  0.12509086571E+03 0.  0.
         23    2    1    2    0    0  0.56048859899E+01  0.10655814972E+03  0.19903459511E+03  0.24961885148E+03  0.10634259232E+03 0.  0.
          5    1    3    3  502    0  0.11858367299E+02 -0.63775068353E+02  0.29089292865E+03  0.29806718799E+03  0.41800000000E+01 0. -1.
         -5    1    3    3    0  502 -0.17463253289E+02 -0.42783081372E+02  0.14222592836E+02  0.48529494269E+02  0.41800000000E+01 0. -1.
        -11    1    4    4    0    0 -0.14778473701E+02  0.90067709006E+02  0.20349226799E+03  0.22302398665E+03  0.00000000000E+00 0. -1.
         11    1    4    4    0    0  0.20383359691E+02  0.16490440719E+02 -0.44576728803E+01  0.26594864822E+02  0.00000000000E+00 0.  1.
</event>
<event>
 8    1  0.3896452E-010  0.1746226E+03  0.7561462E-02  0.1173111E+00
          2   -1    0    0  501    0  0.00000000000E+00  0.00000000000E+00  0.18160850629E+03  0.18160850629E+03  0.00000000000E+00 0.  1.
         -2   -1    0    0    0  501 -0.00000000000E+00 -0.00000000000E+00 -0.40614699649E+03  0.40614699649E+03  0.00000000000E+00 0. -1.
         25    2    1    2    0    0 -0.20460578745E+02 -0.14636087771E+03 -0.34027172644E+03  0.39149959050E+03  0.12508772818E+03 0.  0.
         23    2    1    2    0    0  0.20460578745E+02  0.14636087771E+03  0.11573323624E+03  0.19625591228E+03  0.57289260148E+02 0.  0.
          5    1    3    3  502    0  0.50313174321E+02 -0.72784391079E+02 -0.19180262960E+03  0.21126926946E+03  0.41800000000E+01 0.  1.
         -5    1    3    3    0  502 -0.70773753065E+02 -0.73576486627E+02 -0.14846909684E+03  0.18023032104E+03  0.41800000000E+01 0.  1.
        -11    1    4    4    0    0  0.39086021924E+02  0.73050378589E+02  0.61633380800E+02  0.10326058566E+03  0.00000000000E+00 0. -1.
         11    1    4    4    0    0 -0.18625443180E+02  0.73310499118E+02  0.54099855443E+02  0.92995326622E+02  0.00000000000E+00 0.  1.
</event>
<event>
 8    1  0.3896452E-010  0.8081603E+02  0.7561462E-02  0.1326751E+00
          3   -1    0    0  501    0  0.00000000000E+00  0.00000000000E+00  0.41922020148E+03  0.41922020148E+03  0.00000000000E+00 0. -1.
         -3   -1    0    0    0  501 -0.00000000000E+00 -0.00000000000E+00 -0.35527301682E+02  0.35527301682E+02  0.00000000000E+00 0.  1.
         25    2    1    2    0    0 -0.24987629966E+02  0.40944546012E+02  0.32116280891E+03  0.34798530621E+03  0.12508951199E+03 0.  0.
         23    2    1    2    0    0  0.24987629966E+02 -0.40944546012E+02  0.62530090881E+02  0.10676219695E+03  0.72023030566E+02 0.  0.
          5    1    3    3  502    0 -0.29399379862E+01  0.50545988751E+02  0.31950716546E+03  0.32352100611E+03  0.41800000000E+01 0.  1.
         -5    1    3    3    0  502 -0.22047691980E+02 -0.96014427391E+01  0.16556434546E+01  0.24464300103E+02  0.41800000000E+01 0.  1.
        -11    1    4    4    0    0 -0.18802125203E+02  0.82734035071E+01  0.12573850848E+02  0.24084659908E+02  0.00000000000E+00 0.  1.
         11    1    4    4    0    0  0.43789755169E+02 -0.49217949519E+02  0.49956240032E+02  0.82677537038E+02  0.00000000000E+00 0. -1.
</event>
<event>
 8    1  0.3896452E-010  0.1157658E+03  0.7561462E-02  0.1250250E+00
         -2   -1    0    0    0  501 -0.00000000000E+00  0.00000000000E+00  0.23538684902E+02  0.23538684902E+02  0.00000000000E+00 0.  1.
          2   -1    0    0  501    0  0.00000000000E+00 -0.00000000000E+00 -0.64034900339E+03  0.64034900339E+03  0.00000000000E+00 0. -1.
         25    2    1    2    0    0 -0.13357540553E+02  0.31508477222E+02 -0.26696548861E+03  0.29679946077E+03  0.12509252485E+03 0.  0.
         23    2    1    2    0    0  0.13357540553E+02 -0.31508477222E+02 -0.34984482987E+03  0.36708822752E+03  0.10578824968E+03 0.  0.
          5    1    3    3  502    0 -0.63286436057E+02  0.40117626552E+02 -0.12261549505E+03  0.14375892659E+03  0.41800000000E+01 0. -1.
         -5    1    3    3    0  502  0.49928895504E+02 -0.86091493296E+01 -0.14434999356E+03  0.15304053417E+03  0.41800000000E+01 0. -1.
        -11    1    4    4    0    0 -0.40831531208E+02  0.37394669228E+01 -0.83677353295E+02  0.93183136930E+02  0.00000000000E+00 0.  1.
         11    1    4    4    0    0  0.54189071761E+02 -0.35247944145E+02 -0.26616747658E+03  0.27390509059E+03  0.00000000000E+00 0. -1.
</event>
<event>
 8    1  0.3896452E-010  0.1373362E+03  0.7561462E-02  0.1216959E+00
          2   -1    0    0  501    0  0.00000000000E+00  0.00000000000E+00  0.54559211148E+03  0.54559211148E+03  0.00000000000E+00 0. -1.
         -2   -1    0    0    0  501 -0.00000000000E+00 -0.00000000000E+00 -0.78359025797E+02  0.78359025797E+02  0.00000000000E+00 0.  1.
         25    2    1    2    0    0 -0.62214334991E+02 -0.70030169031E+02  0.44421648383E+03  0.47090486254E+03  0.12509299342E+03 0.  0.
         23    2    1    2    0    0  0.62214334991E+02  0.70030169031E+02  0.23016601846E+02  0.15304627473E+03  0.11882150561E+03 0.  0.
          5    1    3    3  502    0 -0.98218235199E+02 -0.32097180707E+02  0.27844210840E+03  0.29702614508E+03  0.41800000000E+01 0.  1.
         -5    1    3    3    0  502  0.36003900208E+02 -0.37932988324E+02  0.16577437544E+03  0.17387871746E+03  0.41800000000E+01 0.  1.
        -11    1    4    4    0    0 -0.12486516267E+02 -0.44972894752E+01 -0.31567552117E+02  0.34243963669E+02  0.00000000000E+00 0.  1.
         11    1    4    4    0    0  0.74700851257E+02  0.74527458506E+02  0.54584153963E+02  0.11880231106E+03  0.00000000000E+00 0. -1.
</event>
<event>
 8    1  0.3896452E-010  0.9263788E+02  0.7561462E-02  0.1296587E+00
         -2   -1    0    0    0  501 -0.00000000000E+00  0.00000000000E+00  0.96637021808E+02  0.96637021808E+02  0.00000000000E+00 0.  1.
          2   -1    0    0  501    0  0.00000000000E+00 -0.00000000000E+00 -0.11402680478E+03  0.11402680478E+03  0.00000000000E+00 0. -1.
         25    2    1    2    0    0  0.91523251371E+01 -0.43325096820E+02  0.76759374895E+01  0.13291792053E+03  0.12508966589E+03 0.  0.
         23    2    1    2    0    0 -0.91523251371E+01  0.43325096820E+02 -0.25065720460E+02  0.77745906055E+02  0.58781855161E+02 0.  0.
          5    1    3    3  502    0 -0.51058315812E+02  0.98443056303E+01  0.56758268449E+00  0.52169497957E+02  0.41800000000E+01 0. -1.
         -5    1    3    3    0  502  0.60210640949E+02 -0.53169402451E+02  0.71083548050E+01  0.80748422576E+02  0.41800000000E+01 0. -1.
        -11    1    4    4    0    0  0.83899170966E+01  0.28491927079E+02  0.13680904033E+02  0.32700883058E+02  0.00000000000E+00 0.  1.
         11    1    4    4    0    0 -0.17542242234E+02  0.14833169741E+02 -0.38746624493E+02  0.45045022997E+02  0.00000000000E+00 0. -1.
</event>
<event>
 8    1  0.3896452E-010  0.9106291E+02  0.7561462E-02  0.1300298E+00
          1   -1    0    0  501    0  0.00000000000E+00  0.00000000000E+00  0.19715342714E+02  0.19715342714E+02  0.00000000000E+00 0. -1.
         -1   -1    0    0    0  501 -0.00000000000E+00 -0.00000000000E+00 -0.50809228237E+03  0.50809228237E+03  0.00000000000E+00 0.  1.
         25    2    1    2    0    0 -0.20378342849E+02 -0.10227714910E+02 -0.28488450457E+03  0.31197433639E+03  0.12509565387E+03 0.  0.
         23    2    1    2    0    0  0.20378342849E+02  0.10227714910E+02 -0.20349243510E+03  0.21583328870E+03  0.68227225933E+02 0.  0.
          5    1    3    3  502    0  0.42805164731E+02 -0.17994027781E+02 -0.49084212631E+02  0.67696377252E+02  0.41800000000E+01 0.  1.
         -5    1    3    3    0  502 -0.63183507580E+02  0.77663128712E+01 -0.23580029193E+03  0.24427795914E+03  0.41800000000E+01 0.  1.
        -11    1    4    4    0    0  0.12275265444E+00  0.37631253802E+02 -0.98185270814E+02  0.10514976812E+03  0.00000000000E+00 0.  1.
         11    1    4    4    0    0  0.20255590195E+02 -0.27403538892E+02 -0.10530716428E+03  0.11068352057E+03  0.00000000000E+00 0. -1.
</event>
<event>
 8    1  0.3896452E-010  0.1649261E+03  0.7561462E-02  0.1183245E+00
         -1   -1    0    0    0  501 -0.00000000000E+00  0.00000000000E+00  0.62252341860E+02  0.62252341860E+02  0.00000000000E+00 0.  1.
          1   -1    0    0  501    0  0.00000000000E+00 -0.00000000000E+00 -0.63903510138E+03  0.63903510138E+03  0.00000000000E+00 0. -1.
         25    2    1    2    0    0 -0.13622744536E+03 -0.73640212380E+02 -0.17832161887E+03  0.26725991657E+03  0.12509382679E+03 0.  0.
         23    2    1    2    0    0  0.13622744536E+03  0.73640212380E+02 -0.39846114065E+03  0.43402752667E+03  0.75018767969E+02 0.  0.
          5    1    3    3  502    0 -0.14370283056E+03 -0.73029489013E+02 -0.10275351893E+03  0.19120556433E+03  0.41800000000E+01 0.  1.
         -5    1    3    3    0  502  0.74753852034E+01 -0.61072336681E+00 -0.75568099936E+02  0.76054352241E+02  0.41800000000E+01 0.  1.
        -11    1    4    4    0    0  0.73069079260E+02  0.61927361183E+02 -0.31164128116E+03  0.32602818364E+03  0.00000000000E+00 0. -1.
         11    1    4    4    0    0  0.63158366100E+02  0.11712851197E+02 -0.86819859493E+02  0.10799934303E+03  0.00000000000E+00 0.  1.
</event>
<event>
 8    1  0.3896452E-010  0.1222031E+03  0.7561462E-02  0.1239506E+00
          2   -1    0    0  501    0  0.00000000000E+00  0.00000000000E+00  0.61663860028E+03  0.61663860028E+03  0.00000000000E+00 0. -1.
         -2   -1    0    0    0  501 -0.00000000000E+00 -0.00000000000E+00 -0.28352718654E+02  0.28352718654E+02  0.00000000000E+00 0.  1.
         25    2    1    2    0    0  0.13181335185E+02 -0.90864661079E+02  0.31249716077E+03  0.34890205157E+03  0.12509209354E+03 0.  0.
         23    2    1    2    0    0 -0.13181335185E+02  0.90864661079E+02  0.27578872085E+03  0.29608926737E+03  0.56385294804E+02 0.  0.
          5    1    3    3  502    0  0.58595677784E+02 -0.37405744300E+02  0.80240446289E+02  0.10624803425E+03  0.41800000000E+01 0. -1.
         -5    1    3    3    0  502 -0.45414342599E+02 -0.53458916779E+02  0.23225671448E+03  0.24265401731E+03  0.41800000000E+01 0. -1.
        -11    1    4    4    0    0 -0.18920767425E+02  0.66069543112E+01  0.29007438005E+02  0.35257321862E+02  0.00000000000E+00 0.  1.
         11    1    4    4    0    0  0.57394322401E+01  0.84257706767E+02  0.24678128285E+03  0.26083194551E+03  0.00000000000E+00 0. -1.
</event>
<event>
 8    1  0.3896452E-010  0.1356405E+03  0.7561462E-02  0.1219318E+00
         -3   -1    0    0    0  501 -0.00000000000E+00  0.00000000000E+00  0.55894184619E+03  0.55894184619E+03  0.00000000000E+00 0.  1.
          3   -1    0    0  501    0  0.00000000000E+00 -0.00000000000E+00 -0.35128327533E+02  0.35128327533E+02  0.00000000000E+00 0. -1.
         25    2    1    2    0    0  0.18437126274E+02 -0.70567797200E+02  0.20514686899E+03  0.25109299049E+03  0.12507082150E+03 0.  0.
         23    2    1    2    0    0 -0.18437126274E+02  0.70567797200E+02  0.31866664968E+03  0.34297718324E+03  0.10375535157E+03 0.  0.
          5    1    3    3  502    0  0.66675793138E+02 -0.69412138360E+02  0.13803891720E+03  0.16833276985E+03  0.41800000000E+01 0. -1.
         -5    1    3    3    0  502 -0.48238666863E+02 -0.11556588407E+01  0.67107951786E+02  0.82760220644E+02  0.41800000000E+01 0. -1.
        -11    1    4    4    0    0 -0.46709091396E+01  0.96784742573E+02  0.23337446301E+03  0.25269100454E+03  0.00000000000E+00 0.  1.
         11    1    4    4    0    0 -0.13766217135E+02 -0.26216945373E+02  0.85292186661E+02  0.90286178700E+02  0.00000000000E+00 0. -1.
</event>
<event>
 8    1  0.3896452E-010  0.1072249E+03  0.7561462E-02  0.1265797E+00
         -3   -1    0    0    0  501 -0.00000000000E+00  0.00000000000E+00  0.20740867756E+03  0.20740867756E+03  0.00000000000E+00 0.  1.
          3   -1    0    0  501    0  0.00000000000E+00 -0.00000000000E+00 -0.62151489105E+02  0.62151489105E+02  0.00000000000E+00 0. -1.
         25    2    1    2    0    0 -0.39140068078E+02 -0.52960113736E+01  0.49341460107E+02  0.14015797514E+03  0.12509870361E+03 0.  0.
         23    2    1    2    0    0  0.39140068078E+02  0.52960113736E+01  0.95915728344E+02  0.12940219152E+03  0.77363476918E+02 0.  0.
          5    1    3    3  502    0 -0.73009237444E+01  0.57177599347E+02  0.37578884374E+02  0.68936393185E+02  0.41800000000E+01 0. -1.
         -5    1    3    3    0  502 -0.31839144334E+02 -0.62473610721E+02  0.11762575733E+02  0.71221581955E+02  0.41800000000E+01 0. -1.
        -11    1    4    4    0    0  0.59374402702E+02  0.18573048215E+02  0.74746546240E+02  0.97248773725E+02  0.00000000000E+00 0.  1.
         11    1    4    4    0    0 -0.20234334623E+02 -0.13277036842E+02  0.21169182104E+02  0.32153417795E+02  0.00000000000E+00 0. -1.
</event>
<event>
 8    1  0.3896452E-010  0.1044562E+03  0.7561462E-02  0.1271195E+00
          2   -1    0    0  501    0  0.00000000000E+00  0.00000000000E+00  0.16277758173E+04  0.16277758173E+04  0.00000000000E+00 0. -1.
         -2   -1    0    0    0  501 -0.00000000000E+00 -0.00000000000E+00 -0.90803257464E+01  0.90803257464E+01  0.00000000000E+00 0.  1.
         25    2    1    2    0    0 -0.55189681671E+02 -0.39990938622E+01  0.12848146341E+04  0.12920751081E+04  0.12509015727E+03 0.  0.
         23    2    1    2    0    0  0.55189681671E+02  0.39990938622E+01  0.33388085748E+03  0.34478103490E+03  0.65845586947E+02 0.  0.
          5    1    3    3  502    0 -0.53780278123E+02  0.51406502382E+02  0.52937818248E+03  0.53459674455E+03  0.41800000000E+01 0. -1.
         -5    1    3    3    0  502 -0.14094035478E+01 -0.55405596245E+02  0.75543645159E+03  0.75747836359E+03  0.41800000000E+01 0. -1.
        -11    1    4    4    0    0  0.66600792956E+02  0.71371302504E+01  0.31798622857E+03  0.32496437621E+03  0.00000000000E+00 0. -1.
         11    1    4    4    0    0 -0.11411111285E+02 -0.31380363882E+01  0.15894628911E+02  0.19816658683E+02  0.00000000000E+00 0.  1.
</event>
<event>
 8    1  0.3896452E-010  0.6306965E+02  0.7561462E-02  0.1385383E+00
         -2   -1    0    0    0  501 -0.00000000000E+00  0.00000000000E+00  0.49137544593E+02  0.49137544593E+02  0.00000000000E+00 0.  1.
          2   -1    0    0  501    0  0.00000000000E+00 -0.00000000000E+00 -0.20402960450E+03  0.20402960450E+03  0.00000000000E+00 0. -1.
         25    2    1    2    0    0 -0.41567266057E+01 -0.24155194810E+02 -0.12951177860E+03  0.18172068622E+03  0.12509338589E+03 0.  0.
         23    2    1    2    0    0  0.41567266057E+01  0.24155194810E+02 -0.25380281313E+02  0.71446462874E+02  0.62126375761E+02 0.  0.
          5    1    3    3  502    0 -0.10187520086E+02  0.26770187046E+02 -0.12694711559E+03  0.13020549542E+03  0.41800000000E+01 0.  1.
         -5    1    3    3    0  502  0.60307934806E+01 -0.50925381856E+02 -0.25646630039E+01  0.51515190803E+02  0.41800000000E+01 0.  1.
        -11    1    4    4    0    0 -0.10674775465E+02 -0.59211639911E+01  0.14752030860E+02  0.19147674238E+02  0.00000000000E+00 0.  1.
         11    1    4    4    0    0  0.14831502071E+02  0.30076358801E+02 -0.40132312173E+02  0.52298788636E+02  0.00000000000E+00 0. -1.
</event>
<event>
 8    1  0.3896452E-010  0.5397888E+02  0.7561462E-02  0.1424990E+00
         -3   -1    0    0    0  501 -0.00000000000E+00  0.00000000000E+00  0.16115779658E+02  0.16115779658E+02  0.00000000000E+00 0.  1.
          3   -1    0    0  501    0  0.00000000000E+00 -0.00000000000E+00 -0.57744531208E+03  0.57744531208E+03  0.00000000000E+00 0. -1.
         25    2    1    2    0    0 -0.23082763861E+01  0.11899144850E+02 -0.38782028652E+03  0.40767707554E+03  0.12509638483E+03 0.  0.
         23    2    1    2    0    0  0.23082763861E+01 -0.11899144850E+02 -0.17350924591E+03  0.18588401620E+03  0.65578131086E+02 0.  0.
          5    1    3    3  502    0  0.28887829683E+01 -0.17475444196E+02 -0.37415964646E+03  0.37460198832E+03  0.41800000000E+01 0. -1.
         -5    1    3    3    0  502 -0.51970593544E+01  0.29374589046E+02 -0.13660640061E+02  0.33075087217E+02  0.41800000000E+01 0. -1.
        -11    1    4    4    0    0 -0.53509648905E+01  0.23149878366E+02 -0.11356601100E+03  0.11602494796E+03  0.00000000000E+00 0.  1.
         11    1    4    4    0    0  0.76592412766E+01 -0.35049023216E+02 -0.59943234903E+02  0.69859068244E+02  0.00000000000E+00 0. -1.
</event>
<event>
 8    1  0.3896452E-010  0.1736466E+03  0.7561462E-02  0.1174097E+00
         -2   -1    0    0    0  501 -0.00000000000E+00  0.00000000000E+00  0.25020209834E+03  0.25020209834E+03  0.00000000000E+00 0.  1.
          2   -1    0    0  501    0  0.00000000000E+00 -0.00000000000E+00 -0.19605737543E+03  0.19605737543E+03  0.00000000000E+00 0. -1.
         25    2    1    2    0    0 -0.14294452505E+02 -0.16946252703E+03  0.12639190781E+03  0.24606109090E+03  0.12509702897E+03 0.  0.
         23    2    1    2    0    0  0.14294452505E+02  0.16946252703E+03 -0.72247184894E+02  0.20019838287E+03  0.77057493711E+02 0.  0.
          5    1    3    3  502    0 -0.26923571287E+02 -0.56969734558E+02 -0.14982493772E+02  0.64902826334E+02  0.41800000000E+01 0.  1.
         -5    1    3    3    0  502  0.12629118783E+02 -0.11249279247E+03  0.14137440158E+03  0.18115826457E+03  0.41800000000E+01 0.  1.
        -11    1    4    4    0    0 -0.23530828099E+01  0.68547727172E+02 -0.69845627590E+02  0.97891468437E+02  0.00000000000E+00 0. -1.
         11    1    4    4    0    0  0.16647535315E+02  0.10091479986E+03 -0.24015573032E+01  0.10230691443E+03  0.00000000000E+00 0.  1.
</event>
<event>
 8    1  0.3896452E-010  0.8980887E+02  0.7561462E-02  0.1303315E+00
         -1   -1    0    0    0  501 -0.00000000000E+00  0.00000000000E+00  0.46726815084E+03  0.46726815084E+03  0.00000000000E+00 0.  1.
          1   -1    0    0  501    0  0.00000000000E+00 -0.00000000000E+00 -0.24851770758E+02  0.24851770758E+02  0.00000000000E+00 0. -1.
         25    2    1    2    0    0  0.91405520917E+01  0.38141782008E+02  0.32677258870E+03  0.35208780266E+03  0.12508857194E+03 0.  0.
         23    2    1    2    0    0 -0.91405520917E+01 -0.38141782008E+02  0.11564379138E+03  0.14003211894E+03  0.68535849172E+02 0.  0.
          5    1    3    3  502    0  0.58050104982E+02 -0.46810697225E+01  0.96601101172E+02  0.11287591528E+03  0.41800000000E+01 0.  1.
         -5    1    3    3    0  502 -0.48909552891E+02  0.42822851730E+02  0.23017148752E+03  0.23921188738E+03  0.41800000000E+01 0.  1.
        -11    1    4    4    0    0  0.36016995978E+01 -0.42476190880E+02  0.11879238389E+03  0.12620946677E+03  0.00000000000E+00 0.  1.
         11    1    4    4    0    0 -0.12742251690E+02  0.43344088726E+01 -0.31485925021E+01  0.13822652175E+02  0.00000000000E+00 0. -1.
</event>
<event>
 8    1  0.3896452E-010  0.1817385E+03  0.7561462E-02  0.1166131E+00
         -1   -1    0    0    0  501 -0.00000000000E+00  0.00000000000E+00  0.34066812527E+03  0.34066812527E+03  0.00000000000E+00 0.  1.
          1   -1    0    0  501    0  0.00000000000E+00 -0.00000000000E+00 -0.14258129916E+03  0.14258129916E+03  0.00000000000E+00 0. -1.
         25    2    1    2    0    0 -0.16950621327E+03  0.26315529378E+02  0.31780953949E+02  0.21466716772E+03  0.12508837053E+03 0.  0.
         23    2    1    2    0    0  0.16950621327E+03 -0.26315529378E+02  0.16630587216E+03  0.26858225671E+03  0.12269442563E+03 0.  0.
          5    1    3    3  502    0 -0.28012044128E+02  0.33579017839E+02  0.55682259321E+02  0.70923983661E+02  0.41800000000E+01 0. -1.
         -5    1    3    3    0  502 -0.14149416914E+03 -0.72634884605E+01 -0.23901305371E+02  0.14374318406E+03  0.41800000000E+01 0. -1.
        -11    1    4    4    0    0  0.68041747296E+02  0.12482333428E+02  0.14098313969E+03  0.15704054794E+03  0.00000000000E+00 0.  1.
         11    1    4    4    0    0  0.10146446598E+03 -0.38797862806E+02  0.25322732470E+02  0.11154170876E+03  0.00000000000E+00 0. -1.
</event>
<event>
 7    1  0.3896452E-010  0.1065010E+03  0.7561462E-02  0.1267190E+00
         -1   -1    0    0    0  501 -0.00000000000E+00  0.00000000000E+00  0.13776097171E+02  0.13776097171E+02  0.00000000000E+00 0.  1.
          1   -1    0    0  501    0  0.00000000000E+00 -0.00000000000E+00 -0.10384062165E+04  0.10384062165E+04  0.00000000000E+00 0. -1.
         25    2    1    2    0    0  0.48302673293E+02  0.58615626309E+02 -0.73625906593E+03  0.75066188851E+03  0.12508764450E+03 0.  0.
          5    1    3    3  502    0  0.44329759072E+02 -0.24500466269E+02 -0.14689922203E+03  0.15544212499E+03  0.41800000000E+01 0.  1.
         -5    1    3    3    0  502  0.39729142214E+01  0.83116092578E+02 -0.58935984389E+03  0.59521976352E+03  0.41800000000E+01 0.  1.
        -11    1    1    2    0    0 -0.10797355150E+02 -0.29408092770E+02 -0.54457347525E+02  0.62825325293E+02  0.00000000000E+00 0.  1.
         11    1    1    2    0    0 -0.37505318143E+02 -0.29207533539E+02 -0.23391370589E+03  0.23869509988E+03  0.00000000000E+00 0. -1.
</event>
<event>
 8    1  0.3896452E-010  0.1308918E+03  0.7561462E-02  0.1226138E+00
          3   -1    0    0  501    0  0.00000000000E+00  0.00000000000E+00  0.72483808630E+02  0.72483808630E+02  0.00000000000E+00 0. -1.
         -3   -1    0    0    0  501 -0.00000000000E+00 -0.00000000000E+00 -0.32021886824E+03  0.32021886824E+03  0.00000000000E+00 0.  1.
         25    2    1    2    0    0  0.10409558422E+03 -0.48532474716E+01 -0.19684514523E+03  0.25544630234E+03  0.12508140355E+03 0.  0.
         23    2    1    2    0    0 -0.10409558422E+03  0.48532474716E+01 -0.50889914382E+02  0.13725637453E+03  0.73417193479E+02 0.  0.
          5    1    3    3  502    0  0.32415620239E+02 -0.57899156308E+02 -0.12204312566E+03  0.13897870937E+03  0.41800000000E+01 0.  1.
         -5    1    3    3    0  502  0.71679963984E+02  0.53045908836E+02 -0.74802019570E+02  0.11646759297E+03  0.41800000000E+01 0.  1.
        -11    1    4    4    0    0 -0.28903664558E+02 -0.74133489246E+01 -0.53242708962E+02  0.61034134915E+02  0.00000000000E+00 0.  1.
         11    1    4    4    0    0 -0.75191919665E+02  0.12266596396E+02  0.23527945797E+01  0.76222239618E+02  0.00000000000E+00 0. -1.
</event>
<event>
 8    1  0.3896452E-010  0.2200917E+03  0.7561462E-02  0.1133815E+00
          2   -1    0    0  501    0  0.00000000000E+00  0.00000000000E+00  0.12087832186E+04  0.12087832186E+04  0.00000000000E+00 0. -1.
         -2   -1    0    0    0  501 -0.00000000000E+00 -0.00000000000E+00 -0.55276705550E+02  0.55276705550E+02  0.00000000000E+00 0.  1.
         25    2    1    2    0    0  0.18662623926E+03 -0.46647275854E+02  0.28308908555E+03  0.36440661280E+03  0.12508967813E+03 0.  0.
         23    2    1    2    0    0 -0.18662623926E+03  0.46647275854E+02  0.87041742753E+03  0.89965331138E+03  0.12142594860E+03 0.  0.
          5    1    3    3  502    0  0.18212704709E+02  0.26530955883E+02  0.76438983011E+01  0.33339103379E+02  0.41800000000E+01 0. -1.
         -5    1    3    3    0  502  0.16841353455E+03 -0.73178231737E+02  0.27544518725E+03  0.33106750942E+03  0.41800000000E+01 0. -1.
        -11    1    4    4    0    0 -0.15969149396E+03  0.82080752568E+02  0.62708784746E+03  0.65228658703E+03  0.00000000000E+00 0. -1.
         11    1    4    4    0    0 -0.26934745302E+02 -0.35433476714E+02  0.24332958007E+03  0.24736672435E+03  0.00000000000E+00 0.  1.
</event>
<event>
 8    1  0.3896452E-010  0.7830223E+02  0.7561462E-02  0.1333940E+00
          1   -1    0    0  501    0  0.00000000000E+00  0.00000000000E+00  0.71271831135E+03  0.71271831135E+03  0.00000000000E+00 0. -1.
         -1   -1    0    0    0  501 -0.00000000000E+00 -0.00000000000E+00 -0.13187355889E+02  0.13187355889E+02  0.00000000000E+00 0.  1.
         25    2    1    2    0    0  0.12144430608E+02 -0.86990344643E+01  0.45282129164E+03  0.47002072718E+03  0.12509676824E+03 0.  0.
         23    2    1    2    0    0 -0.12144430608E+02  0.86990344643E+01  0.24670966382E+03  0.25588494006E+03  0.66244123735E+02 0.  0.
          5    1    3    3  502    0 -0.17040826209E+02 -0.46192380538E+02  0.37849325009E+03  0.38170504129E+03  0.41800000000E+01 0.  1.
         -5    1    3    3    0  502  0.29185256817E+02  0.37493346074E+02  0.74328041546E+02  0.88315685896E+02  0.41800000000E+01 0.  1.
        -11    1    4    4    0    0 -0.33597029834E+02  0.15486096385E+02  0.20668100423E+03  0.20996575222E+03  0.00000000000E+00 0. -1.
         11    1    4    4    0    0  0.21452599226E+02 -0.67870619210E+01  0.40028659591E+02  0.45919187839E+02  0.00000000000E+00 0.  1.
</event>
<event>
 7    1  0.3896452E-010  0.7460984E+02  0.7561462E-02  0.1345084E+00
         -2   -1    0    0    0  501 -0.00000000000E+00  0.00000000000E+00  0.12730789285E+02  0.12730789285E+02  0.00000000000E+00 0.  1.
          2   -1    0    0  501    0  0.00000000000E+00 -0.00000000000E+00 -0.79545850563E+03  0.79545850563E+03  0.00000000000E+00 0. -1.
         25    2    1    2    0    0 -0.40841447845E+02  0.39072184054E+02 -0.49923977258E+03  0.51776674321E+03  0.12508952962E+03 0.  0.
          5    1    3    3  502    0 -0.28151422780E+02  0.57398159811E+02 -0.10588324155E+03  0.12375695776E+03  0.41800000000E+01 0.  1.
         -5    1    3    3    0  502 -0.12690025065E+02 -0.18325975757E+02 -0.39335653103E+03  0.39400978544E+03  0.41800000000E+01 0.  1.
        -11    1    1    2    0    0  0.16109317417E+02 -0.33426037430E+02 -0.18768737130E+03  0.19132004452E+03  0.00000000000E+00 0. -1.
         11    1    1    2    0    0  0.24732130428E+02 -0.56461466235E+01 -0.95800572464E+02  0.99102507191E+02  0.00000000000E+00 0.  1.
</event>
<event>
 7    1  0.3896452E-010  0.7703896E+02  0.7561462E-02  0.1337671E+00
         -2   -1    0    0    0  501 -0.00000000000E+00  0.00000000000E+00  0.16828142137E+02  0.16828142137E+02  0.00000000000E+00 0.  1.
          2   -1    0    0  501    0  0.00000000000E+00 -0.00000000000E+00 -0.61207330362E+03  0.61207330362E+03  0.00000000000E+00 0. -1.
         25    2    1    2    0    0 -0.44903004880E+02 -0.42345867428E+01 -0.49564402405E+03  0.51317345897E+03  0.12509911609E+03 0.  0.
          5    1    3    3  502    0 -0.49723115514E+02 -0.41719309592E+02 -0.12808412567E+03  0.14365202629E+03  0.41800000000E+01 0.  1.
         -5    1    3    3    0  502  0.48201106341E+01  0.37484722849E+02 -0.36755989838E+03  0.36952143268E+03  0.41800000000E+01 0.  1.
        -11    1    1    2    0    0  0.96944910922E+01  0.11522228048E+02 -0.74280553886E+01  0.16790500397E+02  0.00000000000E+00 0.  1.
         11    1    1    2    0    0  0.35208513788E+02 -0.72876413047E+01 -0.92173082052E+02  0.98937486394E+02  0.00000000000E+00 0. -1.
</event>
<event>
 8    1  0.3896452E-010  0.1037798E+03  0.7561462E-02  0.1272543E+00
         -1   -1    0    0    0  501 -0.00000000000E+00  0.00000000000E+00  0.14945429047E+03  0.14945429047E+03  0.00000000000E+00 0.  1.
          1   -1    0    0  501    0  0.00000000000E+00 -0.00000000000E+00 -0.11730375537E+03  0.11730375537E+03  0.00000000000E+00 0. -1.
         25    2    1    2    0    0  0.36573029901E+02  0.26140599645E+02  0.12260075855E+02  0.13348544561E+03  0.12508851771E+03 0.  0.
         23    2    1    2    0    0 -0.36573029901E+02 -0.26140599645E+02  0.19890459243E+02  0.13327260024E+03  0.12387509088E+03 0.  0.
          5    1    3    3  502    0  0.47498060647E+02  0.49981394226E+02  0.51459291832E+02  0.86137893228E+02  0.41800000000E+01 0. -1.
         -5    1    3    3    0  502 -0.10925030746E+02 -0.23840794581E+02 -0.39199215977E+02  0.47347552379E+02  0.41800000000E+01 0. -1.
        -11    1    4    4    0    0 -0.48743409870E+01 -0.63070087559E+02  0.45837592645E+02  0.78119652100E+02  0.00000000000E+00 0.  1.
         11    1    4    4    0    0 -0.31698688914E+02  0.36929487914E+02 -0.25947133402E+02  0.55152948138E+02  0.00000000000E+00 0. -1.
</event>
<event>
 8    1  0.3896452E-010  0.6644295E+02  0.7561462E-02  0.1372624E+00
         -1   -1    0    0    0  501 -0.00000000000E+00  0.00000000000E+00  0.31358835857E+02  0.31358835857E+02  0.00000000000E+00 0.  1.
          1   -1    0    0  501    0  0.00000000000E+00 -0.00000000000E+00 -0.31695221053E+03  0.31695221053E+03  0.00000000000E+00 0. -1.
         25    2    1    2    0    0 -0.16064839649E+02 -0.33994488416E+02 -0.16091505596E+03  0.20725556554E+03  0.12509000718E+03 0.  0.
         23    2    1    2    0    0  0.16064839649E+02  0.33994488416E+02 -0.12467831871E+03  0.14105548085E+03  0.54205730373E+02 0.  0.
          5    1    3    3  502    0 -0.12262851297E+02  0.17616646333E+02 -0.15321557990E+03  0.15476824633E+03  0.41800000000E+01 0. -1.
         -5    1    3    3    0  502 -0.38019883521E+01 -0.51611134749E+02 -0.76994760636E+01  0.52487319204E+02  0.41800000000E+01 0. -1.
        -11    1    4    4    0    0 -0.15958261731E+02  0.14792850629E+02 -0.18697751411E+02  0.28689727343E+02  0.00000000000E+00 0.  1.
         11    1    4    4    0    0  0.32023101379E+02  0.19201637787E+02 -0.10598056730E+03  0.11236575351E+03  0.00000000000E+00 0. -1.
</event>
<event>
 8    1  0.3896452E-010  0.1342562E+03  0.7561462E-02  0.1221273E+00
          2   -1    0    0  501    0  0.00000000000E+00  0.00000000000E+00  0.25529978054E+03  0.25529978054E+03  0.00000000000E+00 0. -1.
         -2   -1    0    0    0  501 -0.00000000000E+00 -0.00000000000E+00 -0.11786725795E+03  0.11786725795E+03  0.00000000000E+00 0.  1.
         25    2    1    2    0    0  0.91328975807E+02 -0.53269884159E+02  0.27000003329E+01  0.16380400839E+03  0.12508317546E+03 0.  0.
         23    2    1    2    0    0 -0.91328975807E+02  0.53269884159E+02  0.13473252226E+03  0.20936303011E+03  0.12042160704E+03 0.  0.
          5    1    3    3  502    0 -0.24626000953E+02 -0.20050487809E+02 -0.24207523939E+02  0.40148955149E+02  0.41800000000E+01 0. -1.
         -5    1    3    3    0  502  0.11595497676E+03 -0.33219396350E+02  0.26907524272E+02  0.12365505324E+03  0.41800000000E+01 0. -1.
        -11    1    4    4    0    0 -0.14920523206E+02  0.33790238595E+02  0.12448247156E+03  0.12984717157E+03  0.00000000000E+00 0. -1.
         11    1    4    4    0    0 -0.76408452601E+02  0.19479645564E+02  0.10250050690E+02  0.79515858540E+02  0.00000000000E+00 0.  1.
</event>
<event>
 8    1  0.3896452E-010  0.2739080E+03  0.7561462E-02  0.1099064E+00
          1   -1    0    0  501    0  0.00000000000E+00  0.00000000000E+00  0.92560794122E+03  0.92560794122E+03  0.00000000000E+00 0. -1.
         -1   -1    0    0    0  501 -0.00000000000E+00 -0.00000000000E+00 -0.10244060910E+03  0.10244060910E+03  0.00000000000E+00 0.  1.
         25    2    1    2    0    0 -0.26176567029E+03  0.51403254634E+02  0.23267239835E+03  0.37542962706E+03  0.12508956467E+03 0.  0.
         23    2    1    2    0    0  0.26176567029E+03 -0.51403254634E+02  0.59049493377E+03  0.65261892327E+03  0.77869323039E+02 0.  0.
          5    1    3    3  502    0 -0.20468056905E+03  0.22376154297E+02  0.10193399196E+03  0.22978868281E+03  0.41800000000E+01 0.  1.
         -5    1    3    3    0  502 -0.57085101240E+02  0.29027100337E+02  0.13073840639E+03  0.14564094425E+03  0.41800000000E+01 0.  1.
        -11    1    4    4    0    0  0.20222172882E+02  0.17255932319E+02  0.64198963921E+02  0.69485325392E+02  0.00000000000E+00 0.  1.
         11    1    4    4    0    0  0.24154349741E+03 -0.68659186953E+02  0.52629596985E+03  0.58313359788E+03  0.00000000000E+00 0. -1.
</event>
<event>
 8    1  0.3896452E-010  0.6431908E+02  0.7561462E-02  0.1380551E+00
         -2   -1    0    0    0  501 -0.00000000000E+00  0.00000000000E+00  0.14196262440E+02  0.14196262440E+02  0.00000000000E+00 0. -1.
          2   -1    0    0  501    0  0.00000000000E+00 -0.00000000000E+00 -0.18375030947E+04  0.18375030947E+04  0.00000000000E+00 0.  1.
         25    2    1    2    0    0  0.13590724997E+02 -0.42896808648E+02 -0.15391729419E+04  0.15449044771E+04  0.12510657108E+03 0.  0.
         23    2    1    2    0    0 -0.13590724997E+02  0.42896808648E+02 -0.28413389028E+03  0.30679488001E+03  0.10661232011E+03 0.  0.
          5    1    3    3  502    0  0.21803617528E+02 -0.43546709586E+02 -0.15330326930E+04  0.15338117303E+04  0.41800000000E+01 0.  1.
         -5    1    3    3    0  502 -0.82128925310E+01  0.64990093826E+00 -0.61402489047E+01  0.11092746800E+02  0.41800000000E+01 0.  1.
        -11    1    4    4    0    0 -0.18554892847E+02  0.54675690634E+02 -0.28777029781E+03  0.29350546757E+03  0.00000000000E+00 0.  1.
         11    1    4    4    0    0  0.49641678498E+01 -0.11778881986E+02  0.36364075280E+01  0.13289412440E+02  0.00000000000E+00 0. -1.
</event>
<event>
 8    1  0.3896452E-010  0.4680886E+02  0.7561462E-02  0.1463355E+00
         -2   -1    0    0    0  501 -0.00000000000E+00  0.00000000000E+00  0.47299890259E+03  0.47299890259E+03  0.00000000000E+00 0.  1.
          2   -1    0    0  501    0  0.00000000000E+00 -0.00000000000E+00 -0.23177102541E+02  0.23177102541E+02  0.00000000000E+00 0. -1.
         25    2    1    2    0    0  0.27281589669E+02  0.28402063070E+02  0.33361585216E+03  0.35846624466E+03  0.12509016519E+03 0.  0.
         23    2    1    2    0    0 -0.27281589669E+02 -0.28402063070E+02  0.11620594790E+03  0.13770976048E+03  0.62523543425E+02 0.  0.
          5    1    3    3  502    0  0.25001440090E+02  0.14866822699E+02  0.34104498291E+03  0.34230870160E+03  0.41800000000E+01 0. -1.
         -5    1    3    3    0  502  0.22801495781E+01  0.13535240371E+02 -0.74291307508E+01  0.16157543059E+02  0.41800000000E+01 0. -1.
        -11    1    4    4    0    0 -0.74827805923E+01 -0.29125018260E+02  0.13242611504E+02  0.32857654413E+02  0.00000000000E+00 0.  1.
         11    1    4    4    0    0 -0.19798809076E+02  0.72295518978E+00  0.10296333639E+03  0.10485210606E+03  0.00000000000E+00 0. -1.
</event>
<event>
 8    1  0.3896452E-010  0.1708165E+03  0.7561462E-02  0.1176999E+00
         -2   -1    0    0    0  501 -0.00000000000E+00  0.00000000000E+00  0.31055539870E+02  0.31055539870E+02  0.00000000000E+00 0. -1.
          2   -1    0    0  501    0  0.00000000000E+00 -0.00000000000E+00 -0.11678059036E+04  0.11678059036E+04  0.00000000000E+00 0.  1.
         25    2    1    2    0    0 -0.45085213697E+01  0.14439291327E+03 -0.60333831269E+03  0.63287837087E+03  0.12509305572E+03 0.  0.
         23    2    1    2    0    0  0.45085213697E+01 -0.14439291327E+03 -0.53341205107E+03  0.56598307263E+03  0.12222431064E+03 0.  0.
          5    1    3    3  502    0 -0.41752673073E+02  0.75566984582E+02 -0.15261143359E+03  0.17538921555E+03  0.41800000000E+01 0.  1.
         -5    1    3    3    0  502  0.37244151703E+02  0.68825928683E+02 -0.45072687909E+03  0.45748915532E+03  0.41800000000E+01 0.  1.
        -11    1    4    4    0    0  0.44212356431E+02 -0.24530049783E+02 -0.25934607268E+03  0.26422876683E+03  0.00000000000E+00 0.  1.
         11    1    4    4    0    0 -0.39703835062E+02 -0.11986286348E+03 -0.27406597839E+03  0.30175430581E+03  0.00000000000E+00 0. -1.
</event>
<event>
 8    1  0.3896452E-010  0.1334408E+03  0.7561462E-02  0.1222438E+00
          1   -1    0    0  501    0  0.00000000000E+00  0.00000000000E+00  0.61438619589E+03  0.61438619589E+03  0.00000000000E+00 0. -1.
         -1   -1    0    0    0  501 -0.00000000000E+00 -0.00000000000E+00 -0.39193528149E+02  0.39193528149E+02  0.00000000000E+00 0.  1.
         25    2    1    2    0    0  0.55799947908E+02  0.50772193718E+02  0.41676143866E+03  0.44162088331E+03  0.12508979968E+03 0.  0.
         23    2    1    2    0    0 -0.55799947908E+02 -0.50772193718E+02  0.15843122908E+03  0.21195884072E+03  0.11888921722E+03 0.  0.
          5    1    3    3  502    0  0.71283261696E+02  0.83238315319E+02  0.32295370666E+03  0.34106669374E+03  0.41800000000E+01 0.  1.
         -5    1    3    3    0  502 -0.15483313788E+02 -0.32466121601E+02  0.93807731995E+02  0.10055418957E+03  0.41800000000E+01 0.  1.
        -11    1    4    4    0    0 -0.11439716765E+02 -0.71235574517E+02  0.37028459600E+02  0.81095505527E+02  0.00000000000E+00 0.  1.
         11    1    4    4    0    0 -0.44360231143E+02  0.20463380799E+02  0.12140276948E+03  0.13086333520E+03  0.00000000000E+00 0. -1.
</event>
<event>
 8    1  0.5933053E-010  0.1001325E+03  0.7561462E-02  0.1280018E+00
          2   -1    0    0  501    0  0.00000000000E+00  0.00000000000E+00  0.13772227387E+03  0.13772227387E+03  0.00000000000E+00 0. -1.
         -2   -1    0    0    0  501 -0.00000000000E+00 -0.00000000000E+00 -0.12290397447E+03  0.12290397447E+03  0.00000000000E+00 0.  1.
         25    2    1    2    0    0 -0.31076510796E+02 -0.52550341628E+02  0.83303750267E+01  0.13944119409E+03  0.12508862271E+03 0.  0.
         23    2    1    2    0    0  0.31076510796E+02  0.52550341628E+02  0.64879243694E+01  0.12118505426E+03  0.10448175096E+03 0.  0.
          5    1    3    3  502    0 -0.73629878361E+02 -0.31418313555E+01  0.59944964411E+01  0.74058331599E+02  0.41800000000E+01 0. -1.
         -5    1    3    3    0  502  0.42553367565E+02 -0.49408510273E+02  0.23358785856E+01  0.65382862489E+02  0.41800000000E+01 0. -1.
        -11    1    4    4    0    0  0.19406022740E+02  0.35272135260E+02  0.55128921502E+02  0.68263571767E+02  0.00000000000E+00 0. -1.
         11    1    4    4    0    0  0.11670488055E+02  0.17278206368E+02 -0.48640997132E+02  0.52921482488E+02  0.00000000000E+00 0.  1.
</event>
<event>
 8    1  0.3896452E-010  0.9379721E+02  0.7561462E-02  0.1293908E+00
         -1   -1    0    0    0  501 -0.00000000000E+00  0.00000000000E+00  0.31519444521E+02  0.31519444521E+02  0.00000000000E+00 0.  1.
          1   -1    0    0  501    0  0.00000000000E+00 -0.00000000000E+00 -0.42981594959E+03  0.42981594959E+03  0.00000000000E+00 0. -1.
         25    2    1    2    0    0 -0.51604330399E+02  0.25920691105E+02 -0.30431650890E+03  0.33404826901E+03  0.12507925205E+03 0.  0.
         23    2    1    2    0    0  0.51604330399E+02 -0.25920691105E+02 -0.93979996171E+02  0.12728712511E+03  0.63520732004E+02 0.  0.
          5    1    3    3  502    0  0.70481924334E+01  0.57975479110E+02 -0.21239361906E+03  0.22031648829E+03  0.41800000000E+01 0. -1.
         -5    1    3    3    0  502 -0.58652522832E+02 -0.32054788005E+02 -0.91922889839E+02  0.11373178072E+03  0.41800000000E+01 0. -1.
        -11    1    4    4    0    0  0.46531585152E+02 -0.13185799637E+02 -0.20482559763E+02  0.52522271308E+02  0.00000000000E+00 0.  1.
         11    1    4    4    0    0  0.50727452465E+01 -0.12734891468E+02 -0.73497436408E+02  0.74764853799E+02  0.00000000000E+00 0. -1.
</event>
<event>
 8    1  0.3896452E-010  0.1011519E+03  0.7561462E-02  0.1277892E+00
          1   -1    0    0  501    0  0.00000000000E+00  0.00000000000E+00  0.21593382707E+03  0.21593382707E+03  0.00000000000E+00 0. -1.
         -1   -1    0    0    0  501 -0.00000000000E+00 -0.00000000000E+00 -0.87621519519E+02  0.87621519519E+02  0.00000000000E+00 0.  1.
         25    2    1    2    0    0  0.38089154730E+02  0.36928123449E+02  0.24131445852E+02  0.13800567850E+03  0.12509504631E+03 0.  0.
         23    2    1    2    0    0 -0.38089154730E+02 -0.36928123449E+02  0.10418086170E+03  0.16554966808E+03  0.11721164895E+03 0.  0.
          5    1    3    3  502    0  0.49236735366E+00  0.36187128299E+02 -0.45783560335E+02  0.58509464851E+02  0.41800000000E+01 0.  1.
         -5    1    3    3    0  502  0.37596787377E+02  0.74099514964E+00  0.69915006187E+02  0.79496213652E+02  0.41800000000E+01 0.  1.
        -11    1    4    4    0    0  0.35912887858E+02 -0.40272738284E+02  0.52010925434E+02  0.74945082078E+02  0.00000000000E+00 0.  1.
         11    1    4    4    0    0 -0.74002042588E+02  0.33446148351E+01  0.52169936262E+02  0.90604586006E+02  0.00000000000E+00 0. -1.
</event>
<event>
 8    1  0.3896452E-010  0.1053600E+03  0.7561462E-02  0.1269412E+00
          1   -1    0    0  501    0  0.00000000000E+00  0.00000000000E+00  0.12266550993E+03  0.12266550993E+03  0.00000000000E+00 0. -1.
         -1   -1    0    0    0  501 -0.00000000000E+00 -0.00000000000E+00 -0.11854344535E+03  0.11854344535E+03  0.00000000000E+00 0.  1.
         25    2    1    2    0    0 -0.64568989619E-01 -0.21673159973E+02  0.25338067925E+02  0.12946083821E+03  0.12509340875E+03 0.  0.
         23    2    1    2    0    0  0.64568989619E-01  0.21673159973E+02 -0.21216003344E+02  0.11174811707E+03  0.10755367422E+03 0.  0.
          5    1    3    3  502    0  0.54782579396E+02  0.72833173274E+01  0.36420647252E+02  0.66318275482E+02  0.41800000000E+01 0.  1.
         -5    1    3    3    0  502 -0.54847148386E+02 -0.28956477301E+02 -0.11082579327E+02  0.63142562731E+02  0.41800000000E+01 0.  1.
        -11    1    4    4    0    0 -0.37602272393E+02  0.36735473278E+02  0.17764241394E+02  0.55488684958E+02  0.00000000000E+00 0.  1.
         11    1    4    4    0    0  0.37666841383E+02 -0.15062313305E+02 -0.38980244739E+02  0.56259432113E+02  0.00000000000E+00 0. -1.
</event>
<event>
 7    1  0.3896452E-010  0.9146415E+02  0.7561462E-02  0.1299344E+00
          1   -1    0    0  501    0  0.00000000000E+00  0.00000000000E+00  0.62669993313E+02  0.62669993313E+02  0.00000000000E+00 0. -1.
         -1   -1    0    0    0  501 -0.00000000000E+00 -0.00000000000E+00 -0.63492494661E+03  0.63492494661E+03  0.00000000000E+00 0.  1.
         25    2    1    2    0    0  0.38566336347E+02 -0.23397004485E+02 -0.60570249017E+03  0.62012730614E+03  0.12509031576E+03 0.  0.
          5    1    3    3  502    0  0.66465382975E+02  0.15236457343E+02 -0.19445254389E+03  0.20610449047E+03  0.41800000000E+01 0.  1.
         -5    1    3    3    0  502 -0.27899046628E+02 -0.38633461827E+02 -0.41124994628E+03  0.41402281566E+03  0.41800000000E+01 0.  1.
        -11    1    1    2    0    0 -0.15040263607E+01 -0.14024733456E+02  0.17419248937E+02  0.22413957199E+02  0.00000000000E+00 0.  1.
         11    1    1    2    0    0 -0.37062309987E+02  0.37421737941E+02  0.16028287935E+02  0.55053676591E+02  0.00000000000E+00 0. -1.
</event>
<event>
 8    1  0.3896452E-010  0.9211915E+02  0.7561462E-02  0.1297800E+00
          1   -1    0    0  501    0  0.00000000000E+00  0.00000000000E+00  0.12281928829E+03  0.12281928829E+03  0.00000000000E+00 0. -1.
         -1   -1    0    0    0  501 -0.00000000000E+00 -0.00000000000E+00 -0.95781009425E+02  0.95781009425E+02  0.00000000000E+00 0.  1.
         25    2    1    2    0    0  0.58695486281E+01 -0.36489189901E+02  0.16890329048E+02  0.13151149768E+03  0.12507628963E+03 0.  0.
         23    2    1    2    0    0 -0.58695486281E+01  0.36489189901E+02  0.10147949820E+02  0.87088800034E+02  0.78202081974E+02 0.  0.
          5    1    3    3  502    0  0.39422608846E+02  0.11028511342E+02  0.49757163322E+02  0.64567932075E+02  0.41800000000E+01 0. -1.
         -5    1    3    3    0  502 -0.33553060217E+02 -0.47517701242E+02 -0.32866834274E+02  0.66943565609E+02  0.41800000000E+01 0. -1.
        -11    1    4    4    0    0  0.60127584660E+01 -0.23170465489E+02 -0.48761560983E+01  0.24429503344E+02  0.00000000000E+00 0.  1.
         11    1    4    4    0    0 -0.11882307094E+02  0.59659655389E+02  0.15024105918E+02  0.62659296690E+02  0.00000000000E+00 0. -1.
</event>
<event>
 8    1  0.3896452E-010  0.5487838E+02  0.7561462E-02  0.1420675E+00
          4   -1    0    0  501    0  0.00000000000E+00  0.00000000000E+00  0.17057203429E+03  0.17057203429E+03  0.00000000000E+00 0. -1.
         -4   -1    0    0    0  501 -0.00000000000E+00 -0.00000000000E+00 -0.65322023707E+02  0.65322023707E+02  0.00000000000E+00 0.  1.
         25    2    1    2    0    0  0.63735374130E+01  0.24429694833E+02  0.74073855557E+02  0.14755220273E+03  0.12508910618E+03 0.  0.
         23    2    1    2    0    0 -0.63735374130E+01 -0.24429694833E+02  0.31176155027E+02  0.88341855265E+02  0.78707679299E+02 0.  0.
          5    1    3    3  502    0  0.39330340729E+01  0.19114969386E+02 -0.33900333500E+02  0.39338986045E+02  0.41800000000E+01 0.  1.
         -5    1    3    3    0  502  0.24405033401E+01  0.53147254471E+01  0.10797418906E+03  0.10821321669E+03  0.41800000000E+01 0.  1.
        -11    1    4    4    0    0  0.31408941617E+02  0.84485065523E+01  0.13744829511E+02  0.35310327310E+02  0.00000000000E+00 0. -1.
         11    1    4    4    0    0 -0.37782479030E+02 -0.32878201385E+02  0.17431325516E+02  0.53031527955E+02  0.00000000000E+00 0.  1.
</event>
<event>
 7    1  0.3896452E-010  0.8863166E+02  0.7561462E-02  0.1306200E+00
          4   -1    0    0  501    0  0.00000000000E+00  0.00000000000E+00  0.37850899465E+03  0.37850899465E+03  0.00000000000E+00 0. -1.
         -4   -1    0    0    0  501 -0.00000000000E+00 -0.00000000000E+00 -0.82257343880E+02  0.82257343880E+02  0.00000000000E+00 0.  1.
         25    2    1    2    0    0 -0.67353669376E+02 -0.52314524917E+02  0.76762084148E+02  0.16974398580E+03  0.12508907568E+03 0.  0.
          5    1    3    3  502    0 -0.54702863511E+01 -0.36972847048E+01 -0.33396258040E+02  0.34298343954E+02  0.41800000000E+01 0.  1.
         -5    1    3    3    0  502 -0.61883383025E+02 -0.48617240212E+02  0.11015834219E+03  0.13544564184E+03  0.41800000000E+01 0.  1.
        -11    1    1    2    0    0  0.23801562253E+02  0.37921570416E+02 -0.18653067744E+02  0.48502544312E+02  0.00000000000E+00 0.  1.
         11    1    1    2    0    0  0.43552107123E+02  0.14392954501E+02  0.23814263436E+03  0.24251980842E+03  0.00000000000E+00 0. -1.
</event>
<event>
 8    1  0.3896452E-010  0.4673372E+02  0.7561462E-02  0.1463800E+00
         -4   -1    0    0    0  501 -0.00000000000E+00  0.00000000000E+00  0.95573945892E+02  0.95573945892E+02  0.00000000000E+00 0.  1.
          4   -1    0    0  501    0  0.00000000000E+00 -0.00000000000E+00 -0.11908723286E+03  0.11908723286E+03  0.00000000000E+00 0. -1.
         25    2    1    2    0    0  0.60983363608E+01  0.15298537010E+02 -0.53839436452E+02  0.13717540342E+03  0.12508865434E+03 0.  0.
         23    2    1    2    0    0 -0.60983363608E+01 -0.15298537010E+02  0.30326149485E+02  0.77485775332E+02  0.69376761926E+02 0.  0.
          5    1    3    3  502    0 -0.23932316853E+02  0.98493670085E+00 -0.86810380753E+02  0.90151209069E+02  0.41800000000E+01 0.  1.
         -5    1    3    3    0  502  0.30030653214E+02  0.14313600309E+02  0.32970944300E+02  0.47024194350E+02  0.41800000000E+01 0.  1.
        -11    1    4    4    0    0 -0.17374533126E+02 -0.98529636197E+00  0.48635102894E+02  0.51654800781E+02  0.00000000000E+00 0.  1.
         11    1    4    4    0    0  0.11276196765E+02 -0.14313240648E+02 -0.18308953409E+02  0.25830974551E+02  0.00000000000E+00 0. -1.
</event>
<event>
 8    1  0.3896452E-010  0.1151862E+03  0.7561462E-02  0.1251256E+00
         -1   -1    0    0    0  501 -0.00000000000E+00  0.00000000000E+00  0.13809474947E+02  0.13809474947E+02  0.00000000000E+00 0.  1.
          1   -1    0    0  501    0  0.00000000000E+00 -0.00000000000E+00 -0.98360061400E+03  0.98360061400E+03  0.00000000000E+00 0. -1.
         25    2    1    2    0    0 -0.44820512497E+01  0.50030398576E+01 -0.55838248282E+03  0.57226172835E+03  0.12508944568E+03 0.  0.
         23    2    1    2    0    0  0.44820512497E+01 -0.50030398576E+01 -0.41140865623E+03  0.42514836060E+03  0.10699965843E+03 0.  0.
          5    1    3    3  502    0  0.56604413930E+02 -0.15176137151E+02 -0.21518013664E+03  0.22305680536E+03  0.41800000000E+01 0.  1.
         -5    1    3    3    0  502 -0.61086465180E+02  0.20179177009E+02 -0.34320234618E+03  0.34920492298E+03  0.41800000000E+01 0.  1.
        -11    1    4    4    0    0  0.53319645294E+02 -0.18575556298E+02 -0.20973024890E+03  0.21719763620E+03  0.00000000000E+00 0.  1.
         11    1    4    4    0    0 -0.48837594045E+02  0.13572516440E+02 -0.20167840733E+03  0.20795072440E+03  0.00000000000E+00 0. -1.
</event>
<event>
 8    1  0.5156487E-010  0.1300980E+03  0.7561462E-02  0.1227310E+00
          1   -1    0    0  501    0  0.00000000000E+00  0.00000000000E+00  0.98477084988E+02  0.98477084988E+02  0.00000000000E+00 0. -1.
         -1   -1    0    0    0  501 -0.00000000000E+00 -0.00000000000E+00 -0.22972387552E+03  0.22972387552E+03  0.00000000000E+00 0.  1.
         25    2    1    2    0    0 -0.47206048725E+02 -0.97178389041E+02 -0.52591355561E+02  0.17345205913E+03  0.12509083021E+03 0.  0.
         23    2    1    2    0    0  0.47206048725E+02  0.97178389041E+02 -0.78655434974E+02  0.15474890138E+03  0.78028806834E+02 0.  0.
          5    1    3    3  502    0 -0.11246095081E+02 -0.10069828653E+03  0.91193580556E+01  0.10181971644E+03  0.41800000000E+01 0. -1.
         -5    1    3    3    0  502 -0.35959953644E+02  0.35198974852E+01 -0.61710713617E+02  0.71632342691E+02  0.41800000000E+01 0. -1.
        -11    1    4    4    0    0  0.56502460972E+02  0.53695151577E+02 -0.78010342563E+02  0.11027833398E+03  0.00000000000E+00 0.  1.
         11    1    4    4    0    0 -0.92964122470E+01  0.43483237463E+02 -0.64509241106E+00  0.44470567403E+02  0.00000000000E+00 0. -1.
</event>
<event>
 7    1  0.3896452E-010  0.1640691E+03  0.7561462E-02  0.1184178E+00
          2   -1    0    0  501    0  0.00000000000E+00  0.00000000000E+00  0.29626106306E+03  0.29626106306E+03  0.00000000000E+00 0. -1.
         -2   -1    0    0    0  501 -0.00000000000E+00 -0.00000000000E+00 -0.11288352626E+03  0.11288352626E+03  0.00000000000E+00 0.  1.
         25    2    1    2    0    0  0.24221617087E+02  0.11946939341E+03  0.39743085295E+02  0.17912573678E+03  0.12508754556E+03 0.  0.
          5    1    3    3  502    0  0.41420516281E+02  0.16027152678E+02 -0.29421794444E+02  0.53438218349E+02  0.41800000000E+01 0. -1.
         -5    1    3    3    0  502 -0.17198899194E+02  0.10344224073E+03  0.69164879739E+02  0.12568751843E+03  0.41800000000E+01 0. -1.
        -11    1    1    2    0    0 -0.73134526821E+02 -0.10427350642E+03  0.11346252774E+03  0.17057364497E+03  0.00000000000E+00 0.  1.
         11    1    1    2    0    0  0.48912909734E+02 -0.15195886983E+02  0.30171923758E+02  0.59445207571E+02  0.00000000000E+00 0. -1.
</event>
<event>
 8    1  0.3896452E-010  0.1251363E+03  0.7561462E-02  0.1234856E+00
         -1   -1    0    0    0  501 -0.00000000000E+00  0.00000000000E+00  0.80197302583E+02  0.80197302583E+02  0.00000000000E+00 0.  1.
          1   -1    0    0  501    0  0.00000000000E+00 -0.00000000000E+00 -0.36168132309E+03  0.36168132309E+03  0.00000000000E+00 0. -1.
         25    2    1    2    0    0  0.82798808065E+02 -0.66491495186E+02 -0.62140205395E+02  0.17545835548E+03  0.12508983904E+03 0.  0.
         23    2    1    2    0    0 -0.82798808065E+02  0.66491495186E+02 -0.21934381511E+03  0.26642027020E+03  0.10766285150E+03 0.  0.
          5    1    3    3  502    0 -0.12850779717E+02  0.13367849287E+02  0.18863356537E+02  0.26779480087E+02  0.41800000000E+01 0. -1.
         -5    1    3    3    0  502  0.95649587782E+02 -0.79859344472E+02 -0.81003561931E+02  0.14867887539E+03  0.41800000000E+01 0. -1.
        -11    1    4    4    0    0 -0.46048568180E+02  0.31088028308E+02 -0.17537678685E+02  0.58262391894E+02  0.00000000000E+00 0.  1.
         11    1    4    4    0    0 -0.36750239885E+02  0.35403466877E+02 -0.20180613643E+03  0.20815787830E+03  0.00000000000E+00 0. -1.
</event>
<event>
 8    1  0.3896452E-010  0.2460589E+03  0.7561462E-02  0.1115821E+00
          1   -1    0    0  501    0  0.00000000000E+00  0.00000000000E+00  0.73498432992E+03  0.73498432992E+03  0.00000000000E+00 0. -1.
         -1   -1    0    0    0  501 -0.00000000000E+00 -0.00000000000E+00 -0.98575666897E+02  0.98575666897E+02  0.00000000000E+00 0.  1.
         25    2    1    2    0    0 -0.21455159209E+03 -0.11236648567E+03  0.32681469794E+03  0.42557486355E+03  0.12508998730E+03 0.  0.
         23    2    1    2    0    0  0.21455159209E+03  0.11236648567E+03  0.30959396508E+03  0.40798513327E+03  0.10929241959E+03 0.  0.
          5    1    3    3  502    0 -0.73759068674E+02 -0.31577126809E+02  0.21197554144E+03  0.22669057704E+03  0.41800000000E+01 0. -1.
         -5    1    3    3    0  502 -0.14079252342E+03 -0.80789358860E+02  0.11483915651E+03  0.19888428652E+03  0.41800000000E+01 0. -1.
        -11    1    4    4    0    0  0.10604534928E+03  0.88904255163E+02  0.23977141307E+03  0.27683914683E+03  0.00000000000E+00 0.  1.
         11    1    4    4    0    0  0.10850624281E+03  0.23462230505E+02  0.69822552011E+02  0.13114598644E+03  0.00000000000E+00 0. -1.
</event>
<event>
 7    1  0.3896452E-010  0.2382049E+03  0.7561462E-02  0.1120994E+00
          2   -1    0    0  501    0  0.00000000000E+00  0.00000000000E+00  0.38445851661E+03  0.38445851661E+03  0.00000000000E+00 0.  1.
         -2   -1    0    0    0  501 -0.00000000000E+00 -0.00000000000E+00 -0.19051689547E+03  0.19051689547E+03  0.00000000000E+00 0. -1.
         25    2    1    2    0    0 -0.22843516652E+03  0.35246968521E+02  0.21185054055E+03  0.33756930674E+03  0.12508961281E+03 0.  0.
          5    1    3    3  502    0 -0.61072689109E+02  0.42906011193E+02  0.13252249135E+03  0.15215282536E+03  0.41800000000E+01 0.  1.
         -5    1    3    3    0  502 -0.16736247741E+03 -0.76590426723E+01  0.79328049200E+02  0.18541648138E+03  0.41800000000E+01 0.  1.
        -11    1    1    2    0    0  0.10110680188E+03 -0.34194311671E+02  0.95078525117E+01  0.10715519398E+03  0.00000000000E+00 0.  1.
         11    1    1    2    0    0  0.12732836463E+03 -0.10526568505E+01 -0.27416771915E+02  0.13025091136E+03  0.00000000000E+00 0. -1.
</event>
<event>
 8    1  0.3896452E-010  0.1012914E+03  0.7561462E-02  0.1277603E+00
          2   -1    0    0  501    0  0.00000000000E+00  0.00000000000E+00  0.81578175187E+03  0.81578175187E+03  0.00000000000E+00 0. -1.
         -2   -1    0    0    0  501 -0.00000000000E+00 -0.00000000000E+00 -0.22068628855E+02  0.22068628855E+02  0.00000000000E+00 0.  1.
         25    2    1    2    0    0  0.67170956129E+02 -0.32662360206E+02  0.60854789395E+03  0.62574643030E+03  0.12509711702E+03 0.  0.
         23    2    1    2    0    0 -0.67170956129E+02  0.32662360206E+02  0.18516522907E+03  0.21210395042E+03  0.71576229348E+02 0.  0.
          5    1    3    3  502    0  0.73783548743E+02 -0.80062860627E+01  0.15968519517E+03  0.17613899806E+03  0.41800000000E+01 0. -1.
         -5    1    3    3    0  502 -0.66125926137E+01 -0.24656074143E+02  0.44886269878E+03  0.44960743224E+03  0.41800000000E+01 0. -1.
        -11    1    4    4    0    0 -0.30190716420E+02  0.52391159225E+02  0.94056426829E+02  0.11181647620E+03  0.00000000000E+00 0.  1.
         11    1    4    4    0    0 -0.36980239709E+02 -0.19728799019E+02  0.91108802240E+02  0.10028747422E+03  0.00000000000E+00 0. -1.
</event>
<event>
 8    1  0.3896452E-010  0.1068350E+03  0.7561462E-02  0.1266546E+00
         -2   -1    0    0    0  501 -0.00000000000E+00  0.00000000000E+00  0.30865857967E+02  0.30865857967E+02  0.00000000000E+00 0.  1.
          2   -1    0    0  501    0  0.00000000000E+00 -0.00000000000E+00 -0.50282652061E+03  0.50282652061E+03  0.00000000000E+00 0. -1.
         25    2    1    2    0    0  0.52417334151E+02  0.25454442346E+02 -0.17310793248E+03  0.22138328650E+03  0.12509475488E+03 0.  0.
         23    2    1    2    0    0 -0.52417334151E+02 -0.25454442346E+02 -0.29885273016E+03  0.31230909208E+03  0.69487474508E+02 0.  0.
          5    1    3    3  502    0 -0.14495759897E+02  0.54336960374E+02 -0.38584601612E+02  0.68329175315E+02  0.41800000000E+01 0.  1.
         -5    1    3    3    0  502  0.66913094048E+02 -0.28882518028E+02 -0.13452333087E+03  0.15305411118E+03  0.41800000000E+01 0.  1.
        -11    1    4    4    0    0 -0.63806797207E+02 -0.92546035968E+01 -0.26801096299E+03  0.27565709013E+03  0.00000000000E+00 0. -1.
         11    1    4    4    0    0  0.11389463056E+02 -0.16199838749E+02 -0.30841767173E+02  0.36652001945E+02  0.00000000000E+00 0.  1.
</event>
<event>
 8    1  0.3896452E-010  0.1151800E+03  0.7561462E-02  0.1251267E+00
         -1   -1    0    0    0  501 -0.00000000000E+00  0.00000000000E+00  0.18446191012E+03  0.18446191012E+03  0.00000000000E+00 0.  1.
          1   -1    0    0  501    0  0.00000000000E+00 -0.00000000000E+00 -0.17397012050E+03  0.17397012050E+03  0.00000000000E+00 0. -1.
         25    2    1    2    0    0 -0.65427417673E+02 -0.77907527228E+02  0.11372113142E+03  0.19731003448E+03  0.12509366168E+03 0.  0.
         23    2    1    2    0    0  0.65427417673E+02  0.77907527228E+02 -0.10322934179E+03  0.16112199615E+03  0.70382319182E+02 0.  0.
          5    1    3    3  502    0 -0.18512294142E+02 -0.53561802071E+02 -0.14426043073E+02  0.58627253000E+02  0.41800000000E+01 0.  1.
         -5    1    3    3    0  502 -0.46915123531E+02 -0.24345725157E+02  0.12814717449E+03  0.13868278148E+03  0.41800000000E+01 0.  1.
        -11    1    4    4    0    0  0.44390162159E+02  0.50452049655E+01 -0.56552408172E+02  0.72070212014E+02  0.00000000000E+00 0. -1.
         11    1    4    4    0    0  0.21037255514E+02  0.72862322263E+02 -0.46676933617E+02  0.89051784131E+02  0.00000000000E+00 0.  1.
</event>
<event>
 7    1  0.3896452E-010  0.1859323E+03  0.7561462E-02  0.1162182E+00
          2   -1    0    0  501    0  0.00000000000E+00  0.00000000000E+00  0.43166054276E+03  0.43166054276E+03  0.00000000000E+00 0.  1.
         -2   -1    0    0    0  501 -0.00000000000E+00 -0.00000000000E+00 -0.19364154499E+03  0.19364154499E+03  0.00000000000E+00 0. -1.
         25    2    1    2    0    0  0.12122496543E+03  0.11166986651E+02  0.33246584162E+03  0.37550220782E+03  0.12509267921E+03 0.  0.
          5    1    3    3  502    0  0.12365609861E+03 -0.13162715032E+02  0.16736766524E+03  0.20855094236E+03  0.41800000000E+01 0.  1.
         -5    1    3    3    0  502 -0.24311331792E+01  0.24329701683E+02  0.16509817638E+03  0.16695126545E+03  0.41800000000E+01 0.  1.
        -11    1    1    2    0    0 -0.54680683158E+02 -0.98606693181E+02 -0.81573849239E+02  0.13916734506E+03  0.00000000000E+00 0. -1.
         11    1    1    2    0    0 -0.66544282277E+02  0.87439706530E+02 -0.12872994616E+02  0.11063253487E+03  0.00000000000E+00 0.  1.
</event>
<event>
 8    1  0.3896452E-010  0.1196180E+03  0.7561462E-02  0.1243729E+00
         -1   -1    0    0    0  501 -0.00000000000E+00  0.00000000000E+00  0.49005845052E+02  0.49005845052E+02  0.00000000000E+00 0.  1.
          1   -1    0    0  501    0  0.00000000000E+00 -0.00000000000E+00 -0.33975783946E+03  0.33975783946E+03  0.00000000000E+00 0. -1.
         25    2    1    2    0    0  0.81686128144E+02  0.14203887133E+02 -0.18685598046E+03  0.23966092401E+03  0.12509127516E+03 0.  0.
         23    2    1    2    0    0 -0.81686128144E+02 -0.14203887133E+02 -0.10389601395E+03  0.14910276051E+03  0.67549075009E+02 0.  0.
          5    1    3    3  502    0  0.16366307112E+01  0.58296231909E+02 -0.77564813050E+02  0.97133422869E+02  0.41800000000E+01 0.  1.
         -5    1    3    3    0  502  0.80049497433E+02 -0.44092344776E+02 -0.10929116741E+03  0.14252750114E+03  0.41800000000E+01 0.  1.
        -11    1    4    4    0    0 -0.31315134563E+02  0.10697702566E+02 -0.25099574983E+01  0.33187021251E+02  0.00000000000E+00 0.  1.
         11    1    4    4    0    0 -0.50370993581E+02 -0.24901589698E+02 -0.10138605645E+03  0.11591573925E+03  0.00000000000E+00 0. -1.
</event>
<event>
 8    1  0.7280517E-010  0.1116412E+03  0.7561462E-02  0.1257560E+00
         -1   -1    0    0    0  501 -0.00000000000E+00  0.00000000000E+00  0.98603591325E+02  0.98603591325E+02  0.00000000000E+00 0.  1.
          1   -1    0    0  501    0  0.00000000000E+00 -0.00000000000E+00 -0.18285578924E+03  0.18285578924E+03  0.00000000000E+00 0. -1.
         25    2    1    2    0    0  0.65236978599E+02 -0.54096778570E+02 -0.63785518413E+02  0.16400527190E+03  0.12508721767E+03 0.  0.
         23    2    1    2    0    0 -0.65236978599E+02  0.54096778570E+02 -0.20466679502E+02  0.11745410867E+03  0.78703607569E+02 0.  0.
          5    1    3    3  502    0  0.63760449195E+01 -0.75070245421E+02 -0.67538153554E+02  0.10126732090E+03  0.41800000000E+01 0. -1.
         -5    1    3    3    0  502  0.58860933679E+02  0.20973466851E+02  0.37526351407E+01  0.62737951001E+02  0.41800000000E+01 0. -1.
        -11    1    4    4    0    0 -0.37841480071E+02  0.36902249303E+02 -0.50655446110E+02  0.73210162124E+02  0.00000000000E+00 0. -1.
         11    1    4    4    0    0 -0.27395498528E+02  0.17194529268E+02  0.30188766608E+02  0.44243946543E+02  0.00000000000E+00 0.  1.
</event>
<event>
 8    1  0.3896452E-010  0.1623881E+03  0.7561462E-02  0.1186027E+00
         -1   -1    0    0    0  501 -0.00000000000E+00  0.00000000000E+00  0.27287548892E+02  0.27287548892E+02  0.00000000000E+00 0.  1.
          1   -1    0    0  501    0  0.00000000000E+00 -0.00000000000E+00 -0.98154699156E+03  0.98154699156E+03  0.00000000000E+00 0. -1.
         25    2    1    2    0    0  0.39255365670E+02  0.10112762382E+03 -0.53110162863E+03  0.55631311040E+03  0.12509019481E+03 0.  0.
         23    2    1    2    0    0 -0.39255365670E+02 -0.10112762382E+03 -0.42315781404E+03  0.45252143006E+03  0.11809034271E+03 0.  0.
          5    1    3    3  502    0  0.83771298959E+02  0.50060833022E+02 -0.30886600180E+03  0.32394350897E+03  0.41800000000E+01 0. -1.
         -5    1    3    3    0  502 -0.44515933289E+02  0.51066790797E+02 -0.22223562682E+03  0.23236960143E+03  0.41800000000E+01 0. -1.
        -11    1    4    4    0    0  0.36590144373E+02 -0.52379472463E+01 -0.77117161845E+02  0.85518018029E+02  0.00000000000E+00 0.  1.
         11    1    4    4    0    0 -0.75845510042E+02 -0.95889676573E+02 -0.34604065220E+03  0.36700341203E+03  0.00000000000E+00 0. -1.
</event>
<event>
 8    1  0.3896452E-010  0.1272442E+03  0.7561462E-02  0.1231603E+00
         -2   -1    0    0    0  501 -0.00000000000E+00  0.00000000000E+00  0.25107237660E+02  0.25107237660E+02  0.00000000000E+00 0.  1.
          2   -1    0    0  501    0  0.00000000000E+00 -0.00000000000E+00 -0.77608032782E+03  0.77608032782E+03  0.00000000000E+00 0. -1.
         25    2    1    2    0    0 -0.76084904595E+02  0.11053780927E+01 -0.35127704542E+03  0.38056967219E+03  0.12509028014E+03 0.  0.
         23    2    1    2    0    0  0.76084904595E+02 -0.11053780927E+01 -0.39969604474E+03  0.42061789329E+03  0.10664121813E+03 0.  0.
          5    1    3    3  502    0 -0.74623155509E+02  0.46355330552E+02 -0.14705561164E+03  0.17134835081E+03  0.41800000000E+01 0. -1.
         -5    1    3    3    0  502 -0.14617490859E+01 -0.45249952459E+02 -0.20422143377E+03  0.20922132138E+03  0.41800000000E+01 0. -1.
        -11    1    4    4    0    0  0.93304433892E+02 -0.20090517662E+02 -0.36624125804E+03  0.37847325583E+03  0.00000000000E+00 0. -1.
         11    1    4    4    0    0 -0.17219529297E+02  0.18985139570E+02 -0.33454786700E+02  0.42144637462E+02  0.00000000000E+00 0.  1.
</event>
<event>
 7    1  0.3896452E-010  0.1136639E+03  0.7561462E-02  0.1253931E+00
          3   -1    0    0  501    0  0.00000000000E+00  0.00000000000E+00  0.21462519422E+03  0.21462519422E+03  0.00000000000E+00 0. -1.
         -3   -1    0    0    0  501 -0.00000000000E+00 -0.00000000000E+00 -0.11513274931E+03  0.11513274931E+03  0.00000000000E+00 0.  1.
         25    2    1    2    0    0  0.35546755911E+02 -0.37154710492E+02 -0.50787367274E+01  0.13534049980E+03  0.12508882025E+03 0.  0.
          5    1    3    3  502    0  0.57181785986E+02 -0.12196146306E+02 -0.51627014778E+02  0.78110970344E+02  0.41800000000E+01 0.  1.
         -5    1    3    3    0  502 -0.21635030075E+02 -0.24958564186E+02  0.46548278050E+02  0.57229529458E+02  0.41800000000E+01 0.  1.
        -11    1    1    2    0    0 -0.76422563500E+02 -0.51433488318E+01  0.25309097866E+01  0.76637247821E+02  0.00000000000E+00 0.  1.
         11    1    1    2    0    0  0.40875807589E+02  0.42298059323E+02  0.10204027185E+03  0.11778019591E+03  0.00000000000E+00 0. -1.
</event>
<event>
 8    1  0.3896452E-010  0.1977835E+03  0.7561462E-02  0.1151623E+00
         -1   -1    0    0    0  501 -0.00000000000E+00  0.00000000000E+00  0.39714287317E+02  0.39714287317E+02  0.00000000000E+00 0.  1.
          1   -1    0    0  501    0  0.00000000000E+00 -0.00000000000E+00 -0.12593142757E+04  0.12593142757E+04  0.00000000000E+00 0. -1.
         25    2    1    2    0    0  0.96919614493E+02  0.13839342174E+03 -0.86440311387E+03  0.88959901452E+03  0.12509001766E+03 0.  0.
         23    2    1    2    0    0 -0.96919614493E+02 -0.13839342174E+03 -0.35519687450E+03  0.40942954848E+03  0.11367314837E+03 0.  0.
          5    1    3    3  502    0  0.11077142646E+03  0.84342137863E+02 -0.43993449399E+03  0.46145827172E+03  0.41800000000E+01 0. -1.
         -5    1    3    3    0  502 -0.13851811962E+02  0.54051283877E+02 -0.42446861988E+03  0.42814074280E+03  0.41800000000E+01 0. -1.
        -11    1    4    4    0    0 -0.72697750633E+02 -0.14556962272E+02 -0.97396850252E+02  0.12240512463E+03  0.00000000000E+00 0.  1.
         11    1    4    4    0    0 -0.24221863861E+02 -0.12383645947E+03 -0.25780002425E+03  0.28702442385E+03  0.00000000000E+00 0. -1.
</event>
<event>
 8    1  0.3896452E-010  0.1355103E+03  0.7561462E-02  0.1219501E+00
          2   -1    0    0  501    0  0.00000000000E+00  0.00000000000E+00  0.27851095393E+03  0.27851095393E+03  0.00000000000E+00 0. -1.
         -2   -1    0    0    0  501 -0.00000000000E+00 -0.00000000000E+00 -0.78569963535E+02  0.78569963535E+02  0.00000000000E+00 0.  1.
         25    2    1    2    0    0  0.57652717377E+02  0.80941656662E+02  0.15875642319E+03  0.22522617616E+03  0.12509133031E+03 0.  0.
         23    2    1    2    0    0 -0.57652717377E+02 -0.80941656662E+02  0.41184567199E+02  0.13185474130E+03  0.76250354916E+02 0.  0.
          5    1    3    3  502    0 -0.18297561167E+02 -0.17044834122E+02  0.64894272456E+02  0.69671128256E+02  0.41800000000E+01 0. -1.
         -5    1    3    3    0  502  0.75950278544E+02  0.97986490784E+02  0.93862150738E+02  0.15555504790E+03  0.41800000000E+01 0. -1.
        -11    1    4    4    0    0 -0.72571871337E+02 -0.52722026566E+02  0.15824256848E+02  0.91086199280E+02  0.00000000000E+00 0.  1.
         11    1    4    4    0    0  0.14919153960E+02 -0.28219630096E+02  0.25360310351E+02  0.40768542024E+02  0.00000000000E+00 0. -1.
</event>
<event>
 8    1  0.3896452E-010  0.1377319E+03  0.7561462E-02  0.1216414E+00
          1   -1    0    0  501    0  0.00000000000E+00  0.00000000000E+00  0.13579799090E+04  0.13579799090E+04  0.00000000000E+00 0. -1.
         -1   -1    0    0    0  501 -0.00000000000E+00 -0.00000000000E+00 -0.27159934605E+02  0.27159934605E+02  0.00000000000E+00 0.  1.
         25    2    1    2    0    0  0.71291174080E+02  0.64227024140E+02  0.11139316856E+04  0.11250328061E+04  0.12508985766E+03 0.  0.
         23    2    1    2    0    0 -0.71291174080E+02 -0.64227024140E+02  0.21688828877E+03  0.26010703748E+03  0.10680636221E+03 0.  0.
          5    1    3    3  502    0 -0.15339757237E+02 -0.13195712935E+02  0.41921625622E+02  0.46736817251E+02  0.41800000000E+01 0. -1.
         -5    1    3    3    0  502  0.86630931318E+02  0.77422737074E+02  0.10720100600E+04  0.10782959889E+04  0.41800000000E+01 0. -1.
        -11    1    4    4    0    0 -0.96531848784E+02 -0.43499911437E+02  0.19118301860E+03  0.21854424432E+03  0.00000000000E+00 0. -1.
         11    1    4    4    0    0  0.25240674703E+02 -0.20727112703E+02  0.25705270167E+02  0.41562793155E+02  0.00000000000E+00 0.  1.
</event>
<event>
 7    1  0.3896452E-010  0.1003363E+03  0.7561462E-02  0.1279590E+00
         -2   -1    0    0    0  501 -0.00000000000E+00  0.00000000000E+00  0.36568428087E+03  0.36568428087E+03  0.00000000000E+00 0. -1.
          2   -1    0    0  501    0  0.00000000000E+00 -0.00000000000E+00 -0.31540653535E+02  0.31540653535E+02  0.00000000000E+00 0.  1.
         25    2    1    2    0    0  0.36413448024E+02 -0.34333398406E+02  0.26714045452E+03  0.29919658722E+03  0.12509937617E+03 0.  0.
          5    1    3    3  502    0  0.47289458981E+02 -0.76813184492E+02  0.18997677964E+03  0.21034544789E+03  0.41800000000E+01 0.  1.
         -5    1    3    3    0  502 -0.10876010956E+02  0.42479786086E+02  0.77163674877E+02  0.88851139333E+02  0.41800000000E+01 0.  1.
        -11    1    1    2    0    0 -0.40688139537E+02  0.10378571093E+02  0.23337528377E+02  0.48040396206E+02  0.00000000000E+00 0.  1.
         11    1    1    2    0    0  0.42746915124E+01  0.23954827312E+02  0.43665644436E+02  0.49987950979E+02  0.00000000000E+00 0. -1.
</event>
<event>
 7    1  0.3896452E-010  0.2018658E+03  0.7561462E-02  0.1148174E+00
         -2   -1    0    0    0  501 -0.00000000000E+00  0.00000000000E+00  0.23733433429E+03  0.23733433429E+03  0.00000000000E+00 0.  1.
          2   -1    0    0  501    0  0.00000000000E+00 -0.00000000000E+00 -0.22215448585E+03  0.22215448585E+03  0.00000000000E+00 0. -1.
         25    2    1    2    0    0  0.24825743904E+02  0.18125125717E+03  0.41202219433E+02  0.22542009288E+03  0.12509300381E+03 0.  0.
          5    1    3    3  502    0  0.25236949364E+02  0.11202944771E+03 -0.37165959152E+02  0.12077367961E+03  0.41800000000E+01 0. -1.
         -5    1    3    3    0  502 -0.41120545937E+00  0.69221809464E+02  0.78368178586E+02  0.10464641327E+03  0.41800000000E+01 0. -1.
        -11    1    1    2    0    0  0.45063490362E+02 -0.33922418037E+02  0.27088990929E+02  0.62572054774E+02  0.00000000000E+00 0.  1.
         11    1    1    2    0    0 -0.69889234266E+02 -0.14732883913E+03 -0.53111361922E+02  0.17149667248E+03  0.00000000000E+00 0. -1.
</event>
<event>
 8    1  0.3896452E-010  0.1221944E+03  0.7561462E-02  0.1239520E+00
          3   -1    0    0  501    0  0.00000000000E+00  0.00000000000E+00  0.28270501586E+03  0.28270501586E+03  0.00000000000E+00 0. -1.
         -3   -1    0    0    0  501 -0.00000000000E+00 -0.00000000000E+00 -0.86755535104E+02  0.86755535104E+02  0.00000000000E+00 0.  1.
         25    2    1    2    0    0  0.53008227508E+02 -0.39450602859E+00  0.19150679668E+03  0.23480149541E+03  0.12508741445E+03 0.  0.
         23    2    1    2    0    0 -0.53008227508E+02  0.39450602859E+00  0.44426840820E+01  0.13465905556E+03  0.12370649127E+03 0.  0.
          5    1    3    3  502    0  0.61399864669E+02  0.52359680565E+02  0.97837036637E+02  0.12688986432E+03  0.41800000000E+01 0.  1.
         -5    1    3    3    0  502 -0.83916371612E+01 -0.52754186594E+02  0.93669760040E+02  0.10791163109E+03  0.41800000000E+01 0.  1.
        -11    1    4    4    0    0 -0.81312773633E+02  0.43365630837E+01  0.38608006970E+02  0.90117429709E+02  0.00000000000E+00 0. -1.
         11    1    4    4    0    0  0.28304546125E+02 -0.39420570551E+01 -0.34165322888E+02  0.44541625848E+02  0.00000000000E+00 0.  1.
</event>
<event>
 8    1  0.3896452E-010  0.2709257E+03  0.7561462E-02  0.1100751E+00
         -1   -1    0    0    0  501 -0.00000000000E+00  0.00000000000E+00  0.49227415629E+03  0.49227415629E+03  0.00000000000E+00 0.  1.
          1   -1    0    0  501    0  0.00000000000E+00 -0.00000000000E+00 -0.16568154054E+03  0.16568154054E+03  0.00000000000E+00 0. -1.
         25    2    1    2    0    0 -0.22288899650E+03  0.10558833679E+03  0.68769804916E+02  0.28496663555E+03  0.12509314804E+03 0.  0.
         23    2    1    2    0    0  0.22288899650E+03 -0.10558833679E+03  0.25782281083E+03  0.37298906128E+03  0.10871907112E+03 0.  0.
          5    1    3    3  502    0 -0.50862042637E+02 -0.27314246956E+02  0.25624419963E+02  0.63301649002E+02  0.41800000000E+01 0.  1.
         -5    1    3    3    0  502 -0.17202695386E+03  0.13290258374E+03  0.43145384952E+02  0.22166498655E+03  0.41800000000E+01 0.  1.
        -11    1    4    4    0    0  0.89966985485E+02 -0.98542027272E+02  0.15677073001E+03  0.20586804367E+03  0.00000000000E+00 0. -1.
         11    1    4    4    0    0  0.13292201101E+03 -0.70463095160E+01  0.10105208082E+03  0.16712101761E+03  0.00000000000E+00 0.  1.
</event>
<event>
 8    1  0.3896452E-010  0.8904088E+02  0.7561462E-02  0.1305191E+00
          1   -1    0    0  501    0  0.00000000000E+00  0.00000000000E+00  0.51698553783E+03  0.51698553783E+03  0.00000000000E+00 0.  1.
         -1   -1    0    0    0  501 -0.00000000000E+00 -0.00000000000E+00 -0.36232723479E+02  0.36232723479E+02  0.00000000000E+00 0. -1.
         25    2    1    2    0    0  0.65028753142E+02 -0.45100855731E+00  0.20077513832E+03  0.24533020762E+03  0.12508921801E+03 0.  0.
         23    2    1    2    0    0 -0.65028753142E+02  0.45100855731E+00  0.27997767603E+03  0.30788805369E+03  0.11035675050E+03 0.  0.
          5    1    3    3  502    0  0.65928374278E+02  0.23753552524E+01  0.26880158080E+02  0.71359709542E+02  0.41800000000E+01 0.  1.
         -5    1    3    3    0  502 -0.89962113567E+00 -0.28263638097E+01  0.17389498024E+03  0.17397049808E+03  0.41800000000E+01 0.  1.
        -11    1    4    4    0    0  0.36920865199E+01  0.31306060851E+02  0.17982939670E+03  0.18257139115E+03  0.00000000000E+00 0.  1.
         11    1    4    4    0    0 -0.68720839662E+02 -0.30855052294E+02  0.10014827933E+03  0.12531666254E+03  0.00000000000E+00 0. -1.
</event>
<event>
 8    1  0.3896452E-010  0.1208123E+03  0.7561462E-02  0.1241763E+00
         -2   -1    0    0    0  501 -0.00000000000E+00  0.00000000000E+00  0.40215444446E+03  0.40215444446E+03  0.00000000000E+00 0.  1.
          2   -1    0    0  501    0  0.00000000000E+00 -0.00000000000E+00 -0.57259193903E+02  0.57259193903E+02  0.00000000000E+00 0. -1.
         25    2    1    2    0    0 -0.10738547788E+02  0.92217221527E+02  0.18382436964E+03  0.24095181845E+03  0.12508815925E+03 0.  0.
         23    2    1    2    0    0  0.10738547788E+02 -0.92217221527E+02  0.16107088092E+03  0.21846181992E+03  0.11472752820E+03 0.  0.
          5    1    3    3  502    0  0.45650555587E+01  0.34526913896E+02  0.17733295875E+03  0.18076890820E+03  0.41800000000E+01 0. -1.
         -5    1    3    3    0  502 -0.15303603347E+02  0.57690307631E+02  0.64914108910E+01  0.60182910243E+02  0.41800000000E+01 0. -1.
        -11    1    4    4    0    0  0.61521510551E+02 -0.63323934527E+02  0.85129651662E+02  0.12264532008E+03  0.00000000000E+00 0.  1.
         11    1    4    4    0    0 -0.50782962763E+02 -0.28893287000E+02  0.75941229260E+02  0.95816499843E+02  0.00000000000E+00 0. -1.
</event>
<event>
 8    1  0.3896452E-010  0.1842381E+03  0.7561462E-02  0.1163763E+00
          1   -1    0    0  501    0  0.00000000000E+00  0.00000000000E+00  0.62816341664E+03  0.62816341664E+03  0.00000000000E+00 0.  1.
         -1   -1    0    0    0  501 -0.00000000000E+00 -0.00000000000E+00 -0.55083718972E+02  0.55083718972E+02  0.00000000000E+00 0. -1.
         25    2    1    2    0    0 -0.18497482884E+02  0.15347559265E+03  0.29245792576E+03  0.35366067103E+03  0.12508923807E+03 0.  0.
         23    2    1    2    0    0  0.18497482884E+02 -0.15347559265E+03  0.28062177190E+03  0.32958646458E+03  0.77341737467E+02 0.  0.
          5    1    3    3  502    0  0.52920207690E+02  0.70109147424E+02  0.14835651470E+03  0.17246149944E+03  0.41800000000E+01 0.  1.
         -5    1    3    3    0  502 -0.71417690574E+02  0.83366445224E+02  0.14410141106E+03  0.18119917159E+03  0.41800000000E+01 0.  1.
        -11    1    4    4    0    0 -0.42324324876E+01 -0.14698281756E+03  0.25745729799E+03  0.29648966665E+03  0.00000000000E+00 0.  1.
         11    1    4    4    0    0  0.22729915371E+02 -0.64927750833E+01  0.23164473912E+02  0.33096797922E+02  0.00000000000E+00 0. -1.
</event>
<event>
 8    1  0.3896452E-010  0.1221440E+03  0.7561462E-02  0.1239601E+00
          2   -1    0    0  501    0  0.00000000000E+00  0.00000000000E+00  0.47936564762E+03  0.47936564762E+03  0.00000000000E+00 0. -1.
         -2   -1    0    0    0  501 -0.00000000000E+00 -0.00000000000E+00 -0.51907886642E+02  0.51907886642E+02  0.00000000000E+00 0.  1.
         25    2    1    2    0    0 -0.79354190674E+02  0.66741701542E+02  0.18888355641E+03  0.24914798318E+03  0.12508468066E+03 0.  0.
         23    2    1    2    0    0  0.79354190674E+02 -0.66741701542E+02  0.23857420457E+03  0.28212555109E+03  0.10920454748E+03 0.  0.
          5    1    3    3  502    0 -0.26370938241E+02 -0.23622737926E+02  0.30464290708E+01  0.35780067927E+02  0.41800000000E+01 0. -1.
         -5    1    3    3    0  502 -0.52983252433E+02  0.90364439468E+02  0.18583712734E+03  0.21336791525E+03  0.41800000000E+01 0. -1.
        -11    1    4    4    0    0  0.50181066313E+02 -0.39123703588E+02  0.31147767422E+02  0.70844809366E+02  0.00000000000E+00 0.  1.
         11    1    4    4    0    0  0.29173124361E+02 -0.27617997954E+02  0.20742643714E+03  0.21128074172E+03  0.00000000000E+00 0. -1.
</event>
<event>
 7    1  0.3896452E-010  0.9901075E+02  0.7561462E-02  0.1282390E+00
          1   -1    0    0  501    0  0.00000000000E+00  0.00000000000E+00  0.79359367759E+03  0.79359367759E+03  0.00000000000E+00 0. -1.
         -1   -1    0    0    0  501 -0.00000000000E+00 -0.00000000000E+00 -0.13899667194E+02  0.13899667194E+02  0.00000000000E+00 0.  1.
         25    2    1    2    0    0 -0.65184935160E+02  0.72700748041E+01  0.56440820621E+03  0.58181235805E+03  0.12508823679E+03 0.  0.
          5    1    3    3  502    0  0.56013348549E+01 -0.43456088786E+02  0.99510028897E+02  0.10880958072E+03  0.41800000000E+01 0.  1.
         -5    1    3    3    0  502 -0.70786270015E+02  0.50726163590E+02  0.46489817731E+03  0.47300277733E+03  0.41800000000E+01 0.  1.
        -11    1    1    2    0    0  0.37375323849E+02  0.22094822563E+01  0.13832806040E+03  0.14330543932E+03  0.00000000000E+00 0.  1.
         11    1    1    2    0    0  0.27809611311E+02 -0.94795570604E+01  0.76957743780E+02  0.82375547409E+02  0.00000000000E+00 0. -1.
</event>
<event>
 8    1  0.3896452E-010  0.1767695E+03  0.7561462E-02  0.1170967E+00
         -2   -1    0    0    0  501 -0.00000000000E+00  0.00000000000E+00  0.85189115326E+03  0.85189115326E+03  0.00000000000E+00 0.  1.
          2   -1    0    0  501    0  0.00000000000E+00 -0.00000000000E+00 -0.44518282366E+02  0.44518282366E+02  0.00000000000E+00 0. -1.
         25    2    1    2    0    0 -0.15291106259E+03  0.56920994485E+01  0.46261090425E+03  0.50306000590E+03  0.12508528191E+03 0.  0.
         23    2    1    2    0    0  0.15291106259E+03 -0.56920994485E+01  0.34476196664E+03  0.39334942972E+03  0.11157404341E+03 0.  0.
          5    1    3    3  502    0  0.46324065387E+01  0.83589846983E+01  0.17316826788E+03  0.17348214092E+03  0.41800000000E+01 0. -1.
         -5    1    3    3    0  502 -0.15754346912E+03 -0.26668852498E+01  0.28944263637E+03  0.32957786499E+03  0.41800000000E+01 0. -1.
        -11    1    4    4    0    0  0.16913345081E+03 -0.63271319309E+01  0.33216776903E+03  0.37280233846E+03  0.00000000000E+00 0.  1.
         11    1    4    4    0    0 -0.16222388221E+02  0.63503248243E+00  0.12594197612E+02  0.20547091262E+02  0.00000000000E+00 0. -1.
</event>
<event>
 8    1  0.3896452E-010  0.9811726E+02  0.7561462E-02  0.1284306E+00
          1   -1    0    0  501    0  0.00000000000E+00  0.00000000000E+00  0.15181812373E+04  0.15181812373E+04  0.00000000000E+00 0. -1.
         -1   -1    0    0    0  501 -0.00000000000E+00 -0.00000000000E+00 -0.17931735431E+02  0.17931735431E+02  0.00000000000E+00 0.  1.
         25    2    1    2    0    0  0.26704878444E+02  0.52838046443E+01  0.12946526828E+04  0.13009662464E+04  0.12508611434E+03 0.  0.
         23    2    1    2    0    0 -0.26704878444E+02 -0.52838046443E+01  0.20559681906E+03  0.23514672635E+03  0.11082807307E+03 0.  0.
          5    1    3    3  502    0  0.59411912084E+02  0.45592212854E+02  0.83948352995E+03  0.84282767789E+03  0.41800000000E+01 0. -1.
         -5    1    3    3    0  502 -0.32707033640E+02 -0.40308408209E+02  0.45516915288E+03  0.45813856851E+03  0.41800000000E+01 0. -1.
        -11    1    4    4    0    0 -0.66454060883E+01 -0.33710966835E+02  0.19609227627E+03  0.19907981194E+03  0.00000000000E+00 0. -1.
         11    1    4    4    0    0 -0.20059472356E+02  0.28427162191E+02  0.95045427869E+01  0.36066914409E+02  0.00000000000E+00 0.  1.
</event>
<event>
 8    1  0.3896452E-010  0.8310382E+02  0.7561462E-02  0.1320467E+00
          4   -1    0    0  501    0  0.00000000000E+00  0.00000000000E+00  0.31533084108E+03  0.31533084108E+03  0.00000000000E+00 0. -1.
         -4   -1    0    0    0  501 -0.00000000000E+00 -0.00000000000E+00 -0.41777360490E+02  0.41777360490E+02  0.00000000000E+00 0.  1.
         25    2    1    2    0    0  0.62990347549E+01  0.55307420428E+02  0.12918568397E+03  0.18824298452E+03  0.12509153323E+03 0.  0.
         23    2    1    2    0    0 -0.62990347549E+01 -0.55307420428E+02  0.14436779663E+03  0.16886521706E+03  0.67637358283E+02 0.  0.
          5    1    3    3  502    0  0.33819372672E+02  0.30844096633E+02 -0.75462511545E+01  0.46578176988E+02  0.41800000000E+01 0. -1.
         -5    1    3    3    0  502 -0.27520337918E+02  0.24463323796E+02  0.13673193512E+03  0.14166480753E+03  0.41800000000E+01 0. -1.
        -11    1    4    4    0    0 -0.36286198031E+01  0.13677292085E+02  0.49851958836E+02  0.51821356603E+02  0.00000000000E+00 0.  1.
         11    1    4    4    0    0 -0.26704149517E+01 -0.68984712513E+02  0.94515837790E+02  0.11704386045E+03  0.00000000000E+00 0. -1.
</event>
<event>
 8    1  0.3896452E-010  0.1251186E+03  0.7561462E-02  0.1234884E+00
         -2   -1    0    0    0  501 -0.00000000000E+00  0.00000000000E+00  0.18230664822E+02  0.18230664822E+02  0.00000000000E+00 0.  1.
          2   -1    0    0  501    0  0.00000000000E+00 -0.00000000000E+00 -0.20239825790E+04  0.20239825790E+04  0.00000000000E+00 0. -1.
         25    2    1    2    0    0 -0.10242024409E+03 -0.24001798471E+02 -0.16294491848E+04  0.16376254968E+04  0.12508648692E+03 0.  0.
         23    2    1    2    0    0  0.10242024409E+03  0.24001798471E+02 -0.37630272933E+03  0.40458774697E+03  0.10498337091E+03 0.  0.
          5    1    3    3  502    0 -0.65554395031E+02 -0.31084221064E+00 -0.28565324828E+03  0.29310872724E+03  0.41800000000E+01 0.  1.
         -5    1    3    3    0  502 -0.36865849055E+02 -0.23690956260E+02 -0.13437959365E+04  0.13445167696E+04  0.41800000000E+01 0.  1.
        -11    1    4    4    0    0  0.13916270311E+01 -0.27220800183E+02 -0.13887083672E+03  0.14152037973E+03  0.00000000000E+00 0. -1.
         11    1    4    4    0    0  0.10102861705E+03  0.51222598654E+02 -0.23743189261E+03  0.26306736724E+03  0.00000000000E+00 0.  1.
</event>
<event>
 8    1  0.3896452E-010  0.1204875E+03  0.7561462E-02  0.1242295E+00
          2   -1    0    0  501    0  0.00000000000E+00  0.00000000000E+00  0.14179583754E+03  0.14179583754E+03  0.00000000000E+00 0. -1.
         -2   -1    0    0    0  501 -0.00000000000E+00 -0.00000000000E+00 -0.14218244611E+03  0.14218244611E+03  0.00000000000E+00 0.  1.
         25    2    1    2    0    0  0.86808618245E+02  0.26901222112E+02 -0.38646614509E+02  0.15937451024E+03  0.12508901530E+03 0.  0.
         23    2    1    2    0    0 -0.86808618245E+02 -0.26901222112E+02  0.38260005937E+02  0.12460377341E+03  0.76176507808E+02 0.  0.
          5    1    3    3  502    0 -0.19772619768E+02  0.32557756219E+02 -0.35925306452E+02  0.52526793412E+02  0.41800000000E+01 0. -1.
         -5    1    3    3    0  502  0.10658123801E+03 -0.56565341064E+01 -0.27213080563E+01  0.10684771683E+03  0.41800000000E+01 0. -1.
        -11    1    4    4    0    0 -0.30785928301E+02  0.52778670190E+01  0.49984931165E+02  0.58941688178E+02  0.00000000000E+00 0.  1.
         11    1    4    4    0    0 -0.56022689944E+02 -0.32179089131E+02 -0.11724925228E+02  0.65662085236E+02  0.00000000000E+00 0. -1.
</event>
<event>
 7    1  0.3896452E-010  0.1075491E+03  0.7561462E-02  0.1265177E+00
         -3   -1    0    0    0  501 -0.00000000000E+00  0.00000000000E+00  0.12317742164E+03  0.12317742164E+03  0.00000000000E+00 0.  1.
          3   -1    0    0  501    0  0.00000000000E+00 -0.00000000000E+00 -0.18171963948E+03  0.18171963948E+03  0.00000000000E+00 0. -1.
         25    2    1    2    0    0  0.27017509477E+02  0.89832584974E+01 -0.61500517962E+02  0.14227018564E+03  0.12509135566E+03 0.  0.
          5    1    3    3  502    0 -0.40207472344E+02 -0.27939275234E+02 -0.37444171019E+02  0.61780112303E+02  0.41800000000E+01 0.  1.
         -5    1    3    3    0  502  0.67224981820E+02  0.36922533731E+02 -0.24056346943E+02  0.80490073339E+02  0.41800000000E+01 0.  1.
        -11    1    1    2    0    0  0.10326086724E+02 -0.39558212565E+02 -0.66490571302E+02  0.78054316475E+02  0.00000000000E+00 0. -1.
         11    1    1    2    0    0 -0.37343596200E+02  0.30574954068E+02  0.69448871429E+02  0.84572559003E+02  0.00000000000E+00 0.  1.
</event>
<event>
 8    1  0.3896452E-010  0.2478632E+03  0.7561462E-02  0.1114663E+00
          1   -1    0    0  501    0  0.00000000000E+00  0.00000000000E+00  0.12034724517E+03  0.12034724517E+03  0.00000000000E+00 0. -1.
         -1   -1    0    0    0  501 -0.00000000000E+00 -0.00000000000E+00 -0.53034150580E+03  0.53034150580E+03  0.00000000000E+00 0.  1.
         25    2    1    2    0    0  0.31019419242E+02 -0.22104768889E+03 -0.17443897055E+03  0.30967438562E+03  0.12507991657E+03 0.  0.
         23    2    1    2    0    0 -0.31019419242E+02  0.22104768889E+03 -0.23555529007E+03  0.34101436534E+03  0.10478653326E+03 0.  0.
          5    1    3    3  502    0 -0.41679073393E+02 -0.70974618258E+02 -0.92306556598E+02  0.12374374484E+03  0.41800000000E+01 0. -1.
         -5    1    3    3    0  502  0.72698492636E+02 -0.15007307063E+03 -0.82132413951E+02  0.18593064078E+03  0.41800000000E+01 0. -1.
        -11    1    4    4    0    0 -0.69949203558E+02  0.13434236566E+03 -0.14049589854E+03  0.20659104481E+03  0.00000000000E+00 0.  1.
         11    1    4    4    0    0  0.38929784315E+02  0.86705323236E+02 -0.95059391540E+02  0.13442332054E+03  0.00000000000E+00 0. -1.
</event>
<event>
 8    1  0.3896452E-010  0.1855683E+03  0.7561462E-02  0.1162520E+00
         -2   -1    0    0    0  501 -0.00000000000E+00  0.00000000000E+00  0.62515687995E+02  0.62515687995E+02  0.00000000000E+00 0.  1.
          2   -1    0    0  501    0  0.00000000000E+00 -0.00000000000E+00 -0.63197559362E+03  0.63197559362E+03  0.00000000000E+00 0. -1.
         25    2    1    2    0    0  0.14386954753E+03 -0.60389200815E+02 -0.33249249768E+03  0.38800049662E+03  0.12509125503E+03 0.  0.
         23    2    1    2    0    0 -0.14386954753E+03  0.60389200815E+02 -0.23696740794E+03  0.30649078499E+03  0.11592129474E+03 0.  0.
          5    1    3    3  502    0  0.58151273762E+02  0.32438952439E+02 -0.70290285762E+02  0.96912604691E+02  0.41800000000E+01 0. -1.
         -5    1    3    3    0  502  0.85718273769E+02 -0.92828153254E+02 -0.26220221192E+03  0.29108789193E+03  0.41800000000E+01 0. -1.
        -11    1    4    4    0    0 -0.26963097692E+02 -0.22146131371E+02 -0.69308880806E+01  0.35573824385E+02  0.00000000000E+00 0.  1.
         11    1    4    4    0    0 -0.11690644984E+03  0.82535332185E+02 -0.23003651986E+03  0.27091696060E+03  0.00000000000E+00 0. -1.
</event>
<event>
 8    1  0.3896452E-010  0.1428840E+03  0.7561462E-02  0.1209500E+00
         -1   -1    0    0    0  501 -0.00000000000E+00  0.00000000000E+00  0.40070502233E+02  0.40070502233E+02  0.00000000000E+00 0.  1.
          1   -1    0    0  501    0  0.00000000000E+00 -0.00000000000E+00 -0.57304169057E+03  0.57304169057E+03  0.00000000000E+00 0. -1.
         25    2    1    2    0    0  0.10866313842E+03 -0.20991718805E+02 -0.27853741537E+03  0.32477429171E+03  0.12508764483E+03 0.  0.
         23    2    1    2    0    0 -0.10866313842E+03  0.20991718805E+02 -0.25443377297E+03  0.28833790109E+03  0.78446609035E+02 0.  0.
          5    1    3    3  502    0  0.59170893214E+02 -0.73509616171E+02 -0.14848047930E+03  0.17597949712E+03  0.41800000000E+01 0. -1.
         -5    1    3    3    0  502  0.49492245202E+02  0.52517897366E+02 -0.13005693607E+03  0.14879479459E+03  0.41800000000E+01 0. -1.
        -11    1    4    4    0    0 -0.52822893971E+02 -0.11997384039E+02 -0.49473658004E+02  0.73361012722E+02  0.00000000000E+00 0.  1.
         11    1    4    4    0    0 -0.55840244445E+02  0.32989102844E+02 -0.20496011497E+03  0.21497688837E+03  0.00000000000E+00 0. -1.
</event>
<event>
 7    1  0.3896452E-010  0.1656678E+03  0.7561462E-02  0.1182442E+00
         -2   -1    0    0    0  501 -0.00000000000E+00  0.00000000000E+00  0.41001712206E+02  0.41001712206E+02  0.00000000000E+00 0. -1.
          2   -1    0    0  501    0  0.00000000000E+00 -0.00000000000E+00 -0.88608325760E+03  0.88608325760E+03  0.00000000000E+00 0.  1.
         25    2    1    2    0    0 -0.45960828138E+02  0.23214812458E+02 -0.34143210121E+03  0.36725195260E+03  0.12508713646E+03 0.  0.
          5    1    3    3  502    0 -0.84885945656E+02  0.94484118607E+01 -0.28261430021E+03  0.29526803304E+03  0.41800000000E+01 0. -1.
         -5    1    3    3    0  502  0.38925117517E+02  0.13766400597E+02 -0.58817801005E+02  0.71983919553E+02  0.41800000000E+01 0. -1.
        -11    1    1    2    0    0  0.11655236369E+03  0.24526061694E+02 -0.12884430523E+03  0.17546177981E+03  0.00000000000E+00 0.  1.
         11    1    1    2    0    0 -0.70591535548E+02 -0.47740874151E+02 -0.37480513895E+03  0.38437123740E+03  0.00000000000E+00 0. -1.
</event>
<event>
 8    1  0.3896452E-010  0.1012241E+03  0.7561462E-02  0.1277743E+00
          2   -1    0    0  501    0  0.00000000000E+00  0.00000000000E+00  0.12701426490E+04  0.12701426490E+04  0.00000000000E+00 0.  1.
         -2   -1    0    0    0  501 -0.00000000000E+00 -0.00000000000E+00 -0.20407731513E+02  0.20407731513E+02  0.00000000000E+00 0. -1.
         25    2    1    2    0    0  0.15412005160E+02  0.36366526648E+01  0.11024401064E+04  0.11096272113E+04  0.12509038552E+03 0.  0.
         23    2    1    2    0    0 -0.15412005160E+02 -0.36366526648E+01  0.14729481103E+03  0.18092316923E+03  0.10385892673E+03 0.  0.
          5    1    3    3  502    0  0.44620789323E+02  0.45968358850E+02  0.38339016618E+03  0.38872817852E+03  0.41800000000E+01 0. -1.
         -5    1    3    3    0  502 -0.29208784163E+02 -0.42331706185E+02  0.71904994026E+03  0.72089903275E+03  0.41800000000E+01 0. -1.
        -11    1    4    4    0    0 -0.48905691333E+02  0.10949517657E+02  0.13222676215E+03  0.14140571138E+03  0.00000000000E+00 0.  1.
         11    1    4    4    0    0  0.33493686173E+02 -0.14586170322E+02  0.15068048881E+02  0.39517457853E+02  0.00000000000E+00 0. -1.
</event>
<event>
 8    1  0.3896452E-010  0.1042753E+03  0.7561462E-02  0.1271554E+00
         -1   -1    0    0    0  501 -0.00000000000E+00  0.00000000000E+00  0.25692166776E+02  0.25692166776E+02  0.00000000000E+00 0.  1.
          1   -1    0    0  501    0  0.00000000000E+00 -0.00000000000E+00 -0.48447708070E+03  0.48447708070E+03  0.00000000000E+00 0. -1.
         25    2    1    2    0    0  0.48325824765E+02  0.24810635352E+02 -0.30292920248E+03  0.33221160096E+03  0.12508994017E+03 0.  0.
         23    2    1    2    0    0 -0.48325824765E+02 -0.24810635352E+02 -0.15585571144E+03  0.17795764652E+03  0.66535465717E+02 0.  0.
          5    1    3    3  502    0 -0.14794971512E+02  0.59928313636E+02 -0.11068473071E+03  0.12680250775E+03  0.41800000000E+01 0. -1.
         -5    1    3    3    0  502  0.63120796276E+02 -0.35117678283E+02 -0.19224447177E+03  0.20540909322E+03  0.41800000000E+01 0. -1.
        -11    1    4    4    0    0 -0.10746607701E+02  0.15729602086E+02 -0.90521888965E+01  0.21091516842E+02  0.00000000000E+00 0.  1.
         11    1    4    4    0    0 -0.37579217064E+02 -0.40540237439E+02 -0.14680352255E+03  0.15686612967E+03  0.00000000000E+00 0. -1.
</event>
<event>
 7    1  0.3896452E-010  0.2398139E+03  0.7561462E-02  0.1119917E+00
          2   -1    0    0  501    0  0.00000000000E+00  0.00000000000E+00  0.19085784756E+04  0.19085784756E+04  0.00000000000E+00 0. -1.
         -2   -1    0    0    0  501 -0.00000000000E+00 -0.00000000000E+00 -0.34632222172E+02  0.34632222172E+02  0.00000000000E+00 0.  1.
         25    2    1    2    0    0  0.21438944331E+03 -0.81357980136E+02  0.12385558969E+04  0.12657998496E+04  0.12508635078E+03 0.  0.
          5    1    3    3  502    0  0.42946750729E+02 -0.65018785651E+02  0.57393319696E+03  0.57921382309E+03  0.41800000000E+01 0. -1.
         -5    1    3    3    0  502  0.17144269258E+03 -0.16339194485E+02  0.66462269998E+03  0.68658602654E+03  0.41800000000E+01 0. -1.
        -11    1    1    2    0    0 -0.11668687115E+03  0.45711798672E+02  0.27296956413E+03  0.30036274299E+03  0.00000000000E+00 0.  1.
         11    1    1    2    0    0 -0.97702572167E+02  0.35646181464E+02  0.36242079234E+03  0.37704810513E+03  0.00000000000E+00 0. -1.
</event>
<event>
 8    1  0.3896452E-010  0.1444516E+03  0.7561462E-02  0.1207461E+00
         -1   -1    0    0    0  501 -0.00000000000E+00  0.00000000000E+00  0.45738512376E+02  0.45738512376E+02  0.00000000000E+00 0.  1.
          1   -1    0    0  501    0  0.00000000000E+00 -0.00000000000E+00 -0.52776551928E+03  0.52776551928E+03  0.00000000000E+00 0. -1.
         25    2    1    2    0    0  0.11130709101E+03  0.37657465946E+02 -0.21935777109E+03  0.27851805789E+03  0.12508846303E+03 0.  0.
         23    2    1    2    0    0 -0.11130709101E+03 -0.37657465946E+02 -0.26266923581E+03  0.29498597377E+03  0.64917209024E+02 0.  0.
          5    1    3    3  502    0  0.12465616425E+03  0.51912774995E+02 -0.22040906902E+03  0.25851832739E+03  0.41800000000E+01 0. -1.
         -5    1    3    3    0  502 -0.13349073241E+02 -0.14255309050E+02  0.10512979291E+01  0.19999730494E+02  0.41800000000E+01 0. -1.
        -11    1    4    4    0    0 -0.93345092275E+02 -0.55431548541E+02 -0.20351977246E+03  0.23066482309E+03  0.00000000000E+00 0.  1.
         11    1    4    4    0    0 -0.17961998730E+02  0.17774082596E+02 -0.59149463350E+02  0.64321150683E+02  0.00000000000E+00 0. -1.
</event>
<event>
 8    1  0.3896452E-010  0.9708286E+02  0.7561462E-02  0.1286553E+00
         -2   -1    0    0    0  501 -0.00000000000E+00  0.00000000000E+00  0.19723536808E+02  0.19723536808E+02  0.00000000000E+00 0.  1.
          2   -1    0    0  501    0  0.00000000000E+00 -0.00000000000E+00 -0.62175189545E+03  0.62175189545E+03  0.00000000000E+00 0. -1.
         25    2    1    2    0    0  0.40903493930E+02 -0.15369944659E+02 -0.40110188718E+03  0.42242059297E+03  0.12508837856E+03 0.  0.
         23    2    1    2    0    0 -0.40903493930E+02  0.15369944659E+02 -0.20092647146E+03  0.21905483929E+03  0.75526450117E+02 0.  0.
          5    1    3    3  502    0 -0.27104574796E+01  0.38489003855E+02 -0.28121717558E+03  0.28388258531E+03  0.41800000000E+01 0.  1.
         -5    1    3    3    0  502  0.43613951409E+02 -0.53858948514E+02 -0.11988471160E+03  0.13853800766E+03  0.41800000000E+01 0.  1.
        -11    1    4    4    0    0 -0.62581853620E+02  0.14449915681E+02 -0.16531649286E+03  0.17735509939E+03  0.00000000000E+00 0.  1.
         11    1    4    4    0    0  0.21678359690E+02  0.92002897817E+00 -0.35609978599E+02  0.41699739903E+02  0.00000000000E+00 0. -1.
</event>
<event>
 8    1  0.3896452E-010  0.2200757E+03  0.7561462E-02  0.1133827E+00
         -2   -1    0    0    0  501 -0.00000000000E+00  0.00000000000E+00  0.22340927912E+03  0.22340927912E+03  0.00000000000E+00 0.  1.
          2   -1    0    0  501    0  0.00000000000E+00 -0.00000000000E+00 -0.26539014272E+03  0.26539014272E+03  0.00000000000E+00 0. -1.
         25    2    1    2    0    0 -0.18378348747E+03  0.11206252045E+03 -0.71447371572E+02  0.25901345077E+03  0.12509541167E+03 0.  0.
         23    2    1    2    0    0  0.18378348747E+03 -0.11206252045E+03  0.29466507976E+02  0.22978597107E+03  0.74826055960E+02 0.  0.
          5    1    3    3  502    0 -0.15852099047E+03  0.85876115454E+02 -0.18248921222E+01  0.18034526403E+03  0.41800000000E+01 0.  1.
         -5    1    3    3    0  502 -0.25262496996E+02  0.26186405000E+02 -0.69622479450E+02  0.78668186747E+02  0.41800000000E+01 0.  1.
        -11    1    4    4    0    0  0.11549086273E+03 -0.10214578585E+03  0.41654430242E+02  0.15970908709E+03  0.00000000000E+00 0.  1.
         11    1    4    4    0    0  0.68292624733E+02 -0.99167346065E+01 -0.12187922266E+02  0.70076883973E+02  0.00000000000E+00 0. -1.
</event>
<event>
 8    1  0.3896452E-010  0.2166244E+03  0.7561462E-02  0.1136425E+00
         -3   -1    0    0    0  501 -0.00000000000E+00  0.00000000000E+00  0.65870674514E+03  0.65870674514E+03  0.00000000000E+00 0.  1.
          3   -1    0    0  501    0  0.00000000000E+00 -0.00000000000E+00 -0.84960759560E+02  0.84960759560E+02  0.00000000000E+00 0. -1.
         25    2    1    2    0    0 -0.18960943820E+03 -0.22023247435E+02  0.40680822919E+03  0.46644902381E+03  0.12507995040E+03 0.  0.
         23    2    1    2    0    0  0.18960943820E+03  0.22023247435E+02  0.16693775639E+03  0.27721848089E+03  0.11200495150E+03 0.  0.
          5    1    3    3  502    0 -0.38179910113E+02 -0.50557099908E+02  0.19073126608E+03  0.20102142709E+03  0.41800000000E+01 0. -1.
         -5    1    3    3    0  502 -0.15142952808E+03  0.28533852474E+02  0.21607696311E+03  0.26542759671E+03  0.41800000000E+01 0. -1.
        -11    1    4    4    0    0  0.53556801013E+02  0.53777417241E+02  0.89983604796E+02  0.11771741873E+03  0.00000000000E+00 0.  1.
         11    1    4    4    0    0  0.13605263718E+03 -0.31754169806E+02  0.76954151594E+02  0.15950106217E+03  0.00000000000E+00 0. -1.
</event>
<event>
 8    1  0.3896452E-010  0.1167579E+03  0.7561462E-02  0.1248543E+00
         -1   -1    0    0    0  501 -0.00000000000E+00  0.00000000000E+00  0.27705842731E+02  0.27705842731E+02  0.00000000000E+00 0.  1.
          1   -1    0    0  501    0  0.00000000000E+00 -0.00000000000E+00 -0.71605823353E+03  0.71605823353E+03  0.00000000000E+00 0. -1.
         25    2    1    2    0    0  0.91832372949E+02 -0.22354568569E+02 -0.29706792690E+03  0.33590274230E+03  0.12509351554E+03 0.  0.
         23    2    1    2    0    0 -0.91832372949E+02  0.22354568569E+02 -0.39128446389E+03  0.40786133396E+03  0.65684279691E+02 0.  0.
          5    1    3    3  502    0  0.11085730870E+03 -0.28145062821E+01 -0.15179570038E+03  0.18803369749E+03  0.41800000000E+01 0.  1.
         -5    1    3    3    0  502 -0.19024935746E+02 -0.19540062287E+02 -0.14527222652E+03  0.14786904481E+03  0.41800000000E+01 0.  1.
        -11    1    4    4    0    0 -0.31765526415E+02  0.32983426631E+01 -0.41086831959E+02  0.52038980516E+02  0.00000000000E+00 0.  1.
         11    1    4    4    0    0 -0.60066846534E+02  0.19056225906E+02 -0.35019763193E+03  0.35582235344E+03  0.00000000000E+00 0. -1.
</event>
<event>
 8    1  0.3896452E-010  0.1570761E+03  0.7561462E-02  0.1192038E+00
         -2   -1    0    0    0  501 -0.00000000000E+00  0.00000000000E+00  0.88356574179E+03  0.88356574179E+03  0.00000000000E+00 0.  1.
          2   -1    0    0  501    0  0.00000000000E+00 -0.00000000000E+00 -0.31445832051E+02  0.31445832051E+02  0.00000000000E+00 0. -1.
         25    2    1    2    0    0 -0.62680623087E+02  0.11268556898E+03  0.38469478009E+03  0.42457510004E+03  0.12508814404E+03 0.  0.
         23    2    1    2    0    0  0.62680623087E+02 -0.11268556898E+03  0.46742512966E+03  0.49043647381E+03  0.73585222950E+02 0.  0.
          5    1    3    3  502    0  0.25059756787E+02  0.83183824354E+02  0.18857365147E+03  0.20766567957E+03  0.41800000000E+01 0. -1.
         -5    1    3    3    0  502 -0.87740379873E+02  0.29501744630E+02  0.19612112862E+03  0.21690942047E+03  0.41800000000E+01 0. -1.
        -11    1    4    4    0    0  0.57944566668E+02 -0.66990856653E+02  0.19511341377E+03  0.21427690476E+03  0.00000000000E+00 0. -1.
         11    1    4    4    0    0  0.47360564191E+01 -0.45694712331E+02  0.27231171588E+03  0.27615956904E+03  0.00000000000E+00 0.  1.
</event>
<event>
 8    1  0.3896452E-010  0.8247807E+02  0.7561462E-02  0.1322163E+00
          1   -1    0    0  501    0  0.00000000000E+00  0.00000000000E+00  0.56268271019E+02  0.56268271019E+02  0.00000000000E+00 0. -1.
         -1   -1    0    0    0  501 -0.00000000000E+00 -0.00000000000E+00 -0.34579384272E+03  0.34579384272E+03  0.00000000000E+00 0.  1.
         25    2    1    2    0    0 -0.68512670099E+02 -0.29755681657E+01 -0.16655902972E+03  0.21929149455E+03  0.12507601381E+03 0.  0.
         23    2    1    2    0    0  0.68512670099E+02  0.29755681657E+01 -0.12296654198E+03  0.18277061918E+03  0.11653964485E+03 0.  0.
          5    1    3    3  502    0 -0.75685791534E+01  0.13472051561E+02  0.18060545633E+02  0.24133695784E+02  0.41800000000E+01 0.  1.
         -5    1    3    3    0  502 -0.60944090946E+02 -0.16447619726E+02 -0.18461957536E+03  0.19515779877E+03  0.41800000000E+01 0.  1.
        -11    1    4    4    0    0  0.50021895693E+02  0.25822227568E+02 -0.13851671574E+03  0.14951875476E+03  0.00000000000E+00 0.  1.
         11    1    4    4    0    0  0.18490774406E+02 -0.22846659402E+02  0.15550173760E+02  0.33251864428E+02  0.00000000000E+00 0. -1.
</event>
<event>
 8    1  0.3896452E-010  0.1425739E+03  0.7561462E-02  0.1209907E+00
          1   -1    0    0  501    0  0.00000000000E+00  0.00000000000E+00  0.15318619239E+03  0.15318619239E+03  0.00000000000E+00 0. -1.
         -1   -1    0    0    0  501 -0.00000000000E+00 -0.00000000000E+00 -0.15033823671E+03  0.15033823671E+03  0.00000000000E+00 0.  1.
         25    2    1    2    0    0 -0.93873788777E+02  0.63975289839E+02 -0.63673610088E+01  0.16909582643E+03  0.12509088416E+03 0.  0.
         23    2    1    2    0    0  0.93873788777E+02 -0.63975289839E+02  0.92153166843E+01  0.13442860267E+03  0.71281142138E+02 0.  0.
          5    1    3    3  502    0 -0.94534419242E+02  0.12555560908E+00 -0.32390405452E+02  0.10001691332E+03  0.41800000000E+01 0. -1.
         -5    1    3    3    0  502  0.66063046502E+00  0.63849734230E+02  0.26023044443E+02  0.69078913106E+02  0.41800000000E+01 0. -1.
        -11    1    4    4    0    0  0.51690017813E+02 -0.22125008687E+01  0.25807086993E+02  0.57816596585E+02  0.00000000000E+00 0. -1.
         11    1    4    4    0    0  0.42183770964E+02 -0.61762788970E+02 -0.16591770309E+02  0.76612006083E+02  0.00000000000E+00 0.  1.
</event>
<event>
 8    1  0.3896452E-010  0.1409160E+03  0.7561462E-02  0.1212102E+00
         -1   -1    0    0    0  501 -0.00000000000E+00  0.00000000000E+00  0.10474362299E+03  0.10474362299E+03  0.00000000000E+00 0.  1.
          1   -1    0    0  501    0  0.00000000000E+00 -0.00000000000E+00 -0.21560782391E+03  0.21560782391E+03  0.00000000000E+00 0. -1.
         25    2    1    2    0    0 -0.84492813917E+02  0.31940448487E+02 -0.42180045626E+02  0.15995775975E+03  0.12509236908E+03 0.  0.
         23    2    1    2    0    0  0.84492813917E+02 -0.31940448487E+02 -0.68684155293E+02  0.16039368715E+03  0.11335516678E+03 0.  0.
          5    1    3    3  502    0  0.23400878864E+02  0.14459367644E+02 -0.42236283154E+02  0.50577173299E+02  0.41800000000E+01 0. -1.
         -5    1    3    3    0  502 -0.10789369278E+03  0.17481080843E+02  0.56237528088E-01  0.10938058645E+03  0.41800000000E+01 0. -1.
        -11    1    4    4    0    0 -0.28047384898E+02 -0.17159141922E+01 -0.17626255133E+02  0.33170544632E+02  0.00000000000E+00 0. -1.
         11    1    4    4    0    0  0.11254019882E+03 -0.30224534294E+02 -0.51057900159E+02  0.12722314252E+03  0.00000000000E+00 0.  1.
</event>
<event>
 7    1  0.3896452E-010  0.7898618E+02  0.7561462E-02  0.1331953E+00
         -1   -1    0    0    0  501 -0.00000000000E+00  0.00000000000E+00  0.22536769673E+02  0.22536769673E+02  0.00000000000E+00 0.  1.
          1   -1    0    0  501    0  0.00000000000E+00 -0.00000000000E+00 -0.58909097312E+03  0.58909097312E+03  0.00000000000E+00 0. -1.
         25    2    1    2    0    0  0.13340446797E+02 -0.57043955862E+02 -0.46592593934E+03  0.48597128888E+03  0.12509649173E+03 0.  0.
          5    1    3    3  502    0  0.38423834741E+02 -0.34401890699E+02 -0.44036826060E+03  0.44339774301E+03  0.41800000000E+01 0. -1.
         -5    1    3    3    0  502 -0.25083387945E+02 -0.22642065162E+02 -0.25557678742E+02  0.42573545874E+02  0.41800000000E+01 0. -1.
        -11    1    1    2    0    0  0.15312624791E+02  0.23703671002E+02 -0.22835118660E+02  0.36301282914E+02  0.00000000000E+00 0. -1.
         11    1    1    2    0    0 -0.28653071587E+02  0.33340284859E+02 -0.77793145438E+02  0.89355170992E+02  0.00000000000E+00 0.  1.
</event>
<event>
 8    1  0.3896452E-010  0.1003946E+03  0.7561462E-02  0.1279468E+00
          1   -1    0    0  501    0  0.00000000000E+00  0.00000000000E+00  0.67572513625E+02  0.67572513625E+02  0.00000000000E+00 0. -1.
         -1   -1    0    0    0  501 -0.00000000000E+00 -0.00000000000E+00 -0.27111223863E+03  0.27111223863E+03  0.00000000000E+00 0.  1.
         25    2    1    2    0    0 -0.36768803322E+02  0.42921562337E+02 -0.72880585768E+02  0.15541265880E+03  0.12508920546E+03 0.  0.
         23    2    1    2    0    0  0.36768803322E+02 -0.42921562337E+02 -0.13065913923E+03  0.18327209345E+03  0.11542375908E+03 0.  0.
          5    1    3    3  502    0 -0.32967338559E+02 -0.70194721179E+01  0.27138962320E+02  0.43475442221E+02  0.41800000000E+01 0. -1.
         -5    1    3    3    0  502 -0.38014647628E+01  0.49941034455E+02 -0.10001954809E+03  0.11193721658E+03  0.41800000000E+01 0. -1.
        -11    1    4    4    0    0 -0.30078729434E+02 -0.39475130959E+02 -0.95590039102E+02  0.10770548502E+03  0.00000000000E+00 0.  1.
         11    1    4    4    0    0  0.66847532755E+02 -0.34464313779E+01 -0.35069100131E+02  0.75566608424E+02  0.00000000000E+00 0. -1.
</event>
<event>
 8    1  0.3896452E-010  0.1266567E+03  0.7561462E-02  0.1232503E+00
         -2   -1    0    0    0  501 -0.00000000000E+00  0.00000000000E+00  0.48208102359E+03  0.48208102359E+03  0.00000000000E+00 0.  1.
          2   -1    0    0  501    0  0.00000000000E+00 -0.00000000000E+00 -0.51816178260E+02  0.51816178260E+02  0.00000000000E+00 0. -1.
         25    2    1    2    0    0  0.10657942906E+03 -0.23807075369E+02  0.15207062755E+03  0.22516250468E+03  0.12508687466E+03 0.  0.
         23    2    1    2    0    0 -0.10657942906E+03  0.23807075369E+02  0.27819421778E+03  0.30873469717E+03  0.77454108307E+02 0.  0.
          5    1    3    3  502    0  0.31587872277E+02 -0.30692396856E+02  0.14240959105E+03  0.14912337484E+03  0.41800000000E+01 0. -1.
         -5    1    3    3    0  502  0.74991556787E+02  0.68853214876E+01  0.96610365032E+01  0.76039129846E+02  0.41800000000E+01 0. -1.
        -11    1    4    4    0    0 -0.74763077287E+02  0.52056859860E+02  0.19797911323E+03  0.21793385156E+03  0.00000000000E+00 0.  1.
         11    1    4    4    0    0 -0.31816351778E+02 -0.28249784491E+02  0.80215104552E+02  0.90800845605E+02  0.00000000000E+00 0. -1.
</event>
<event>
 8    1  0.3896452E-010  0.1466206E+03  0.7561462E-02  0.1204688E+00
          1   -1    0    0  501    0  0.00000000000E+00  0.00000000000E+00  0.91195874720E+02  0.91195874720E+02  0.00000000000E+00 0. -1.
         -1   -1    0    0    0  501 -0.00000000000E+00 -0.00000000000E+00 -0.25481540117E+03  0.25481540117E+03  0.00000000000E+00 0.  1.
         25    2    1    2    0    0  0.85023495756E+02 -0.47262387741E+02 -0.68167930330E+02  0.17250241050E+03  0.12508991477E+03 0.  0.
         23    2    1    2    0    0 -0.85023495756E+02  0.47262387741E+02 -0.95451596116E+02  0.17350886539E+03  0.10738524592E+03 0.  0.
          5    1    3    3  502    0  0.43287929694E+02  0.39220655585E+02 -0.80021371534E+01  0.59106778636E+02  0.41800000000E+01 0. -1.
         -5    1    3    3    0  502  0.41735566062E+02 -0.86483043326E+02 -0.60165793176E+02  0.11339563186E+03  0.41800000000E+01 0. -1.
        -11    1    4    4    0    0  0.86307892730E+01  0.44011782051E+02 -0.56218382615E+02  0.71916854955E+02  0.00000000000E+00 0.  1.
         11    1    4    4    0    0 -0.93654285029E+02  0.32506056900E+01 -0.39233213501E+02  0.10159201043E+03  0.00000000000E+00 0. -1.
</event>
<event>
 8    1  0.3896452E-010  0.1189559E+03  0.7561462E-02  0.1244830E+00
         -1   -1    0    0    0  501 -0.00000000000E+00  0.00000000000E+00  0.54597627082E+02  0.54597627082E+02  0.00000000000E+00 0.  1.
          1   -1    0    0  501    0  0.00000000000E+00 -0.00000000000E+00 -0.32886384278E+03  0.32886384278E+03  0.00000000000E+00 0. -1.
         25    2    1    2    0    0  0.66851505553E+02  0.19722183335E+02 -0.75969021565E+02  0.16211373944E+03  0.12510589102E+03 0.  0.
         23    2    1    2    0    0 -0.66851505553E+02 -0.19722183335E+02 -0.19829719414E+03  0.22134773042E+03  0.69389856971E+02 0.  0.
          5    1    3    3  502    0  0.33199483277E+02 -0.51317829982E+02 -0.50448875317E+02  0.79361746356E+02  0.41800000000E+01 0.  1.
         -5    1    3    3    0  502  0.33652022276E+02  0.71040013317E+02 -0.25520146248E+02  0.82751993087E+02  0.41800000000E+01 0.  1.
        -11    1    4    4    0    0  0.13530356630E+02 -0.10285496693E+02 -0.27188984800E+02  0.32064043526E+02  0.00000000000E+00 0. -1.
         11    1    4    4    0    0 -0.80381862183E+02 -0.94366866421E+01 -0.17110820934E+03  0.18928368690E+03  0.00000000000E+00 0.  1.
</event>
<event>
 8    1  0.3896452E-010  0.8350037E+02  0.7561462E-02  0.1319401E+00
          2   -1    0    0  501    0  0.00000000000E+00  0.00000000000E+00  0.32849055530E+03  0.32849055530E+03  0.00000000000E+00 0. -1.
         -2   -1    0    0    0  501 -0.00000000000E+00 -0.00000000000E+00 -0.41208851686E+02  0.41208851686E+02  0.00000000000E+00 0.  1.
         25    2    1    2    0    0  0.54407220533E+02 -0.57447976561E+01  0.13297495811E+03  0.19058138423E+03  0.12508307713E+03 0.  0.
         23    2    1    2    0    0 -0.54407220533E+02  0.57447976561E+01  0.15430674551E+03  0.17911802276E+03  0.72660484606E+02 0.  0.
          5    1    3    3  502    0 -0.72855392758E+01  0.13020102218E+02 -0.19542559914E+02  0.24939651006E+02  0.41800000000E+01 0. -1.
         -5    1    3    3    0  502  0.61692759809E+02 -0.18764899874E+02  0.15251751802E+03  0.16564173322E+03  0.41800000000E+01 0. -1.
        -11    1    4    4    0    0 -0.12246480606E+02  0.33997407286E+02  0.91446045496E+02  0.98326899810E+02  0.00000000000E+00 0. -1.
         11    1    4    4    0    0 -0.42160739927E+02 -0.28252609630E+02  0.62860700012E+02  0.80791122954E+02  0.00000000000E+00 0.  1.
</event>
<event>
 8    1  0.3896452E-010  0.6534851E+02  0.7561462E-02  0.1376665E+00
          1   -1    0    0  501    0  0.00000000000E+00  0.00000000000E+00  0.66442604243E+02  0.66442604243E+02  0.00000000000E+00 0. -1.
         -1   -1    0    0    0  501 -0.00000000000E+00 -0.00000000000E+00 -0.13878320145E+03  0.13878320145E+03  0.00000000000E+00 0.  1.
         25    2    1    2    0    0 -0.20932673777E+02  0.36359966495E+01 -0.40680607234E+02  0.13324579171E+03  0.12509249338E+03 0.  0.
         23    2    1    2    0    0  0.20932673777E+02 -0.36359966495E+01 -0.31659989978E+02  0.71980013991E+02  0.61052191981E+02 0.  0.
          5    1    3    3  502    0  0.55109641453E+01 -0.42090020529E+02  0.24543168424E+02  0.49211584715E+02  0.41800000000E+01 0. -1.
         -5    1    3    3    0  502 -0.26443637922E+02  0.45726017178E+02 -0.65223775658E+02  0.84034206991E+02  0.41800000000E+01 0. -1.
        -11    1    4    4    0    0  0.26588948423E+01 -0.13862305119E+02  0.15145838275E+02  0.20703372722E+02  0.00000000000E+00 0. -1.
         11    1    4    4    0    0  0.18273778935E+02  0.10226308470E+02 -0.46805828252E+02  0.51276641269E+02  0.00000000000E+00 0.  1.
</event>
<event>
 8    1  0.3896452E-010  0.1163131E+03  0.7561462E-02  0.1249306E+00
          1   -1    0    0  501    0  0.00000000000E+00  0.00000000000E+00  0.20075404658E+03  0.20075404658E+03  0.00000000000E+00 0.  1.
         -1   -1    0    0    0  501 -0.00000000000E+00 -0.00000000000E+00 -0.10865583057E+03  0.10865583057E+03  0.00000000000E+00 0. -1.
         25    2    1    2    0    0 -0.63932268908E+02 -0.84909850966E+02  0.68997142746E+02  0.17805195272E+03  0.12507947218E+03 0.  0.
         23    2    1    2    0    0  0.63932268908E+02  0.84909850966E+02  0.23101073259E+02  0.13135792443E+03  0.73649351160E+02 0.  0.
          5    1    3    3  502    0 -0.29060523464E+02 -0.42749373984E+02 -0.33536053145E+02  0.61758904302E+02  0.41800000000E+01 0.  1.
         -5    1    3    3    0  502 -0.34871745444E+02 -0.42160476982E+02  0.10253319589E+03  0.11629304841E+03  0.41800000000E+01 0.  1.
        -11    1    4    4    0    0 -0.13792975125E+02  0.21686982264E+02 -0.71885314041E+01  0.26687943837E+02  0.00000000000E+00 0. -1.
         11    1    4    4    0    0  0.77725244033E+02  0.63222868702E+02  0.30289604663E+02  0.10466998059E+03  0.00000000000E+00 0.  1.
</event>
<event>
 8    1  0.3896452E-010  0.1016448E+03  0.7561462E-02  0.1276875E+00
          1   -1    0    0  501    0  0.00000000000E+00  0.00000000000E+00  0.15463244528E+03  0.15463244528E+03  0.00000000000E+00 0. -1.
         -1   -1    0    0    0  501 -0.00000000000E+00 -0.00000000000E+00 -0.96284442717E+02  0.96284442717E+02  0.00000000000E+00 0.  1.
         25    2    1    2    0    0  0.27366507844E+02  0.19161928351E+02  0.32675796513E+02  0.13353576694E+03  0.12509191871E+03 0.  0.
         23    2    1    2    0    0 -0.27366507844E+02 -0.19161928351E+02  0.25672206046E+02  0.11738112105E+03  0.10955893467E+03 0.  0.
          5    1    3    3  502    0  0.68511827644E+02  0.40859247652E+02  0.33997594757E+02  0.86813924546E+02  0.41800000000E+01 0. -1.
         -5    1    3    3    0  502 -0.41145319800E+02 -0.21697319301E+02 -0.13217982435E+01  0.46721842396E+02  0.41800000000E+01 0. -1.
        -11    1    4    4    0    0 -0.50744675654E+02 -0.15380399952E+02  0.57169583789E+02  0.77973970788E+02  0.00000000000E+00 0. -1.
         11    1    4    4    0    0  0.23378167810E+02 -0.37815283994E+01 -0.31497377743E+02  0.39407150263E+02  0.00000000000E+00 0.  1.
</event>
<event>
 7    1  0.3896452E-010  0.6618984E+02  0.7561462E-02  0.1373551E+00
          2   -1    0    0  501    0  0.00000000000E+00  0.00000000000E+00  0.15812026033E+03  0.15812026033E+03  0.00000000000E+00 0.  1.
         -2   -1    0    0    0  501 -0.00000000000E+00 -0.00000000000E+00 -0.73489429606E+02  0.73489429606E+02  0.00000000000E+00 0. -1.
         25    2    1    2    0    0 -0.59302620719E+02 -0.10170206639E+02  0.42561135894E+02  0.14520002329E+03  0.12510540575E+03 0.  0.
          5    1    3    3  502    0 -0.48384450233E+02 -0.23889838073E+02 -0.35735174585E+02  0.64855643472E+02  0.41800000000E+01 0.  1.
         -5    1    3    3    0  502 -0.10918170486E+02  0.13719631434E+02  0.78296310480E+02  0.80344379817E+02  0.41800000000E+01 0.  1.
        -11    1    1    2    0    0  0.18675597423E+02  0.45106995356E+01  0.41111345219E+02  0.45379147801E+02  0.00000000000E+00 0.  1.
         11    1    1    2    0    0  0.40627023296E+02  0.56595071036E+01  0.95834960635E+00  0.41030518843E+02  0.00000000000E+00 0. -1.
</event>
<event>
 8    1  0.3896452E-010  0.8797536E+02  0.7561462E-02  0.1307830E+00
          2   -1    0    0  501    0  0.00000000000E+00  0.00000000000E+00  0.87120189790E+03  0.87120189790E+03  0.00000000000E+00 0. -1.
         -2   -1    0    0    0  501 -0.00000000000E+00 -0.00000000000E+00 -0.62851775564E+02  0.62851775564E+02  0.00000000000E+00 0.  1.
         25    2    1    2    0    0  0.34118617539E+02  0.23421302532E+02  0.78971086840E+03  0.80062665107E+03  0.12508853371E+03 0.  0.
         23    2    1    2    0    0 -0.34118617539E+02 -0.23421302532E+02  0.18639253937E+02  0.13342702239E+03  0.12546996071E+03 0.  0.
          5    1    3    3  502    0  0.25751004205E+02  0.58105126500E+01  0.77592352861E+03  0.77638371372E+03  0.41800000000E+01 0.  1.
         -5    1    3    3    0  502  0.83676133339E+01  0.17610789882E+02  0.13787339787E+02  0.24242937354E+02  0.41800000000E+01 0.  1.
        -11    1    4    4    0    0  0.39336142725E+02  0.19818002274E+02  0.19539577757E+02  0.48185894591E+02  0.00000000000E+00 0.  1.
         11    1    4    4    0    0 -0.73454760264E+02 -0.43239304805E+02 -0.90032382038E+00  0.85241127799E+02  0.00000000000E+00 0. -1.
</event>
<event>
 8    1  0.3896452E-010  0.1661317E+03  0.7561462E-02  0.1181943E+00
         -2   -1    0    0    0  501 -0.00000000000E+00  0.00000000000E+00  0.70488466475E+03  0.70488466475E+03  0.00000000000E+00 0.  1.
          2   -1    0    0  501    0  0.00000000000E+00 -0.00000000000E+00 -0.49065420153E+02  0.49065420153E+02  0.00000000000E+00 0. -1.
         25    2    1    2    0    0  0.38669963057E+02  0.14451093109E+03  0.25835536488E+03  0.32368801706E+03  0.12509061747E+03 0.  0.
         23    2    1    2    0    0 -0.38669963057E+02 -0.14451093109E+03  0.39746387972E+03  0.43026206784E+03  0.69058932057E+02 0.  0.
          5    1    3    3  502    0  0.54099060114E+02  0.15453857102E+03  0.18117797445E+03  0.24423719836E+03  0.41800000000E+01 0.  1.
         -5    1    3    3    0  502 -0.15429097057E+02 -0.10027639930E+02  0.77177390428E+02  0.79450818698E+02  0.41800000000E+01 0.  1.
        -11    1    4    4    0    0 -0.75951096218E+01 -0.31177234627E+02  0.28097359371E+02  0.42651696951E+02  0.00000000000E+00 0. -1.
         11    1    4    4    0    0 -0.31074853435E+02 -0.11333369646E+03  0.36936652035E+03  0.38761037089E+03  0.00000000000E+00 0.  1.
</event>
<event>
 7    1  0.3896452E-010  0.8499862E+02  0.7561462E-02  0.1315436E+00
          1   -1    0    0  501    0  0.00000000000E+00  0.00000000000E+00  0.88124028661E+02  0.88124028661E+02  0.00000000000E+00 0. -1.
         -1   -1    0    0    0  501 -0.00000000000E+00 -0.00000000000E+00 -0.11035204547E+03  0.11035204547E+03  0.00000000000E+00 0.  1.
         25    2    1    2    0    0  0.22200130974E+01 -0.39787623353E+02 -0.32581990336E+02  0.13526921996E+03  0.12509273498E+03 0.  0.
          5    1    3    3  502    0  0.51879586940E+02 -0.24013354634E+02 -0.54027309063E+02  0.78768999400E+02  0.41800000000E+01 0.  1.
         -5    1    3    3    0  502 -0.49659573843E+02 -0.15774268719E+02  0.21445318726E+02  0.56500220559E+02  0.41800000000E+01 0.  1.
        -11    1    1    2    0    0 -0.23832888823E+02  0.21276012673E+02  0.13283550480E+02  0.34599537833E+02  0.00000000000E+00 0. -1.
         11    1    1    2    0    0  0.21612875725E+02  0.18511610680E+02 -0.29295769522E+01  0.28607316340E+02  0.00000000000E+00 0.  1.
</event>
<event>
 7    1  0.3896452E-010  0.1400348E+03  0.7561462E-02  0.1213282E+00
         -1   -1    0    0    0  501 -0.00000000000E+00  0.00000000000E+00  0.12515893947E+03  0.12515893947E+03  0.00000000000E+00 0.  1.
          1   -1    0    0  501    0  0.00000000000E+00 -0.00000000000E+00 -0.18636021623E+03  0.18636021623E+03  0.00000000000E+00 0. -1.
         25    2    1    2    0    0 -0.61953973269E+02 -0.29114442524E+02 -0.16760501130E+02  0.14357602632E+03  0.12508882991E+03 0.  0.
          5    1    3    3  502    0 -0.99350912087E+02 -0.27295280994E+02 -0.20652672703E+01  0.10313764505E+03  0.41800000000E+01 0.  1.
         -5    1    3    3    0  502  0.37396938818E+02 -0.18191615298E+01 -0.14695233860E+02  0.40438381271E+02  0.41800000000E+01 0.  1.
        -11    1    1    2    0    0 -0.36151651507E+02 -0.24121318048E+01  0.24699787001E+02  0.43850196857E+02  0.00000000000E+00 0.  1.
         11    1    1    2    0    0  0.98105624776E+02  0.31526574329E+02 -0.69140562636E+02  0.12409293253E+03  0.00000000000E+00 0. -1.
</event>
<event>
 7    1  0.3896452E-010  0.2280429E+03  0.7561462E-02  0.1128025E+00
          1   -1    0    0  501    0  0.00000000000E+00  0.00000000000E+00  0.57846747244E+03  0.57846747244E+03  0.00000000000E+00 0.  1.
         -1   -1    0    0    0  501 -0.00000000000E+00 -0.00000000000E+00 -0.14494363739E+03  0.14494363739E+03  0.00000000000E+00 0. -1.
         25    2    1    2    0    0  0.76788473046E+02 -0.11188680909E+03  0.66844212400E+02  0.19629296957E+03  0.12509058130E+03 0.  0.
          5    1    3    3  502    0  0.73493768325E+02 -0.13676559056E+03  0.70537103970E+02  0.17058463055E+03  0.41800000000E+01 0.  1.
         -5    1    3    3    0  502  0.32947047210E+01  0.24878781474E+02 -0.36928915700E+01  0.25708339016E+02  0.41800000000E+01 0.  1.
        -11    1    1    2    0    0  0.11710975315E+02 -0.71102144068E+02  0.30689636724E+03  0.31524283031E+03  0.00000000000E+00 0.  1.
         11    1    1    2    0    0 -0.88499448361E+02  0.18298895316E+03  0.59783255407E+02  0.21187530995E+03  0.00000000000E+00 0. -1.
</event>
<event>
 7    1  0.3896452E-010  0.8071749E+02  0.7561462E-02  0.1327028E+00
         -1   -1    0    0    0  501 -0.00000000000E+00  0.00000000000E+00  0.34452773389E+02  0.34452773389E+02  0.00000000000E+00 0.  1.
          1   -1    0    0  501    0  0.00000000000E+00 -0.00000000000E+00 -0.52429974078E+03  0.52429974078E+03  0.00000000000E+00 0. -1.
         25    2    1    2    0    0  0.43194342917E+02 -0.73352467369E+01 -0.24433925701E+03  0.27797573440E+03  0.12509707947E+03 0.  0.
          5    1    3    3  502    0 -0.57395378708E+01 -0.87027595198E+01  0.12311240241E+02  0.16664913876E+02  0.41800000000E+01 0.  1.
         -5    1    3    3    0  502  0.48933880788E+02  0.13675127829E+01 -0.25665049726E+03  0.26131082052E+03  0.41800000000E+01 0.  1.
        -11    1    1    2    0    0 -0.55681480741E+00  0.44504422347E+02 -0.20846342358E+03  0.21316179916E+03  0.00000000000E+00 0. -1.
         11    1    1    2    0    0 -0.42637528110E+02 -0.37169175610E+02 -0.37044286801E+02  0.67614980614E+02  0.00000000000E+00 0.  1.
</event>
<event>
 8    1  0.3896452E-010  0.2687448E+03  0.7561462E-02  0.1102000E+00
         -1   -1    0    0    0  501 -0.00000000000E+00  0.00000000000E+00  0.11343527160E+03  0.11343527160E+03  0.00000000000E+00 0.  1.
          1   -1    0    0  501    0  0.00000000000E+00 -0.00000000000E+00 -0.78905227618E+03  0.78905227618E+03  0.00000000000E+00 0. -1.
         25    2    1    2    0    0  0.25001752067E+03  0.35918454586E+02 -0.15622451464E+03  0.32225652398E+03  0.12507706525E+03 0.  0.
         23    2    1    2    0    0 -0.25001752067E+03 -0.35918454586E+02 -0.51939248994E+03  0.58023102380E+03  0.55682908993E+02 0.  0.
          5    1    3    3  502    0  0.14904548155E+03 -0.40077588524E+02 -0.99430232329E+02  0.18364262080E+03  0.41800000000E+01 0. -1.
         -5    1    3    3    0  502  0.10097203912E+03  0.75996043110E+02 -0.56794282309E+02  0.13861390318E+03  0.41800000000E+01 0. -1.
        -11    1    4    4    0    0 -0.14838504129E+03 -0.43790353272E+02 -0.34753223640E+03  0.38041342097E+03  0.00000000000E+00 0.  1.
         11    1    4    4    0    0 -0.10163247938E+03  0.78718986861E+01 -0.17186025354E+03  0.19981760283E+03  0.00000000000E+00 0. -1.
</event>
<event>
 7    1  0.3896452E-010  0.3208526E+03  0.7561462E-02  0.1075258E+00
         -2   -1    0    0    0  501 -0.00000000000E+00  0.00000000000E+00  0.40737401337E+03  0.40737401337E+03  0.00000000000E+00 0. -1.
          2   -1    0    0  501    0  0.00000000000E+00 -0.00000000000E+00 -0.28501254490E+03  0.28501254490E+03  0.00000000000E+00 0.  1.
         25    2    1    2    0    0  0.12462770337E+03  0.27874391045E+03 -0.18593684312E+02  0.33048994556E+03  0.12509055504E+03 0.  0.
          5    1    3    3  502    0  0.58288083889E+01  0.12214100701E+03  0.33962413197E+02  0.12697762996E+03  0.41800000000E+01 0. -1.
         -5    1    3    3    0  502  0.11879889498E+03  0.15660290344E+03 -0.52556097509E+02  0.20351231560E+03  0.41800000000E+01 0. -1.
        -11    1    1    2    0    0 -0.13759297205E+03 -0.19889039997E+03  0.63835254771E+02  0.25012828090E+03  0.00000000000E+00 0.  1.
         11    1    1    2    0    0  0.12965268679E+02 -0.79853510478E+02  0.77119898011E+02  0.11176833182E+03  0.00000000000E+00 0. -1.
</event>
<event>
 8    1  0.3896452E-010  0.5082811E+02  0.7561462E-02  0.1440925E+00
         -2   -1    0    0    0  501 -0.00000000000E+00  0.00000000000E+00  0.39789070380E+02  0.39789070380E+02  0.00000000000E+00 0.  1.
          2   -1    0    0  501    0  0.00000000000E+00 -0.00000000000E+00 -0.37184556650E+03  0.37184556650E+03  0.00000000000E+00 0. -1.
         25    2    1    2    0    0  0.18223767276E+02  0.27062462062E+01 -0.30560266273E+03  0.33072425642E+03  0.12508443891E+03 0.  0.
         23    2    1    2    0    0 -0.18223767276E+02 -0.27062462062E+01 -0.26453833387E+02  0.80910380453E+02  0.74210881290E+02 0.  0.
          5    1    3    3  502    0 -0.60742727834E+00  0.17661447681E+02  0.52591251743E+01  0.18905726637E+02  0.41800000000E+01 0.  1.
         -5    1    3    3    0  502  0.18831194554E+02 -0.14955201474E+02 -0.31086178790E+03  0.31181852979E+03  0.41800000000E+01 0.  1.
        -11    1    4    4    0    0 -0.16479146353E+02 -0.28668892502E+02  0.11398213539E+02  0.34976948605E+02  0.00000000000E+00 0.  1.
         11    1    4    4    0    0 -0.17446209227E+01  0.25962646296E+02 -0.37852046926E+02  0.45933431848E+02  0.00000000000E+00 0. -1.
</event>
<event>
 8    1  0.3896452E-010  0.1274458E+03  0.7561462E-02  0.1231296E+00
          1   -1    0    0  501    0  0.00000000000E+00  0.00000000000E+00  0.48235520548E+03  0.48235520548E+03  0.00000000000E+00 0. -1.
         -1   -1    0    0    0  501 -0.00000000000E+00 -0.00000000000E+00 -0.37314499846E+02  0.37314499846E+02  0.00000000000E+00 0.  1.
         25    2    1    2    0    0 -0.50453044254E+02  0.13082992643E+02  0.23523443792E+03  0.27147359281E+03  0.12508395755E+03 0.  0.
         23    2    1    2    0    0  0.50453044254E+02 -0.13082992643E+02  0.20980626771E+03  0.24819611252E+03  0.12192606746E+03 0.  0.
          5    1    3    3  502    0  0.33386041820E+02 -0.10250951554E+02  0.13090790323E+03  0.13555095472E+03  0.41800000000E+01 0.  1.
         -5    1    3    3    0  502 -0.83839086074E+02  0.23333944197E+02  0.10432653469E+03  0.13592263809E+03  0.41800000000E+01 0.  1.
        -11    1    4    4    0    0  0.24500531642E+02  0.54740189742E+02  0.96215876151E+02  0.11337662567E+03  0.00000000000E+00 0.  1.
         11    1    4    4    0    0  0.25952512612E+02 -0.67823182386E+02  0.11359039156E+03  0.13481948685E+03  0.00000000000E+00 0. -1.
</event>
<event>
 8    1  0.3896452E-010  0.2446000E+03  0.7561462E-02  0.1116766E+00
         -1   -1    0    0    0  501 -0.00000000000E+00  0.00000000000E+00  0.48655575632E+03  0.48655575632E+03  0.00000000000E+00 0.  1.
          1   -1    0    0  501    0  0.00000000000E+00 -0.00000000000E+00 -0.15603051342E+03  0.15603051342E+03  0.00000000000E+00 0. -1.
         25    2    1    2    0    0 -0.82662114489E+02  0.22060568711E+03  0.86190777889E+02  0.28031441715E+03  0.12508967948E+03 0.  0.
         23    2    1    2    0    0  0.82662114489E+02 -0.22060568711E+03  0.24433446501E+03  0.36227185259E+03  0.12665571457E+03 0.  0.
          5    1    3    3  502    0  0.14391211150E+02  0.27319205349E+02  0.52967622016E+02  0.61453131094E+02  0.41800000000E+01 0. -1.
         -5    1    3    3    0  502 -0.97053325639E+02  0.19328648176E+03  0.33223155874E+02  0.21886128606E+03  0.41800000000E+01 0. -1.
        -11    1    4    4    0    0  0.60166279823E+02 -0.20667737855E+03  0.14515966665E+03  0.25962828978E+03  0.00000000000E+00 0. -1.
         11    1    4    4    0    0  0.22495834666E+02 -0.13928308559E+02  0.99174798363E+02  0.10264356281E+03  0.00000000000E+00 0.  1.
</event>
<event>
 8    1  0.3896452E-010  0.1195461E+03  0.7561462E-02  0.1243848E+00
         -2   -1    0    0    0  501 -0.00000000000E+00  0.00000000000E+00  0.21374383085E+03  0.21374383085E+03  0.00000000000E+00 0. -1.
          2   -1    0    0  501    0  0.00000000000E+00 -0.00000000000E+00 -0.23742028456E+03  0.23742028456E+03  0.00000000000E+00 0.  1.
         25    2    1    2    0    0  0.99586208542E+02  0.26688664316E+02 -0.17644659441E+03  0.23960273519E+03  0.12508545997E+03 0.  0.
         23    2    1    2    0    0 -0.99586208542E+02 -0.26688664316E+02  0.15277014070E+03  0.21156138022E+03  0.10387398123E+03 0.  0.
          5    1    3    3  502    0  0.58103457591E+02 -0.62001336780E+01 -0.35000676482E+01  0.58687105186E+02  0.41800000000E+01 0.  1.
         -5    1    3    3    0  502  0.41482750951E+02  0.32888797994E+02 -0.17294652676E+03  0.18091563000E+03  0.41800000000E+01 0.  1.
        -11    1    4    4    0    0 -0.41390485790E+02 -0.49830118950E+02  0.25312119914E+02  0.69547943773E+02  0.00000000000E+00 0.  1.
         11    1    4    4    0    0 -0.58195722752E+02  0.23141454634E+02  0.12745802079E+03  0.14201343645E+03  0.00000000000E+00 0. -1.
</event>
<event>
 7    1  0.3896452E-010  0.2257994E+03  0.7561462E-02  0.1129632E+00
          1   -1    0    0  501    0  0.00000000000E+00  0.00000000000E+00  0.12119838231E+03  0.12119838231E+03  0.00000000000E+00 0. -1.
         -1   -1    0    0    0  501 -0.00000000000E+00 -0.00000000000E+00 -0.69600127042E+03  0.69600127042E+03  0.00000000000E+00 0.  1.
         25    2    1    2    0    0 -0.14716222523E+03  0.87481520932E+02 -0.52802068099E+03  0.56899871234E+03  0.12507580920E+03 0.  0.
          5    1    3    3  502    0 -0.49374165665E+02  0.98167074431E+02 -0.33022074425E+03  0.34804855275E+03  0.41800000000E+01 0. -1.
         -5    1    3    3    0  502 -0.97788059569E+02 -0.10685553499E+02 -0.19779993674E+03  0.22095015959E+03  0.41800000000E+01 0. -1.
        -11    1    1    2    0    0  0.80446933154E+01 -0.10289340956E+03 -0.11441642063E+02  0.10383969373E+03  0.00000000000E+00 0.  1.
         11    1    1    2    0    0  0.13911753192E+03  0.15411888625E+02 -0.35340565060E+02  0.14436124666E+03  0.00000000000E+00 0. -1.
</event>
<event>
 8    1  0.3896452E-010  0.2198340E+03  0.7561462E-02  0.1134007E+00
         -1   -1    0    0    0  501 -0.00000000000E+00  0.00000000000E+00  0.76140844583E+03  0.76140844583E+03  0.00000000000E+00 0.  1.
          1   -1    0    0  501    0  0.00000000000E+00 -0.00000000000E+00 -0.78355497429E+02  0.78355497429E+02  0.00000000000E+00 0. -1.
         25    2    1    2    0    0 -0.21250425311E+03  0.14191678113E+02  0.39363878854E+03  0.46471321580E+03  0.12508963100E+03 0.  0.
         23    2    1    2    0    0  0.21250425311E+03 -0.14191678113E+02  0.28941415987E+03  0.37505072746E+03  0.10743849832E+03 0.  0.
          5    1    3    3  502    0 -0.15210881661E+03  0.44983237877E+02  0.17716903967E+03  0.23783802219E+03  0.41800000000E+01 0. -1.
         -5    1    3    3    0  502 -0.60395436494E+02 -0.30791559764E+02  0.21646974887E+03  0.22687519361E+03  0.41800000000E+01 0. -1.
        -11    1    4    4    0    0  0.12076794061E+03 -0.49247807690E+01  0.76536266160E+02  0.14306274491E+03  0.00000000000E+00 0. -1.
         11    1    4    4    0    0  0.91736312498E+02 -0.92668973439E+01  0.21287789370E+03  0.23198798255E+03  0.00000000000E+00 0.  1.
</event>
<event>
 8    1  0.3896452E-010  0.9054034E+02  0.7561462E-02  0.1301548E+00
         -2   -1    0    0    0  501 -0.00000000000E+00  0.00000000000E+00  0.37966189542E+02  0.37966189542E+02  0.00000000000E+00 0.  1.
          2   -1    0    0  501    0  0.00000000000E+00 -0.00000000000E+00 -0.51253300784E+03  0.51253300784E+03  0.00000000000E+00 0. -1.
         25    2    1    2    0    0 -0.21253690924E+02  0.10186581841E+02 -0.38423145548E+03  0.40476630033E+03  0.12508581327E+03 0.  0.
         23    2    1    2    0    0  0.21253690924E+02 -0.10186581841E+02 -0.90335362820E+02  0.14573289705E+03  0.11190225055E+03 0.  0.
          5    1    3    3  502    0 -0.48512829759E+02  0.55558222402E+02 -0.20935631020E+03  0.22200844071E+03  0.41800000000E+01 0.  1.
         -5    1    3    3    0  502  0.27259138835E+02 -0.45371640560E+02 -0.17487514528E+03  0.18275785962E+03  0.41800000000E+01 0.  1.
        -11    1    4    4    0    0 -0.15580594185E+02 -0.71711014782E+01  0.21757282626E+02  0.27704854427E+02  0.00000000000E+00 0.  1.
         11    1    4    4    0    0  0.36834285109E+02 -0.30154803629E+01 -0.11209264545E+03  0.11802804262E+03  0.00000000000E+00 0. -1.
</event>
<event>
 8    1  0.3896452E-010  0.1130382E+03  0.7561462E-02  0.1255045E+00
         -2   -1    0    0    0  501 -0.00000000000E+00  0.00000000000E+00  0.27342974008E+02  0.27342974008E+02  0.00000000000E+00 0.  1.
          2   -1    0    0  501    0  0.00000000000E+00 -0.00000000000E+00 -0.78699938512E+03  0.78699938512E+03  0.00000000000E+00 0. -1.
         25    2    1    2    0    0  0.57210624291E+02 -0.65085743340E+02 -0.59829551031E+03  0.61734403147E+03  0.12508767330E+03 0.  0.
         23    2    1    2    0    0 -0.57210624291E+02  0.65085743340E+02 -0.16136090081E+03  0.19699832767E+03  0.72538205634E+02 0.  0.
          5    1    3    3  502    0  0.24205402739E+02 -0.90475545285E+02 -0.25839251042E+03  0.27487431247E+03  0.41800000000E+01 0.  1.
         -5    1    3    3    0  502  0.33005221552E+02  0.25389801945E+02 -0.33990299989E+03  0.34246971899E+03  0.41800000000E+01 0.  1.
        -11    1    4    4    0    0 -0.45274401935E+02  0.32386819130E+02 -0.34594953296E+02  0.65539974958E+02  0.00000000000E+00 0.  1.
         11    1    4    4    0    0 -0.11936222356E+02  0.32698924210E+02 -0.12676594751E+03  0.13145835271E+03  0.00000000000E+00 0. -1.
</event>
<event>
 8    1  0.3896452E-010  0.9213382E+02  0.7561462E-02  0.1297765E+00
          1   -1    0    0  501    0  0.00000000000E+00  0.00000000000E+00  0.38700856998E+02  0.38700856998E+02  0.00000000000E+00 0. -1.
         -1   -1    0    0    0  501 -0.00000000000E+00 -0.00000000000E+00 -0.32521933445E+03  0.32521933445E+03  0.00000000000E+00 0.  1.
         25    2    1    2    0    0 -0.48424365905E+02  0.37193434707E+01 -0.22225933200E+03  0.25962850864E+03  0.12509595959E+03 0.  0.
         23    2    1    2    0    0  0.48424365905E+02 -0.37193434707E+01 -0.64259145454E+02  0.10429168281E+03  0.66247751665E+02 0.  0.
          5    1    3    3  502    0  0.60337260969E+01 -0.50175013602E+02 -0.13055136259E+03  0.14005380578E+03  0.41800000000E+01 0. -1.
         -5    1    3    3    0  502 -0.54458092002E+02  0.53894357072E+02 -0.91707969413E+02  0.11957470285E+03  0.41800000000E+01 0. -1.
        -11    1    4    4    0    0  0.29413158935E+02  0.12382257475E+02 -0.71540536345E+02  0.78335831898E+02  0.00000000000E+00 0.  1.
         11    1    4    4    0    0  0.19011206970E+02 -0.16101600945E+02  0.72813908910E+01  0.25955850916E+02  0.00000000000E+00 0. -1.
</event>
<event>
 8    1  0.3896452E-010  0.2316879E+03  0.7561462E-02  0.1125457E+00
          2   -1    0    0  501    0  0.00000000000E+00  0.00000000000E+00  0.14653572536E+03  0.14653572536E+03  0.00000000000E+00 0. -1.
         -2   -1    0    0    0  501 -0.00000000000E+00 -0.00000000000E+00 -0.40037365157E+03  0.40037365157E+03  0.00000000000E+00 0.  1.
         25    2    1    2    0    0 -0.98226447164E+02 -0.19086132504E+03 -0.76456839295E+02  0.25994200419E+03  0.12509083479E+03 0.  0.
         23    2    1    2    0    0  0.98226447164E+02  0.19086132504E+03 -0.17738108692E+03  0.28696737274E+03  0.69352308552E+02 0.  0.
          5    1    3    3  502    0 -0.11666947576E+03 -0.18368963460E+03 -0.90083266185E+02  0.23555491011E+03  0.41800000000E+01 0.  1.
         -5    1    3    3    0  502  0.18443028596E+02 -0.71716904447E+01  0.13626426889E+02  0.24387094075E+02  0.41800000000E+01 0.  1.
        -11    1    4    4    0    0  0.87806760885E+02  0.96117723162E+02 -0.98670138509E+02  0.16335372722E+03  0.00000000000E+00 0.  1.
         11    1    4    4    0    0  0.10419686278E+02  0.94743601879E+02 -0.78710948409E+02  0.12361364552E+03  0.00000000000E+00 0. -1.
</event>
<event>
 8    1  0.3896452E-010  0.1102511E+03  0.7561462E-02  0.1260106E+00
          1   -1    0    0  501    0  0.00000000000E+00  0.00000000000E+00  0.20746072932E+03  0.20746072932E+03  0.00000000000E+00 0. -1.
         -1   -1    0    0    0  501 -0.00000000000E+00 -0.00000000000E+00 -0.71968492915E+02  0.71968492915E+02  0.00000000000E+00 0.  1.
         25    2    1    2    0    0 -0.44818846258E+02 -0.21345657853E+02  0.21700139499E+02  0.13631959388E+03  0.12509104497E+03 0.  0.
         23    2    1    2    0    0  0.44818846258E+02  0.21345657853E+02  0.11379209690E+03  0.14310962835E+03  0.71185379958E+02 0.  0.
          5    1    3    3  502    0 -0.85029251410E+02 -0.34211407639E+02  0.19745604859E+02  0.93849642084E+02  0.41800000000E+01 0. -1.
         -5    1    3    3    0  502  0.40210405152E+02  0.12865749785E+02  0.19545346397E+01  0.42469951798E+02  0.41800000000E+01 0. -1.
        -11    1    4    4    0    0 -0.17714741869E+02  0.15471050172E+02  0.37813632632E+02  0.44531295577E+02  0.00000000000E+00 0. -1.
         11    1    4    4    0    0  0.62533588127E+02  0.58746076808E+01  0.75978464270E+02  0.98578332773E+02  0.00000000000E+00 0.  1.
</event>
<event>
 7    1  0.3896452E-010  0.9599305E+02  0.7561462E-02  0.1288955E+00
          2   -1    0    0  501    0  0.00000000000E+00  0.00000000000E+00  0.25559840568E+03  0.25559840568E+03  0.00000000000E+00 0.  1.
         -2   -1    0    0    0  501 -0.00000000000E+00 -0.00000000000E+00 -0.10791668697E+03  0.10791668697E+03  0.00000000000E+00 0. -1.
         25    2    1    2    0    0 -0.49353608250E+02  0.74607128633E+00  0.14819816594E+03  0.20012294000E+03  0.12510059735E+03 0.  0.
          5    1    3    3  502    0 -0.59518443935E+02 -0.12565191975E+02  0.16507829548E+03  0.17597910461E+03  0.41800000000E+01 0. -1.
         -5    1    3    3    0  502  0.10164835685E+02  0.13311263261E+02 -0.16880129547E+02  0.24143835396E+02  0.41800000000E+01 0. -1.
        -11    1    1    2    0    0 -0.91346024813E+01  0.40927128516E+02  0.57432347515E+02  0.71112202555E+02  0.00000000000E+00 0.  1.
         11    1    1    2    0    0  0.58488210732E+02 -0.41673199803E+02 -0.57948794747E+02  0.92279950092E+02  0.00000000000E+00 0. -1.
</event>
<event>
 8    1  0.3896452E-010  0.1308919E+03  0.7561462E-02  0.1226138E+00
         -1   -1    0    0    0  501 -0.00000000000E+00  0.00000000000E+00  0.14736527291E+03  0.14736527291E+03  0.00000000000E+00 0.  1.
          1   -1    0    0  501    0  0.00000000000E+00 -0.00000000000E+00 -0.20436348845E+03  0.20436348845E+03  0.00000000000E+00 0. -1.
         25    2    1    2    0    0  0.11105998163E+03  0.41213389866E+01  0.32469838254E+02  0.17044913278E+03  0.12508921422E+03 0.  0.
         23    2    1    2    0    0 -0.11105998163E+03 -0.41213389866E+01 -0.89468053796E+02  0.18127962858E+03  0.11183231257E+03 0.  0.
          5    1    3    3  502    0  0.23066827453E+02 -0.18273211705E+02  0.66936779304E+02  0.73239290127E+02  0.41800000000E+01 0. -1.
         -5    1    3    3    0  502  0.87993154176E+02  0.22394550692E+02 -0.34466941050E+02  0.97209842649E+02  0.41800000000E+01 0. -1.
        -11    1    4    4    0    0 -0.71297042334E+02 -0.44862472858E+02 -0.11916670696E+02  0.85075946994E+02  0.00000000000E+00 0.  1.
         11    1    4    4    0    0 -0.39762939295E+02  0.40741133871E+02 -0.77551383100E+02  0.96203681589E+02  0.00000000000E+00 0. -1.
</event>
<event>
 8    1  0.3896452E-010  0.7944698E+02  0.7561462E-02  0.1330628E+00
         -3   -1    0    0    0  501 -0.00000000000E+00  0.00000000000E+00  0.85861000188E+02  0.85861000188E+02  0.00000000000E+00 0.  1.
          3   -1    0    0  501    0  0.00000000000E+00 -0.00000000000E+00 -0.16513530022E+03  0.16513530022E+03  0.00000000000E+00 0. -1.
         25    2    1    2    0    0 -0.96492050961E+01  0.41931279730E+01 -0.71628830738E+02  0.14453244391E+03  0.12509295931E+03 0.  0.
         23    2    1    2    0    0  0.96492050961E+01 -0.41931279730E+01 -0.76454692897E+01  0.10646385649E+03  0.10566650395E+03 0.  0.
          5    1    3    3  502    0  0.32849184580E+02  0.37534036411E+02  0.54163217833E+01  0.50345623033E+02  0.41800000000E+01 0.  1.
         -5    1    3    3    0  502 -0.42498389676E+02 -0.33340908438E+02 -0.77045152521E+02  0.94186820880E+02  0.41800000000E+01 0.  1.
        -11    1    4    4    0    0  0.31710100808E+02 -0.68536052738E+01  0.41413124622E+02  0.52607502216E+02  0.00000000000E+00 0.  1.
         11    1    4    4    0    0 -0.22060895712E+02  0.26604773008E+01 -0.49058593911E+02  0.53856354274E+02  0.00000000000E+00 0. -1.
</event>
<event>
 8    1  0.3896452E-010  0.1155236E+03  0.7561462E-02  0.1250670E+00
          1   -1    0    0  501    0  0.00000000000E+00  0.00000000000E+00  0.31099486685E+03  0.31099486685E+03  0.00000000000E+00 0. -1.
         -1   -1    0    0    0  501 -0.00000000000E+00 -0.00000000000E+00 -0.46977827210E+02  0.46977827210E+02  0.00000000000E+00 0.  1.
         25    2    1    2    0    0 -0.12772355362E+02 -0.44917711106E+01  0.12860544015E+03  0.17991622325E+03  0.12508868488E+03 0.  0.
         23    2    1    2    0    0  0.12772355362E+02  0.44917711106E+01  0.13541159949E+03  0.17805647081E+03  0.11482376257E+03 0.  0.
          5    1    3    3  502    0  0.51078898169E+02  0.96630487892E+00  0.22699121829E+02  0.56059879728E+02  0.41800000000E+01 0.  1.
         -5    1    3    3    0  502 -0.63851253531E+02 -0.54580759895E+01  0.10590631832E+03  0.12385634352E+03  0.41800000000E+01 0.  1.
        -11    1    4    4    0    0  0.28336194121E+02 -0.50777695741E+02  0.70779903349E+02  0.91602996677E+02  0.00000000000E+00 0. -1.
         11    1    4    4    0    0 -0.15563838759E+02  0.55269466852E+02  0.64631696139E+02  0.86453474128E+02  0.00000000000E+00 0.  1.
</event>
<event>
 7    1  0.3896452E-010  0.1622585E+03  0.7561462E-02  0.1186170E+00
          1   -1    0    0  501    0  0.00000000000E+00  0.00000000000E+00  0.31899073287E+03  0.31899073287E+03  0.00000000000E+00 0. -1.
         -1   -1    0    0    0  501 -0.00000000000E+00 -0.00000000000E+00 -0.11026771988E+03  0.11026771988E+03  0.00000000000E+00 0.  1.
         25    2    1    2    0    0  0.11318959382E+03 -0.44183590516E+02  0.48327269117E+02  0.18097163943E+03  0.12510449839E+03 0.  0.
          5    1    3    3  502    0  0.54389121060E+02  0.41909481116E+02  0.86069969290E+01  0.69326285730E+02  0.41800000000E+01 0. -1.
         -5    1    3    3    0  502  0.58800472765E+02 -0.86093071632E+02  0.39720272188E+02  0.11164535370E+03  0.41800000000E+01 0. -1.
        -11    1    1    2    0    0 -0.56511708463E+02 -0.25132294478E+02  0.14472653285E+03  0.15738797518E+03  0.00000000000E+00 0. -1.
         11    1    1    2    0    0 -0.56677885362E+02  0.69315884995E+02  0.15669211014E+02  0.90898838141E+02  0.00000000000E+00 0.  1.
</event>
<event>
 8    1  0.3896452E-010  0.1495848E+03  0.7561462E-02  0.1200984E+00
          2   -1    0    0  501    0  0.00000000000E+00  0.00000000000E+00  0.12161502303E+03  0.12161502303E+03  0.00000000000E+00 0. -1.
         -2   -1    0    0    0  501 -0.00000000000E+00 -0.00000000000E+00 -0.28165330282E+03  0.28165330282E+03  0.00000000000E+00 0.  1.
         25    2    1    2    0    0  0.13137387937E+03  0.36831202996E+02 -0.29361528250E+02  0.18741767681E+03  0.12509057736E+03 0.  0.
         23    2    1    2    0    0 -0.13137387937E+03 -0.36831202996E+02 -0.13067675155E+03  0.21585064905E+03  0.10440045788E+03 0.  0.
          5    1    3    3  502    0  0.67439415918E+02  0.52543880515E+01 -0.76217359115E+02  0.10199138024E+03  0.41800000000E+01 0. -1.
         -5    1    3    3    0  502  0.63934463449E+02  0.31576814945E+02  0.46855830865E+02  0.85426296564E+02  0.41800000000E+01 0. -1.
        -11    1    4    4    0    0 -0.20944110648E+02 -0.44591477798E+02 -0.80339041248E+02  0.94241271276E+02  0.00000000000E+00 0.  1.
         11    1    4    4    0    0 -0.11042976872E+03  0.77602748016E+01 -0.50337710297E+02  0.12160937777E+03  0.00000000000E+00 0. -1.
</event>
<event>
 7    1  0.3896452E-010  0.1258625E+03  0.7561462E-02  0.1233727E+00
          1   -1    0    0  501    0  0.00000000000E+00  0.00000000000E+00  0.84885633113E+02  0.84885633113E+02  0.00000000000E+00 0. -1.
         -1   -1    0    0    0  501 -0.00000000000E+00 -0.00000000000E+00 -0.27722908081E+03  0.27722908081E+03  0.00000000000E+00 0.  1.
         25    2    1    2    0    0 -0.42068062218E+02  0.43133243658E+02 -0.12898308574E+03  0.18951076996E+03  0.12508995546E+03 0.  0.
          5    1    3    3  502    0  0.11914756869E+02 -0.14561982682E+02  0.15532084849E+02  0.24753400386E+02  0.41800000000E+01 0.  1.
         -5    1    3    3    0  502 -0.53982819087E+02  0.57695226340E+02 -0.14451517059E+03  0.16475736957E+03  0.41800000000E+01 0.  1.
        -11    1    1    2    0    0 -0.15627617649E+02  0.45198413514E+02 -0.44700177628E+02  0.65461629200E+02  0.00000000000E+00 0. -1.
         11    1    1    2    0    0  0.57695679867E+02 -0.88331657172E+02 -0.18660184335E+02  0.10714231477E+03  0.00000000000E+00 0.  1.
</event>
<event>
 7    1  0.3896452E-010  0.5025283E+02  0.7561462E-02  0.1443983E+00
          2   -1    0    0  501    0  0.00000000000E+00  0.00000000000E+00  0.17496028792E+04  0.17496028792E+04  0.00000000000E+00 0. -1.
         -2   -1    0    0    0  501 -0.00000000000E+00 -0.00000000000E+00 -0.57131960576E+01  0.57131960576E+01  0.00000000000E+00 0.  1.
         25    2    1    2    0    0  0.13325987164E+02 -0.17749013585E+01  0.14999772082E+04  0.15052441195E+04  0.12508997540E+03 0.  0.
          5    1    3    3  502    0  0.63041165399E+01  0.20969058610E+02  0.14452071005E+04  0.14453790088E+04  0.41800000000E+01 0.  1.
         -5    1    3    3    0  502  0.70218706243E+01 -0.22743959968E+02  0.54770107640E+02  0.59865110649E+02  0.41800000000E+01 0.  1.
        -11    1    1    2    0    0 -0.84914561573E+01 -0.25225714349E+02  0.95195037625E+02  0.98846025112E+02  0.00000000000E+00 0.  1.
         11    1    1    2    0    0 -0.48345310069E+01  0.27000615708E+02  0.14871743730E+03  0.15122593063E+03  0.00000000000E+00 0. -1.
</event>
<event>
 8    1  0.3896452E-010  0.9302262E+02  0.7561462E-02  0.1295693E+00
          3   -1    0    0  501    0  0.00000000000E+00  0.00000000000E+00  0.27541942188E+03  0.27541942188E+03  0.00000000000E+00 0. -1.
         -3   -1    0    0    0  501 -0.00000000000E+00 -0.00000000000E+00 -0.56846324266E+02  0.56846324266E+02  0.00000000000E+00 0.  1.
         25    2    1    2    0    0  0.69521142642E+02  0.11117711987E+01  0.17180443668E+03  0.22360349318E+03  0.12508929766E+03 0.  0.
         23    2    1    2    0    0 -0.69521142642E+02 -0.11117711987E+01  0.46768660931E+02  0.10866225296E+03  0.69179131714E+02 0.  0.
          5    1    3    3  502    0  0.81543475940E+02  0.26275296623E+02  0.51519616337E+02  0.10005734830E+03  0.41800000000E+01 0.  1.
         -5    1    3    3    0  502 -0.12022333298E+02 -0.25163525424E+02  0.12028482035E+03  0.12354614488E+03  0.41800000000E+01 0.  1.
        -11    1    4    4    0    0 -0.13058261829E+02 -0.78055666480E+01 -0.17276270656E+02  0.23019874032E+02  0.00000000000E+00 0.  1.
         11    1    4    4    0    0 -0.56462880813E+02  0.66937954492E+01  0.64044931587E+02  0.85642378932E+02  0.00000000000E+00 0. -1.
</event>
<event>
 8    1  0.3896452E-010  0.8956998E+02  0.7561462E-02  0.1303896E+00
         -1   -1    0    0    0  501 -0.00000000000E+00  0.00000000000E+00  0.22055215255E+03  0.22055215255E+03  0.00000000000E+00 0.  1.
          1   -1    0    0  501    0  0.00000000000E+00 -0.00000000000E+00 -0.11248761418E+03  0.11248761418E+03  0.00000000000E+00 0. -1.
         25    2    1    2    0    0  0.20890759515E+00 -0.25871813103E+01 -0.56544698535E+02  0.13729847557E+03  0.12508729476E+03 0.  0.
         23    2    1    2    0    0 -0.20890759515E+00  0.25871813103E+01  0.16460923690E+03  0.19574129117E+03  0.10588538637E+03 0.  0.
          5    1    3    3  502    0 -0.11903196701E+02  0.51471857450E+02 -0.61896792139E+02  0.81484498392E+02  0.41800000000E+01 0.  1.
         -5    1    3    3    0  502  0.12112104296E+02 -0.54059038760E+02  0.53520936042E+01  0.55813977175E+02  0.41800000000E+01 0.  1.
        -11    1    4    4    0    0  0.17131924969E+02  0.32083899893E+02  0.10467718737E+02  0.37847755826E+02  0.00000000000E+00 0. -1.
         11    1    4    4    0    0 -0.17340832564E+02 -0.29496718582E+02  0.15414151817E+03  0.15789353535E+03  0.00000000000E+00 0.  1.
</event>
<event>
 8    1  0.3896452E-010  0.1473445E+03  0.7561462E-02  0.1203775E+00
         -1   -1    0    0    0  501 -0.00000000000E+00  0.00000000000E+00  0.94584777163E+02  0.94584777163E+02  0.00000000000E+00 0.  1.
          1   -1    0    0  501    0  0.00000000000E+00 -0.00000000000E+00 -0.23439478914E+03  0.23439478914E+03  0.00000000000E+00 0. -1.
         25    2    1    2    0    0  0.48926250114E+02  0.75742621115E+02 -0.85756747152E+02  0.17644441627E+03  0.12509072606E+03 0.  0.
         23    2    1    2    0    0 -0.48926250114E+02 -0.75742621115E+02 -0.54053264826E+02  0.15253515004E+03  0.11051920175E+03 0.  0.
          5    1    3    3  502    0  0.37023710909E+02 -0.29391603811E+02 -0.18120762812E+02  0.50798188835E+02  0.41800000000E+01 0.  1.
         -5    1    3    3    0  502  0.11902539205E+02  0.10513422493E+03 -0.67635984341E+02  0.12564622743E+03  0.41800000000E+01 0.  1.
        -11    1    4    4    0    0 -0.77544444994E+02 -0.81124600572E+02 -0.50955473693E+02  0.12325097187E+03  0.00000000000E+00 0. -1.
         11    1    4    4    0    0  0.28618194880E+02  0.53819794574E+01 -0.30977911330E+01  0.29284178168E+02  0.00000000000E+00 0.  1.
</event>
<event>
 7    1  0.3896452E-010  0.1155720E+03  0.7561462E-02  0.1250586E+00
         -2   -1    0    0    0  501 -0.00000000000E+00  0.00000000000E+00  0.13712736808E+03  0.13712736808E+03  0.00000000000E+00 0.  1.
          2   -1    0    0  501    0  0.00000000000E+00 -0.00000000000E+00 -0.16169653079E+03  0.16169653079E+03  0.00000000000E+00 0. -1.
         25    2    1    2    0    0 -0.23720172570E+02 -0.11546284487E+02  0.79271791286E+01  0.12808453670E+03  0.12508734988E+03 0.  0.
          5    1    3    3  502    0 -0.30952692873E+02 -0.30126258622E+02 -0.50279133225E+02  0.66416295384E+02  0.41800000000E+01 0. -1.
         -5    1    3    3    0  502  0.72325203035E+01  0.18579974135E+02  0.58206312354E+02  0.61668241313E+02  0.41800000000E+01 0. -1.
        -11    1    1    2    0    0 -0.66558053286E+02  0.33434409900E+02 -0.99191191103E+01  0.75141354436E+02  0.00000000000E+00 0.  1.
         11    1    1    2    0    0  0.90278225856E+02 -0.21888125413E+02 -0.22577222721E+02  0.95598007738E+02  0.00000000000E+00 0. -1.
</event>
<event>
 8    1  0.3896452E-010  0.1473063E+03  0.7561462E-02  0.1203823E+00
          2   -1    0    0  501    0  0.00000000000E+00  0.00000000000E+00  0.75117229228E+03  0.75117229228E+03  0.00000000000E+00 0. -1.
         -2   -1    0    0    0  501 -0.00000000000E+00 -0.00000000000E+00 -0.32937388451E+02  0.32937388451E+02  0.00000000000E+00 0.  1.
         25    2    1    2    0    0 -0.90999789491E+02  0.99679379156E+01  0.50390003079E+03  0.52720173787E+03  0.12508441112E+03 0.  0.
         23    2    1    2    0    0  0.90999789491E+02 -0.99679379156E+01  0.21433487303E+03  0.25690794286E+03  0.10808298586E+03 0.  0.
          5    1    3    3  502    0 -0.73687385345E+02  0.64118725656E+02  0.33203548765E+03  0.34613014777E+03  0.41800000000E+01 0.  1.
         -5    1    3    3    0  502 -0.17312404147E+02 -0.54150787740E+02  0.17186454315E+03  0.18107159010E+03  0.41800000000E+01 0.  1.
        -11    1    4    4    0    0  0.24881320352E+02 -0.54644869267E+02  0.72192644430E+02  0.93898454458E+02  0.00000000000E+00 0. -1.
         11    1    4    4    0    0  0.66118469139E+02  0.44676931352E+02  0.14214222860E+03  0.16300948840E+03  0.00000000000E+00 0.  1.
</event>
<event>
 8    1  0.3896452E-010  0.1080966E+03  0.7561462E-02  0.1264136E+00
         -2   -1    0    0    0  501 -0.00000000000E+00  0.00000000000E+00  0.30618174697E+02  0.30618174697E+02  0.00000000000E+00 0. -1.
          2   -1    0    0  501    0  0.00000000000E+00 -0.00000000000E+00 -0.47256689718E+03  0.47256689718E+03  0.00000000000E+00 0.  1.
         25    2    1    2    0    0  0.21970032384E+01 -0.10972063200E+02 -0.20281998328E+03  0.23855566322E+03  0.12509055058E+03 0.  0.
         23    2    1    2    0    0 -0.21970032384E+01  0.10972063200E+02 -0.23912873920E+03  0.26462940865E+03  0.11278722010E+03 0.  0.
          5    1    3    3  502    0 -0.44231954534E+02 -0.41876603049E+02 -0.61906822033E+02  0.86948506019E+02  0.41800000000E+01 0. -1.
         -5    1    3    3    0  502  0.46428957772E+02  0.30904539849E+02 -0.14091316125E+03  0.15160715720E+03  0.41800000000E+01 0. -1.
        -11    1    4    4    0    0 -0.47222130790E+02  0.23113536692E+02 -0.18894473033E+03  0.19612311525E+03  0.00000000000E+00 0. -1.
         11    1    4    4    0    0  0.45025127551E+02 -0.12141473492E+02 -0.50184008868E+02  0.68506293401E+02  0.00000000000E+00 0.  1.
</event>
<event>
 8    1  0.3896452E-010  0.1270289E+03  0.7561462E-02  0.1231932E+00
          1   -1    0    0  501    0  0.00000000000E+00  0.00000000000E+00  0.22546562075E+03  0.22546562075E+03  0.00000000000E+00 0. -1.
         -1   -1    0    0    0  501 -0.00000000000E+00 -0.00000000000E+00 -0.13713676520E+03  0.13713676520E+03  0.00000000000E+00 0.  1.
         25    2    1    2    0    0  0.64602958222E+02  0.32562181981E+02  0.16022637864E+03  0.21576302701E+03  0.12508938207E+03 0.  0.
         23    2    1    2    0    0 -0.64602958222E+02 -0.32562181981E+02 -0.71897523082E+02  0.14683935894E+03  0.10563477459E+03 0.  0.
          5    1    3    3  502    0  0.78349404740E+02  0.59237406136E+02  0.70275098575E+02  0.12084602347E+03  0.41800000000E+01 0.  1.
         -5    1    3    3    0  502 -0.13746446518E+02 -0.26675224156E+02  0.89951280063E+02  0.94917003538E+02  0.41800000000E+01 0.  1.
        -11    1    4    4    0    0 -0.72977692704E+02  0.17206867456E+02 -0.28281944173E+02  0.80135437144E+02  0.00000000000E+00 0. -1.
         11    1    4    4    0    0  0.83747344821E+01 -0.49769049437E+02 -0.43615578909E+02  0.66703921797E+02  0.00000000000E+00 0.  1.
</event>
<event>
 8    1  0.3896452E-010  0.9449674E+02  0.7561462E-02  0.1292314E+00
         -3   -1    0    0    0  501 -0.00000000000E+00  0.00000000000E+00  0.11160118064E+03  0.11160118064E+03  0.00000000000E+00 0.  1.
          3   -1    0    0  501    0  0.00000000000E+00 -0.00000000000E+00 -0.99375509287E+02  0.99375509287E+02  0.00000000000E+00 0. -1.
         25    2    1    2    0    0 -0.42758995229E+02  0.16940135000E+02  0.29898370621E+00  0.13327619579E+03  0.12508858911E+03 0.  0.
         23    2    1    2    0    0  0.42758995229E+02 -0.16940135000E+02  0.11926687644E+02  0.77700494138E+02  0.61480249384E+02 0.  0.
          5    1    3    3  502    0 -0.71972015879E+02 -0.96840070998E+01 -0.34446298172E+02  0.80484600520E+02  0.41800000000E+01 0. -1.
         -5    1    3    3    0  502  0.29213020649E+02  0.26624142099E+02  0.34745281878E+02  0.52791595266E+02  0.41800000000E+01 0. -1.
        -11    1    4    4    0    0  0.70462962987E+00  0.20313155996E+02  0.60810001826E+01  0.21215545542E+02  0.00000000000E+00 0. -1.
         11    1    4    4    0    0  0.42054365599E+02 -0.37253290996E+02  0.58456874616E+01  0.56484948596E+02  0.00000000000E+00 0.  1.
</event>
<event>
 8    1  0.5461532E-010  0.2883071E+03  0.7561462E-02  0.1091236E+00
         -1   -1    0    0    0  501 -0.00000000000E+00  0.00000000000E+00  0.70343676752E+02  0.70343676752E+02  0.00000000000E+00 0.  1.
          1   -1    0    0  501    0  0.00000000000E+00 -0.00000000000E+00 -0.16986554384E+04  0.16986554384E+04  0.00000000000E+00 0. -1.
         25    2    1    2    0    0 -0.26628665263E+03 -0.32558492964E+02 -0.12955211183E+04  0.13289063423E+04  0.12509381139E+03 0.  0.
         23    2    1    2    0    0  0.26628665263E+03  0.32558492964E+02 -0.33279064335E+03  0.44009277292E+03  0.10470625405E+03 0.  0.
          5    1    3    3  502    0 -0.55347538128E+02  0.44713439139E+02 -0.32155476445E+03  0.32935934867E+03  0.41800000000E+01 0. -1.
         -5    1    3    3    0  502 -0.21093911451E+03 -0.77271932102E+02 -0.97396635388E+03  0.99954699360E+03  0.41800000000E+01 0. -1.
        -11    1    4    4    0    0  0.14750854050E+03 -0.23401131467E+02 -0.12734077913E+03  0.19627036583E+03  0.00000000000E+00 0.  1.
         11    1    4    4    0    0  0.11877811214E+03  0.55959624430E+02 -0.20544986423E+03  0.24382240709E+03  0.00000000000E+00 0. -1.
</event>
<event>
 7    1  0.3896452E-010  0.1887013E+03  0.7561462E-02  0.1159638E+00
         -2   -1    0    0    0  501 -0.00000000000E+00  0.00000000000E+00  0.70444973692E+02  0.70444973692E+02  0.00000000000E+00 0. -1.
          2   -1    0    0  501    0  0.00000000000E+00 -0.00000000000E+00 -0.10873230418E+04  0.10873230418E+04  0.00000000000E+00 0.  1.
         25    2    1    2    0    0  0.97478279604E+02  0.49632131850E+02 -0.30494966832E+03  0.34727897006E+03  0.12507205655E+03 0.  0.
          5    1    3    3  502    0  0.32992508161E+02  0.38551141651E+02 -0.19700658205E+02  0.54591981564E+02  0.41800000000E+01 0.  1.
         -5    1    3    3    0  502  0.64485771443E+02  0.11080990199E+02 -0.28524901012E+03  0.29268698850E+03  0.41800000000E+01 0.  1.
        -11    1    1    2    0    0 -0.15107087012E+03  0.40193830102E+02 -0.68481820019E+03  0.70243428098E+03  0.00000000000E+00 0.  1.
         11    1    1    2    0    0  0.53592590520E+02 -0.89825961952E+02 -0.27110199596E+02  0.10805476445E+03  0.00000000000E+00 0. -1.
</event>
<event>
 7    1  0.3896452E-010  0.8546380E+02  0.7561462E-02  0.1314224E+00
          2   -1    0    0  501    0  0.00000000000E+00  0.00000000000E+00  0.69526952962E+02  0.69526952962E+02  0.00000000000E+00 0.  1.
         -2   -1    0    0    0  501 -0.00000000000E+00 -0.00000000000E+00 -0.11360746722E+03  0.11360746722E+03  0.00000000000E+00 0. -1.
         25    2    1    2    0    0  0.73804951286E+01 -0.86907263030E+00 -0.12339785215E+02  0.12592237623E+03  0.12509575348E+03 0.  0.
          5    1    3    3  502    0 -0.57646894641E+02  0.11502989873E+02 -0.77309356701E+01  0.59436714277E+02  0.41800000000E+01 0.  1.
         -5    1    3    3    0  502  0.65027389769E+02 -0.12372062503E+02 -0.46088495446E+01  0.66485661950E+02  0.41800000000E+01 0.  1.
        -11    1    1    2    0    0  0.18274434030E+02  0.65153846660E+01 -0.21651602300E+02  0.29072273021E+02  0.00000000000E+00 0.  1.
         11    1    1    2    0    0 -0.25654929158E+02 -0.56463120357E+01 -0.10089126741E+02  0.28139770932E+02  0.00000000000E+00 0. -1.
</event>
<event>
 8    1  0.3896452E-010  0.1597954E+03  0.7561462E-02  0.1188928E+00
          2   -1    0    0  501    0  0.00000000000E+00  0.00000000000E+00  0.10181529862E+04  0.10181529862E+04  0.00000000000E+00 0. -1.
         -2   -1    0    0    0  501 -0.00000000000E+00 -0.00000000000E+00 -0.35235848013E+02  0.35235848013E+02  0.00000000000E+00 0.  1.
         25    2    1    2    0    0  0.74536418282E+00 -0.10692430081E+03  0.75139460650E+03  0.76920476612E+03  0.12509498739E+03 0.  0.
         23    2    1    2    0    0 -0.74536418282E+00  0.10692430081E+03  0.23152253170E+03  0.28418406811E+03  0.12539752873E+03 0.  0.
          5    1    3    3  502    0 -0.54753405936E+02 -0.39595549347E+02  0.20547531679E+03  0.21634075252E+03  0.41800000000E+01 0. -1.
         -5    1    3    3    0  502  0.55498770119E+02 -0.67328751461E+02  0.54591928971E+03  0.55286401360E+03  0.41800000000E+01 0. -1.
        -11    1    4    4    0    0  0.37996746647E+02  0.11822466037E+03  0.18141235845E+03  0.21984373285E+03  0.00000000000E+00 0.  1.
         11    1    4    4    0    0 -0.38742110830E+02 -0.11300359565E+02  0.50110173258E+02  0.64340335263E+02  0.00000000000E+00 0. -1.
</event>
<event>
 8    1  0.3896452E-010  0.1490180E+03  0.7561462E-02  0.1201685E+00
          2   -1    0    0  501    0  0.00000000000E+00  0.00000000000E+00  0.35627155893E+03  0.35627155893E+03  0.00000000000E+00 0. -1.
         -2   -1    0    0    0  501 -0.00000000000E+00 -0.00000000000E+00 -0.72610547906E+02  0.72610547906E+02  0.00000000000E+00 0.  1.
         25    2    1    2    0    0  0.75104018262E+02 -0.71124651854E+02  0.12668753099E+03  0.20590476563E+03  0.12509081637E+03 0.  0.
         23    2    1    2    0    0 -0.75104018262E+02  0.71124651854E+02  0.15697348003E+03  0.22297734121E+03  0.11991201607E+03 0.  0.
          5    1    3    3  502    0  0.64319337509E+02 -0.10238276699E+03  0.68984833471E+02  0.13926804301E+03  0.41800000000E+01 0. -1.
         -5    1    3    3    0  502  0.10784680753E+02  0.31258115134E+02  0.57702697524E+02  0.66636722625E+02  0.41800000000E+01 0. -1.
        -11    1    4    4    0    0 -0.27973696978E+02 -0.24455246856E+02  0.51878561131E+01  0.37516671927E+02  0.00000000000E+00 0.  1.
         11    1    4    4    0    0 -0.47130321284E+02  0.95579898710E+02  0.15178562392E+03  0.18546066928E+03  0.00000000000E+00 0. -1.
</event>
<event>
 7    1  0.3896452E-010  0.1080520E+03  0.7561462E-02  0.1264220E+00
         -1   -1    0    0    0  501 -0.00000000000E+00  0.00000000000E+00  0.24363892659E+03  0.24363892659E+03  0.00000000000E+00 0.  1.
          1   -1    0    0  501    0  0.00000000000E+00 -0.00000000000E+00 -0.86605093556E+02  0.86605093556E+02  0.00000000000E+00 0. -1.
         25    2    1    2    0    0 -0.11267144191E+02 -0.62081872479E+02  0.99343252627E+02  0.17174814469E+03  0.12508891211E+03 0.  0.
          5    1    3    3  502    0 -0.58223605389E+02  0.11794002126E+01  0.59508264725E+02  0.83367170876E+02  0.41800000000E+01 0.  1.
         -5    1    3    3    0  502  0.46956461198E+02 -0.63261272692E+02  0.39834987902E+02  0.88380973812E+02  0.41800000000E+01 0.  1.
        -11    1    1    2    0    0 -0.15532756378E+02  0.43559937896E+02  0.96988837031E+02  0.10745031046E+03  0.00000000000E+00 0.  1.
         11    1    1    2    0    0  0.26799900569E+02  0.18521934583E+02 -0.39298256628E+02  0.51045564990E+02  0.00000000000E+00 0. -1.
</event>
<event>
 8    1  0.3896452E-010  0.1770665E+03  0.7561462E-02  0.1170673E+00
         -1   -1    0    0    0  501 -0.00000000000E+00  0.00000000000E+00  0.34711560707E+03  0.34711560707E+03  0.00000000000E+00 0.  1.
          1   -1    0    0  501    0  0.00000000000E+00 -0.00000000000E+00 -0.11047273465E+03  0.11047273465E+03  0.00000000000E+00 0. -1.
         25    2    1    2    0    0 -0.50734660691E+02  0.14233717263E+03  0.11183014449E+03  0.22580235454E+03  0.12508735185E+03 0.  0.
         23    2    1    2    0    0  0.50734660691E+02 -0.14233717263E+03  0.12481272793E+03  0.23178598718E+03  0.12374429397E+03 0.  0.
          5    1    3    3  502    0 -0.59073025739E+01  0.11366474611E+03  0.12672573299E+03  0.17038619232E+03  0.41800000000E+01 0.  1.
         -5    1    3    3    0  502 -0.44827358117E+02  0.28672426523E+02 -0.14895588502E+02  0.55416162221E+02  0.41800000000E+01 0.  1.
        -11    1    4    4    0    0  0.58149314025E+02 -0.15863469491E+03  0.12995873002E+03  0.21315623533E+03  0.00000000000E+00 0.  1.
         11    1    4    4    0    0 -0.74146533336E+01  0.16297522282E+02 -0.51460020853E+01  0.18629751851E+02  0.00000000000E+00 0. -1.
</event>
<event>
 8    1  0.3896452E-010  0.1395485E+03  0.7561462E-02  0.1213938E+00
          3   -1    0    0  501    0  0.00000000000E+00  0.00000000000E+00  0.10112069953E+04  0.10112069953E+04  0.00000000000E+00 0. -1.
         -3   -1    0    0    0  501 -0.00000000000E+00 -0.00000000000E+00 -0.27207943033E+02  0.27207943033E+02  0.00000000000E+00 0.  1.
         25    2    1    2    0    0  0.13543551679E+02  0.10959568895E+03  0.63269443299E+03  0.65432726659E+03  0.12508910196E+03 0.  0.
         23    2    1    2    0    0 -0.13543551679E+02 -0.10959568895E+03  0.35130461928E+03  0.38408767175E+03  0.10915017745E+03 0.  0.
          5    1    3    3  502    0  0.64467150502E+02  0.39885320428E+02  0.37232736534E+03  0.37998946256E+03  0.41800000000E+01 0.  1.
         -5    1    3    3    0  502 -0.50923598823E+02  0.69710368524E+02  0.26036706766E+03  0.27433780402E+03  0.41800000000E+01 0.  1.
        -11    1    4    4    0    0  0.10913745807E+02 -0.64738761132E+02  0.61981072249E+02  0.90287708785E+02  0.00000000000E+00 0. -1.
         11    1    4    4    0    0 -0.24457297486E+02 -0.44856927820E+02  0.28932354703E+03  0.29379996297E+03  0.00000000000E+00 0.  1.
</event>
<event>
 8    1  0.3896452E-010  0.1184247E+03  0.7561462E-02  0.1245719E+00
         -1   -1    0    0    0  501 -0.00000000000E+00  0.00000000000E+00  0.55248921961E+03  0.55248921961E+03  0.00000000000E+00 0.  1.
          1   -1    0    0  501    0  0.00000000000E+00 -0.00000000000E+00 -0.32007759115E+02  0.32007759115E+02  0.00000000000E+00 0. -1.
         25    2    1    2    0    0  0.86829589032E+02 -0.28189174966E+02  0.28537053989E+03  0.32468059368E+03  0.12508851170E+03 0.  0.
         23    2    1    2    0    0 -0.86829589032E+02  0.28189174966E+02  0.23511092060E+03  0.25981638504E+03  0.62397130014E+02 0.  0.
          5    1    3    3  502    0  0.16053112638E+02  0.30740812722E+02  0.18551033353E+03  0.18877037966E+03  0.41800000000E+01 0. -1.
         -5    1    3    3    0  502  0.70776476394E+02 -0.58929987688E+02  0.99860206364E+02  0.13591021402E+03  0.41800000000E+01 0. -1.
        -11    1    4    4    0    0 -0.62211260503E+02 -0.11262968137E+02  0.15110317870E+03  0.16379641632E+03  0.00000000000E+00 0.  1.
         11    1    4    4    0    0 -0.24618328529E+02  0.39452143103E+02  0.84007741899E+02  0.96019968725E+02  0.00000000000E+00 0. -1.
</event>
<event>
 7    1  0.3896452E-010  0.8148172E+02  0.7561462E-02  0.1324898E+00
         -3   -1    0    0    0  501 -0.00000000000E+00  0.00000000000E+00  0.99981341670E+02  0.99981341670E+02  0.00000000000E+00 0. -1.
          3   -1    0    0  501    0  0.00000000000E+00 -0.00000000000E+00 -0.10833799412E+03  0.10833799412E+03  0.00000000000E+00 0.  1.
         25    2    1    2    0    0 -0.96798093525E+01  0.28845028254E+02  0.38613475631E+02  0.13440210366E+03  0.12508873093E+03 0.  0.
          5    1    3    3  502    0 -0.23961626965E+02  0.75716662489E+02  0.22422418784E+02  0.82628141752E+02  0.41800000000E+01 0. -1.
         -5    1    3    3    0  502  0.14281817612E+02 -0.46871634235E+02  0.16191056847E+02  0.51773961911E+02  0.41800000000E+01 0. -1.
        -11    1    1    2    0    0  0.11118161625E+02 -0.88458989810E+01 -0.51446932292E+02  0.53372748561E+02  0.00000000000E+00 0.  1.
         11    1    1    2    0    0 -0.14383522720E+01 -0.19999129273E+02  0.44768042141E+01  0.20544483564E+02  0.00000000000E+00 0. -1.
</event>
<event>
 8    1  0.3896452E-010  0.1103118E+03  0.7561462E-02  0.1259994E+00
         -2   -1    0    0    0  501 -0.00000000000E+00  0.00000000000E+00  0.57718056326E+02  0.57718056326E+02  0.00000000000E+00 0.  1.
          2   -1    0    0  501    0  0.00000000000E+00 -0.00000000000E+00 -0.30026560266E+03  0.30026560266E+03  0.00000000000E+00 0. -1.
         25    2    1    2    0    0 -0.11972090552E+01 -0.33964718361E+02 -0.14444312942E+03  0.19407887897E+03  0.12509099977E+03 0.  0.
         23    2    1    2    0    0  0.11972090552E+01  0.33964718361E+02 -0.98104416923E+02  0.16390478002E+03  0.12682769765E+03 0.  0.
          5    1    3    3  502    0  0.28287275031E+02  0.40355100544E+02 -0.51429260784E+02  0.71352262287E+02  0.41800000000E+01 0.  1.
         -5    1    3    3    0  502 -0.29484484087E+02 -0.74319818906E+02 -0.93013868631E+02  0.12272661668E+03  0.41800000000E+01 0.  1.
        -11    1    4    4    0    0  0.11183847572E+02 -0.27051762992E+02  0.16560924323E+02  0.33632432887E+02  0.00000000000E+00 0.  1.
         11    1    4    4    0    0 -0.99866385163E+01  0.61016481353E+02 -0.11466534125E+03  0.13027234714E+03  0.00000000000E+00 0. -1.
</event>
<event>
 8    1  0.3896452E-010  0.1486688E+03  0.7561462E-02  0.1202118E+00
          4   -1    0    0  501    0  0.00000000000E+00  0.00000000000E+00  0.51706265805E+02  0.51706265805E+02  0.00000000000E+00 0. -1.
         -4   -1    0    0    0  501 -0.00000000000E+00 -0.00000000000E+00 -0.64765603372E+03  0.64765603372E+03  0.00000000000E+00 0.  1.
         25    2    1    2    0    0 -0.10972802237E+03 -0.57044088928E+02 -0.20182789435E+03  0.26772501457E+03  0.12509163647E+03 0.  0.
         23    2    1    2    0    0  0.10972802237E+03  0.57044088928E+02 -0.39412187356E+03  0.43163728495E+03  0.12523748467E+03 0.  0.
          5    1    3    3  502    0 -0.12514930434E+03 -0.12098130913E+02 -0.16485512718E+03  0.20737260789E+03  0.41800000000E+01 0.  1.
         -5    1    3    3    0  502  0.15421281967E+02 -0.44945958015E+02 -0.36972767178E+02  0.60352406681E+02  0.41800000000E+01 0.  1.
        -11    1    4    4    0    0  0.83595014818E+02  0.46468120779E+02 -0.39185080679E+03  0.40335402258E+03  0.00000000000E+00 0.  1.
         11    1    4    4    0    0  0.26133007555E+02  0.10575968149E+02 -0.22710667741E+01  0.28283262373E+02  0.00000000000E+00 0. -1.
</event>
<event>
 8    1  0.3896452E-010  0.1077042E+03  0.7561462E-02  0.1264881E+00
         -2   -1    0    0    0  501 -0.00000000000E+00  0.00000000000E+00  0.35748364467E+03  0.35748364467E+03  0.00000000000E+00 0.  1.
          2   -1    0    0  501    0  0.00000000000E+00 -0.00000000000E+00 -0.56759157170E+02  0.56759157170E+02  0.00000000000E+00 0. -1.
         25    2    1    2    0    0 -0.75105811650E+02 -0.31919971306E+02  0.80226086134E+02  0.16953290507E+03  0.12508162733E+03 0.  0.
         23    2    1    2    0    0  0.75105811650E+02  0.31919971306E+02  0.22049840137E+03  0.24470989677E+03  0.67849989380E+02 0.  0.
          5    1    3    3  502    0 -0.87283497957E+02 -0.14480966245E+02  0.10450033258E+03  0.13698868314E+03  0.41800000000E+01 0. -1.
         -5    1    3    3    0  502  0.12177686307E+02 -0.17439005061E+02 -0.24274246441E+02  0.32544221939E+02  0.41800000000E+01 0. -1.
        -11    1    4    4    0    0 -0.56710136144E+01  0.23231301024E+02  0.37330181559E+02  0.44332789196E+02  0.00000000000E+00 0. -1.
         11    1    4    4    0    0  0.80776825265E+02  0.86886702825E+01  0.18316821981E+03  0.20037710757E+03  0.00000000000E+00 0.  1.
</event>
<event>
 8    1  0.3896452E-010  0.8177753E+02  0.7561462E-02  0.1324081E+00
          2   -1    0    0  501    0  0.00000000000E+00  0.00000000000E+00  0.25433724884E+03  0.25433724884E+03  0.00000000000E+00 0. -1.
         -2   -1    0    0    0  501 -0.00000000000E+00 -0.00000000000E+00 -0.34198455919E+02  0.34198455919E+02  0.00000000000E+00 0.  1.
         25    2    1    2    0    0 -0.15663439176E+02  0.14531646618E+02  0.13941390893E+03  0.18851903447E+03  0.12508667505E+03 0.  0.
         23    2    1    2    0    0  0.15663439176E+02 -0.14531646618E+02  0.80724883994E+02  0.10001667029E+03  0.55048300241E+02 0.  0.
          5    1    3    3  502    0 -0.47515212821E+02  0.44021217414E+02  0.12788317478E+03  0.14341248838E+03  0.41800000000E+01 0. -1.
         -5    1    3    3    0  502  0.31851773646E+02 -0.29489570796E+02  0.11530734146E+02  0.45106546089E+02  0.41800000000E+01 0. -1.
        -11    1    4    4    0    0 -0.14910707896E+02 -0.18987294325E+02  0.54054219932E+02  0.59200551080E+02  0.00000000000E+00 0.  1.
         11    1    4    4    0    0  0.30574147072E+02  0.44556477076E+01  0.26670664062E+02  0.40816119208E+02  0.00000000000E+00 0. -1.
</event>
<event>
 8    1  0.3896452E-010  0.6299007E+02  0.7561462E-02  0.1385696E+00
         -2   -1    0    0    0  501 -0.00000000000E+00  0.00000000000E+00  0.22596293592E+02  0.22596293592E+02  0.00000000000E+00 0.  1.
          2   -1    0    0  501    0  0.00000000000E+00 -0.00000000000E+00 -0.68688983945E+03  0.68688983945E+03  0.00000000000E+00 0. -1.
         25    2    1    2    0    0 -0.26407840318E+01 -0.28616759486E+02 -0.61102683786E+03  0.62436256297E+03  0.12509564656E+03 0.  0.
         23    2    1    2    0    0  0.26407840318E+01  0.28616759486E+02 -0.53266707994E+02  0.85123570069E+02  0.59856389274E+02 0.  0.
          5    1    3    3  502    0 -0.33555512755E+02 -0.20468683352E+02 -0.57360966507E+03  0.57496996417E+03  0.41800000000E+01 0. -1.
         -5    1    3    3    0  502  0.30914728724E+02 -0.81480761349E+01 -0.37417172795E+02  0.49392598805E+02  0.41800000000E+01 0. -1.
        -11    1    4    4    0    0 -0.21177235971E+02  0.77700948576E+01  0.68964680472E+00  0.22568236754E+02  0.00000000000E+00 0.  1.
         11    1    4    4    0    0  0.23818020003E+02  0.20846664629E+02 -0.53956354798E+02  0.62555333315E+02  0.00000000000E+00 0. -1.
</event>
<event>
 8    1  0.3896452E-010  0.1141879E+03  0.7561462E-02  0.1253005E+00
         -2   -1    0    0    0  501 -0.00000000000E+00  0.00000000000E+00  0.12099617879E+03  0.12099617879E+03  0.00000000000E+00 0.  1.
          2   -1    0    0  501    0  0.00000000000E+00 -0.00000000000E+00 -0.14012100725E+03  0.14012100725E+03  0.00000000000E+00 0. -1.
         25    2    1    2    0    0  0.42344435181E+01 -0.48746053345E+02  0.19188021743E+02  0.13568452120E+03  0.12509196971E+03 0.  0.
         23    2    1    2    0    0 -0.42344435181E+01  0.48746053345E+02 -0.38312850202E+02  0.12543266484E+03  0.10895581990E+03 0.  0.
          5    1    3    3  502    0  0.55470393689E+02  0.80285325933E+01 -0.19292090481E+01  0.56237142167E+02  0.41800000000E+01 0. -1.
         -5    1    3    3    0  502 -0.51235950171E+02 -0.56774585939E+02  0.21117230791E+02  0.79447379030E+02  0.41800000000E+01 0. -1.
        -11    1    4    4    0    0 -0.42965797294E+02  0.20256871307E+02  0.18525045238E+02  0.50986055675E+02  0.00000000000E+00 0.  1.
         11    1    4    4    0    0  0.38731353776E+02  0.28489182038E+02 -0.56837895441E+02  0.74446609168E+02  0.00000000000E+00 0. -1.
</event>
<event>
 8    1  0.3896452E-010  0.9570730E+02  0.7561462E-02  0.1289591E+00
          1   -1    0    0  501    0  0.00000000000E+00  0.00000000000E+00  0.28121324244E+03  0.28121324244E+03  0.00000000000E+00 0. -1.
         -1   -1    0    0    0  501 -0.00000000000E+00 -0.00000000000E+00 -0.49699101755E+02  0.49699101755E+02  0.00000000000E+00 0.  1.
         25    2    1    2    0    0 -0.95733687394E+00 -0.26239386157E+02  0.10987616232E+03  0.16855289849E+03  0.12509151315E+03 0.  0.
         23    2    1    2    0    0  0.95733687394E+00  0.26239386157E+02  0.12163797837E+03  0.16235944571E+03  0.10428504183E+03 0.  0.
          5    1    3    3  502    0  0.29189535031E+02 -0.54570553968E+02  0.13344998899E+02  0.63447109558E+02  0.41800000000E+01 0. -1.
         -5    1    3    3    0  502 -0.30146871905E+02  0.28331167810E+02  0.96531163420E+02  0.10510578893E+03  0.41800000000E+01 0. -1.
        -11    1    4    4    0    0  0.18420689868E+02  0.52854864322E+02  0.26293117064E+02  0.61840815831E+02  0.00000000000E+00 0.  1.
         11    1    4    4    0    0 -0.17463352994E+02 -0.26615478164E+02  0.95344861305E+02  0.10051862988E+03  0.00000000000E+00 0. -1.
</event>
<event>
 8    1  0.3896452E-010  0.7328963E+02  0.7561462E-02  0.1349251E+00
         -1   -1    0    0    0  501 -0.00000000000E+00  0.00000000000E+00  0.83704952184E+02  0.83704952184E+02  0.00000000000E+00 0.  1.
          1   -1    0    0  501    0  0.00000000000E+00 -0.00000000000E+00 -0.19520977596E+03  0.19520977596E+03  0.00000000000E+00 0. -1.
         25    2    1    2    0    0  0.11482816032E+02  0.21513998483E+02 -0.11689257986E+02  0.12797933770E+03  0.12508942773E+03 0.  0.
         23    2    1    2    0    0 -0.11482816032E+02 -0.21513998483E+02 -0.99815565789E+02  0.15093539045E+03  0.11056056132E+03 0.  0.
          5    1    3    3  502    0  0.51447354422E+02 -0.49766450410E+01  0.33682941549E+02  0.61835347692E+02  0.41800000000E+01 0. -1.
         -5    1    3    3    0  502 -0.39964538390E+02  0.26490643524E+02 -0.45372199534E+02  0.66143990004E+02  0.41800000000E+01 0. -1.
        -11    1    4    4    0    0 -0.41640291843E+01  0.11785677474E+02  0.21527597644E+02  0.24893348366E+02  0.00000000000E+00 0.  1.
         11    1    4    4    0    0 -0.73187868472E+01 -0.33299675956E+02 -0.12134316343E+03  0.12604204208E+03  0.00000000000E+00 0. -1.
</event>
<event>
 8    1  0.3896452E-010  0.1116737E+03  0.7561462E-02  0.1257502E+00
         -1   -1    0    0    0  501 -0.00000000000E+00  0.00000000000E+00  0.20134133743E+02  0.20134133743E+02  0.00000000000E+00 0.  1.
          1   -1    0    0  501    0  0.00000000000E+00 -0.00000000000E+00 -0.77824327806E+03  0.77824327806E+03  0.00000000000E+00 0. -1.
         25    2    1    2    0    0  0.68146098279E+02 -0.19680217336E+02 -0.49440069239E+03  0.51488982537E+03  0.12509310920E+03 0.  0.
         23    2    1    2    0    0 -0.68146098279E+02  0.19680217336E+02 -0.26370845193E+03  0.28348758644E+03  0.76104286201E+02 0.  0.
          5    1    3    3  502    0  0.19677668060E+02 -0.67088265478E+02 -0.32327513380E+03  0.33077534751E+03  0.41800000000E+01 0.  1.
         -5    1    3    3    0  502  0.48468430220E+02  0.47408048141E+02 -0.17112555858E+03  0.18411447786E+03  0.41800000000E+01 0.  1.
        -11    1    4    4    0    0 -0.43875523572E+02 -0.11985445656E+02 -0.21853542737E+03  0.22321838072E+03  0.00000000000E+00 0. -1.
         11    1    4    4    0    0 -0.24270574708E+02  0.31665662992E+02 -0.45173024560E+02  0.60269205713E+02  0.00000000000E+00 0.  1.
</event>
<event>
 8    1  0.3896452E-010  0.1084680E+03  0.7561462E-02  0.1263434E+00
          2   -1    0    0  501    0  0.00000000000E+00  0.00000000000E+00  0.33516757738E+03  0.33516757738E+03  0.00000000000E+00 0. -1.
         -2   -1    0    0    0  501 -0.00000000000E+00 -0.00000000000E+00 -0.43561320110E+02  0.43561320110E+02  0.00000000000E+00 0.  1.
         25    2    1    2    0    0  0.13532325100E+02 -0.24005415705E+02  0.12938213438E+03  0.18206152112E+03  0.12508907613E+03 0.  0.
         23    2    1    2    0    0 -0.13532325100E+02  0.24005415705E+02  0.16222412289E+03  0.19666737638E+03  0.10771261337E+03 0.  0.
          5    1    3    3  502    0  0.40848211041E+02  0.26014535465E+02  0.11237703857E+03  0.12243938744E+03  0.41800000000E+01 0. -1.
         -5    1    3    3    0  502 -0.27315885941E+02 -0.50019951171E+02  0.17005095818E+02  0.59622133672E+02  0.41800000000E+01 0. -1.
        -11    1    4    4    0    0 -0.39473972789E+02  0.56922943213E+02  0.10124497886E+03  0.12267420974E+03  0.00000000000E+00 0. -1.
         11    1    4    4    0    0  0.25941647689E+02 -0.32917527508E+02  0.60979144028E+02  0.73993166633E+02  0.00000000000E+00 0.  1.
</event>
<event>
 8    1  0.3896452E-010  0.1391168E+03  0.7561462E-02  0.1214522E+00
         -2   -1    0    0    0  501 -0.00000000000E+00  0.00000000000E+00  0.32134140731E+02  0.32134140731E+02  0.00000000000E+00 0.  1.
          2   -1    0    0  501    0  0.00000000000E+00 -0.00000000000E+00 -0.70873790225E+03  0.70873790225E+03  0.00000000000E+00 0. -1.
         25    2    1    2    0    0  0.63914384041E+02 -0.84095210395E+02 -0.45346212838E+03  0.48211311006E+03  0.12509235036E+03 0.  0.
         23    2    1    2    0    0 -0.63914384041E+02  0.84095210395E+02 -0.22314163314E+03  0.25875893292E+03  0.77504477464E+02 0.  0.
          5    1    3    3  502    0  0.81308823848E+02 -0.23812786514E+02 -0.15110871349E+03  0.17329018821E+03  0.41800000000E+01 0.  1.
         -5    1    3    3    0  502 -0.17394439807E+02 -0.60282423881E+02 -0.30235341489E+03  0.30882292185E+03  0.41800000000E+01 0.  1.
        -11    1    4    4    0    0  0.17701178192E+02  0.20311543331E+02 -0.37514984523E+02  0.46187277097E+02  0.00000000000E+00 0.  1.
         11    1    4    4    0    0 -0.81615562233E+02  0.63783667065E+02 -0.18562664862E+03  0.21257165582E+03  0.00000000000E+00 0. -1.
</event>
<event>
 7    1  0.3896452E-010  0.1017423E+03  0.7561462E-02  0.1276674E+00
          1   -1    0    0  501    0  0.00000000000E+00  0.00000000000E+00  0.16709637837E+03  0.16709637837E+03  0.00000000000E+00 0. -1.
         -1   -1    0    0    0  501 -0.00000000000E+00 -0.00000000000E+00 -0.10263374837E+03  0.10263374837E+03  0.00000000000E+00 0.  1.
         25    2    1    2    0    0 -0.44285085189E+02 -0.48888929593E+02 -0.28298848062E+02  0.14422043249E+03  0.12508961643E+03 0.  0.
          5    1    3    3  502    0 -0.37328864060E+02 -0.81009751277E+02  0.14112606944E+02  0.90402776333E+02  0.41800000000E+01 0. -1.
         -5    1    3    3    0  502 -0.69562211296E+01  0.32120821684E+02 -0.42411455007E+02  0.53817656153E+02  0.41800000000E+01 0. -1.
        -11    1    1    2    0    0  0.31127296809E+02  0.72987877656E+00  0.19110825250E+02  0.36533066822E+02  0.00000000000E+00 0. -1.
         11    1    1    2    0    0  0.13157788380E+02  0.48159050817E+02  0.73650652809E+02  0.88976627436E+02  0.00000000000E+00 0.  1.
</event>
<event>
 8    1  0.3896452E-010  0.1182911E+03  0.7561462E-02  0.1245943E+00
         -2   -1    0    0    0  501 -0.00000000000E+00  0.00000000000E+00  0.51002601183E+02  0.51002601183E+02  0.00000000000E+00 0. -1.
          2   -1    0    0  501    0  0.00000000000E+00 -0.00000000000E+00 -0.37486257154E+03  0.37486257154E+03  0.00000000000E+00 0.  1.
         25    2    1    2    0    0 -0.10606925176E+01 -0.61246742731E+02 -0.19404864687E+03  0.23886006954E+03  0.12508783676E+03 0.  0.
         23    2    1    2    0    0  0.10606925176E+01  0.61246742731E+02 -0.12981132348E+03  0.18700510318E+03  0.11986509228E+03 0.  0.
          5    1    3    3  502    0 -0.38584257307E+02  0.24187556552E+02 -0.58713832482E+02  0.74421564943E+02  0.41800000000E+01 0. -1.
         -5    1    3    3    0  502  0.37523564789E+02 -0.85434299283E+02 -0.13533481439E+03  0.16443850460E+03  0.41800000000E+01 0. -1.
        -11    1    4    4    0    0 -0.19238272617E+02 -0.11165187096E+02 -0.10572377102E+03  0.10803836492E+03  0.00000000000E+00 0.  1.
         11    1    4    4    0    0  0.20298965134E+02  0.72411929828E+02 -0.24087552458E+02  0.78966738253E+02  0.00000000000E+00 0. -1.
</event>
<event>
 8    1  0.3896452E-010  0.1106288E+03  0.7561462E-02  0.1259410E+00
         -2   -1    0    0    0  501 -0.00000000000E+00  0.00000000000E+00  0.17455378685E+03  0.17455378685E+03  0.00000000000E+00 0.  1.
          2   -1    0    0  501    0  0.00000000000E+00 -0.00000000000E+00 -0.11410059350E+03  0.11410059350E+03  0.00000000000E+00 0. -1.
         25    2    1    2    0    0  0.39802282016E+02 -0.58006323515E+02  0.57399741438E+02  0.15456829292E+03  0.12509065368E+03 0.  0.
         23    2    1    2    0    0 -0.39802282016E+02  0.58006323515E+02  0.30534519171E+01  0.13408608743E+03  0.11410872032E+03 0.  0.
          5    1    3    3  502    0  0.69362816918E+02 -0.80339535276E+02  0.41700860640E+02  0.11411430882E+03  0.41800000000E+01 0.  1.
         -5    1    3    3    0  502 -0.29560534902E+02  0.22333211761E+02  0.15698880797E+02  0.40453984099E+02  0.41800000000E+01 0.  1.
        -11    1    4    4    0    0 -0.37122391304E+02  0.25272304392E+02  0.55998388597E+02  0.71781479721E+02  0.00000000000E+00 0.  1.
         11    1    4    4    0    0 -0.26798907122E+01  0.32734019123E+02 -0.52944936680E+02  0.62304607713E+02  0.00000000000E+00 0. -1.
</event>
<event>
 8    1  0.3896452E-010  0.9942753E+02  0.7561462E-02  0.1281504E+00
         -2   -1    0    0    0  501 -0.00000000000E+00  0.00000000000E+00  0.82541608198E+01  0.82541608198E+01  0.00000000000E+00 0.  1.
          2   -1    0    0  501    0  0.00000000000E+00 -0.00000000000E+00 -0.15496394947E+04  0.15496394947E+04  0.00000000000E+00 0. -1.
         25    2    1    2    0    0  0.70922372371E+01 -0.40721607776E+02 -0.12196477745E+04  0.12267422596E+04  0.12508928290E+03 0.  0.
         23    2    1    2    0    0 -0.70922372371E+01  0.40721607776E+02 -0.32173755939E+03  0.33115139584E+03  0.66615618856E+02 0.  0.
          5    1    3    3  502    0  0.33389687728E+02 -0.71946476818E+02 -0.53478427766E+03  0.54065040720E+03  0.41800000000E+01 0. -1.
         -5    1    3    3    0  502 -0.26297450491E+02  0.31224869042E+02 -0.68486349679E+03  0.68609185244E+03  0.41800000000E+01 0. -1.
        -11    1    4    4    0    0 -0.35898354549E+02  0.12360521412E+02 -0.15793120483E+03  0.16243072311E+03  0.00000000000E+00 0.  1.
         11    1    4    4    0    0  0.28806117312E+02  0.28361086364E+02 -0.16380635456E+03  0.16872067274E+03  0.00000000000E+00 0. -1.
</event>
<event>
 8    1  0.3896452E-010  0.1735795E+03  0.7561462E-02  0.1174166E+00
          1   -1    0    0  501    0  0.00000000000E+00  0.00000000000E+00  0.15467367969E+03  0.15467367969E+03  0.00000000000E+00 0. -1.
         -1   -1    0    0    0  501 -0.00000000000E+00 -0.00000000000E+00 -0.34979996232E+03  0.34979996232E+03  0.00000000000E+00 0.  1.
         25    2    1    2    0    0 -0.14934988078E+03 -0.75195196914E+02 -0.23891987793E+03  0.31731891798E+03  0.12509549597E+03 0.  0.
         23    2    1    2    0    0  0.14934988078E+03  0.75195196914E+02  0.43793595294E+02  0.18715472402E+03  0.71758673399E+02 0.  0.
          5    1    3    3  502    0 -0.27619990783E+02 -0.30883999899E+02  0.41524347334E+01  0.41849736616E+02  0.41800000000E+01 0. -1.
         -5    1    3    3    0  502 -0.12172989000E+03 -0.44311197015E+02 -0.24307231266E+03  0.27546918137E+03  0.41800000000E+01 0. -1.
        -11    1    4    4    0    0  0.20690039033E+01  0.17665566116E+02  0.20809449567E+02  0.27374919080E+02  0.00000000000E+00 0. -1.
         11    1    4    4    0    0  0.14728087688E+03  0.57529630797E+02  0.22984145727E+02  0.15977980494E+03  0.00000000000E+00 0.  1.
</event>
<event>
 8    1  0.3896452E-010  0.1362836E+03  0.7561462E-02  0.1218419E+00
          2   -1    0    0  501    0  0.00000000000E+00  0.00000000000E+00  0.40457839073E+02  0.40457839073E+02  0.00000000000E+00 0. -1.
         -2   -1    0    0    0  501 -0.00000000000E+00 -0.00000000000E+00 -0.59293087614E+03  0.59293087614E+03  0.00000000000E+00 0.  1.
         25    2    1    2    0    0  0.22385521890E+02  0.10518370430E+03 -0.39367289074E+03  0.42683799264E+03  0.12509038258E+03 0.  0.
         23    2    1    2    0    0 -0.22385521890E+02 -0.10518370430E+03 -0.15880014633E+03  0.20655072258E+03  0.76687621435E+02 0.  0.
          5    1    3    3  502    0 -0.91291716639E+01  0.12533984081E+03 -0.27605366563E+03  0.30334224265E+03  0.41800000000E+01 0.  1.
         -5    1    3    3    0  502  0.31514693554E+02 -0.20156136509E+02 -0.11761922511E+03  0.12349574998E+03  0.41800000000E+01 0.  1.
        -11    1    4    4    0    0 -0.97214927933E+01 -0.83568384446E+02 -0.16073731549E+03  0.18142399756E+03  0.00000000000E+00 0.  1.
         11    1    4    4    0    0 -0.12664029097E+02 -0.21615319858E+02  0.19371691606E+01  0.25126725013E+02  0.00000000000E+00 0. -1.
</event>
<event>
 7    1  0.3896452E-010  0.1238169E+03  0.7561462E-02  0.1236930E+00
         -1   -1    0    0    0  501 -0.00000000000E+00  0.00000000000E+00  0.27111024683E+03  0.27111024683E+03  0.00000000000E+00 0.  1.
          1   -1    0    0  501    0  0.00000000000E+00 -0.00000000000E+00 -0.10550185708E+03  0.10550185708E+03  0.00000000000E+00 0. -1.
         25    2    1    2    0    0 -0.84542368572E+02  0.48889200321E+02  0.95840726003E+02  0.18538987891E+03  0.12508555653E+03 0.  0.
          5    1    3    3  502    0 -0.47866261157E+02  0.85422265385E+02  0.32016873495E+02  0.10310526160E+03  0.41800000000E+01 0. -1.
         -5    1    3    3    0  502 -0.36676107415E+02 -0.36533065064E+02  0.63823852507E+02  0.82284617317E+02  0.41800000000E+01 0. -1.
        -11    1    1    2    0    0  0.29559129007E+02 -0.15772158901E+02 -0.47151803296E+02  0.57842853129E+02  0.00000000000E+00 0. -1.
         11    1    1    2    0    0  0.54983239564E+02 -0.33117041421E+02  0.11691946705E+03  0.13337937187E+03  0.00000000000E+00 0.  1.
</event>
<event>
 8    1  0.3896452E-010  0.1244442E+03  0.7561462E-02  0.1235940E+00
          1   -1    0    0  501    0  0.00000000000E+00  0.00000000000E+00  0.97299484466E+03  0.97299484466E+03  0.00000000000E+00 0. -1.
         -1   -1    0    0    0  501 -0.00000000000E+00 -0.00000000000E+00 -0.21478551407E+02  0.21478551407E+02  0.00000000000E+00 0.  1.
         25    2    1    2    0    0 -0.34401015507E+02  0.82833317486E+02  0.76387543764E+03  0.77922888390E+03  0.12508869223E+03 0.  0.
         23    2    1    2    0    0  0.34401015507E+02 -0.82833317486E+02  0.18764085561E+03  0.21524451216E+03  0.55464592019E+02 0.  0.
          5    1    3    3  502    0 -0.66800332882E+02  0.95723997122E+02  0.63505433844E+03  0.64570647610E+03  0.41800000000E+01 0.  1.
         -5    1    3    3    0  502  0.32399317375E+02 -0.12890679637E+02  0.12882109919E+03  0.13352240780E+03  0.41800000000E+01 0.  1.
        -11    1    4    4    0    0  0.14683051077E+02 -0.73855773227E+02  0.10126996415E+03  0.12619775302E+03  0.00000000000E+00 0. -1.
         11    1    4    4    0    0  0.19717964429E+02 -0.89775442593E+01  0.86370891466E+02  0.89046759148E+02  0.00000000000E+00 0.  1.
</event>
<event>
 8    1  0.3896452E-010  0.7686782E+02  0.7561462E-02  0.1338183E+00
          1   -1    0    0  501    0  0.00000000000E+00  0.00000000000E+00  0.24465746974E+03  0.24465746974E+03  0.00000000000E+00 0. -1.
         -1   -1    0    0    0  501 -0.00000000000E+00 -0.00000000000E+00 -0.35219452814E+02  0.35219452814E+02  0.00000000000E+00 0.  1.
         25    2    1    2    0    0 -0.27773340785E+01 -0.59994896403E+01  0.15811920546E+03  0.20172589533E+03  0.12509175132E+03 0.  0.
         23    2    1    2    0    0  0.27773340785E+01  0.59994896403E+01  0.51318811464E+02  0.78151027227E+02  0.58568380429E+02 0.  0.
          5    1    3    3  502    0 -0.61674129753E+01 -0.54565964816E+02  0.26080345302E+02  0.60935525847E+02  0.41800000000E+01 0.  1.
         -5    1    3    3    0  502  0.33900788967E+01  0.48566475176E+02  0.13203886016E+03  0.14079036948E+03  0.41800000000E+01 0.  1.
        -11    1    4    4    0    0  0.12669456457E+01 -0.21861270779E+02  0.26583123460E+01  0.22058715644E+02  0.00000000000E+00 0.  1.
         11    1    4    4    0    0  0.15103884329E+01  0.27860760419E+02  0.48660499118E+02  0.56092311583E+02  0.00000000000E+00 0. -1.
</event>
<event>
 8    1  0.3896452E-010  0.1456880E+03  0.7561462E-02  0.1205874E+00
         -2   -1    0    0    0  501 -0.00000000000E+00  0.00000000000E+00  0.36706143252E+02  0.36706143252E+02  0.00000000000E+00 0. -1.
          2   -1    0    0  501    0  0.00000000000E+00 -0.00000000000E+00 -0.60651396579E+03  0.60651396579E+03  0.00000000000E+00 0.  1.
         25    2    1    2    0    0 -0.69394326293E+02  0.63294632604E+02 -0.29848964300E+03  0.33699414696E+03  0.12508878874E+03 0.  0.
         23    2    1    2    0    0  0.69394326293E+02 -0.63294632604E+02 -0.27131817954E+03  0.30622596209E+03  0.10648475134E+03 0.  0.
          5    1    3    3  502    0 -0.27943977564E+02 -0.36927695795E+02 -0.69989944745E+02  0.84027289402E+02  0.41800000000E+01 0. -1.
         -5    1    3    3    0  502 -0.41450348729E+02  0.10022232840E+03 -0.22849969825E+03  0.25296685755E+03  0.41800000000E+01 0. -1.
        -11    1    4    4    0    0  0.93088032657E+02 -0.35031008957E+02 -0.15469988195E+03  0.18391467285E+03  0.00000000000E+00 0.  1.
         11    1    4    4    0    0 -0.23693706363E+02 -0.28263623647E+02 -0.11661829759E+03  0.12231128924E+03  0.00000000000E+00 0. -1.
</event>
<event>
 8    1  0.3896452E-010  0.1068622E+03  0.7561462E-02  0.1266493E+00
         -2   -1    0    0    0  501 -0.00000000000E+00  0.00000000000E+00  0.19753473729E+02  0.19753473729E+02  0.00000000000E+00 0.  1.
          2   -1    0    0  501    0  0.00000000000E+00 -0.00000000000E+00 -0.85420737264E+03  0.85420737264E+03  0.00000000000E+00 0. -1.
         25    2    1    2    0    0  0.66925620145E+02  0.34027729093E+02 -0.36996853335E+03  0.39769227796E+03  0.12508200230E+03 0.  0.
         23    2    1    2    0    0 -0.66925620145E+02 -0.34027729093E+02 -0.46448536556E+03  0.47626856841E+03  0.73811716259E+02 0.  0.
          5    1    3    3  502    0  0.21132844388E+02  0.59282771559E+02 -0.31672667650E+03  0.32294628675E+03  0.41800000000E+01 0. -1.
         -5    1    3    3    0  502  0.45792775757E+02 -0.25255042466E+02 -0.53241856849E+02  0.74745991212E+02  0.41800000000E+01 0. -1.
        -11    1    4    4    0    0 -0.31454189635E+01  0.16512712397E+02 -0.31521498980E+02  0.35723496877E+02  0.00000000000E+00 0.  1.
         11    1    4    4    0    0 -0.63780201182E+02 -0.50540441489E+02 -0.43296386658E+03  0.44054507153E+03  0.00000000000E+00 0. -1.
</event>
<event>
 8    1  0.3896452E-010  0.8845967E+02  0.7561462E-02  0.1306625E+00
         -1   -1    0    0    0  501 -0.00000000000E+00  0.00000000000E+00  0.10848846954E+03  0.10848846954E+03  0.00000000000E+00 0.  1.
          1   -1    0    0  501    0  0.00000000000E+00 -0.00000000000E+00 -0.18737901155E+03  0.18737901155E+03  0.00000000000E+00 0. -1.
         25    2    1    2    0    0  0.30626562777E+02 -0.54144567114E+02  0.12817950748E+02  0.14028872020E+03  0.12508798767E+03 0.  0.
         23    2    1    2    0    0 -0.30626562777E+02  0.54144567114E+02 -0.91708492754E+02  0.15557876088E+03  0.10920019551E+03 0.  0.
          5    1    3    3  502    0  0.88714756541E+01 -0.39796669706E+02  0.67841900772E+02  0.79262058390E+02  0.41800000000E+01 0.  1.
         -5    1    3    3    0  502  0.21755087123E+02 -0.14347897408E+02 -0.55023950023E+02  0.61026661812E+02  0.41800000000E+01 0.  1.
        -11    1    4    4    0    0  0.43167984719E+01  0.70728146078E+02 -0.92950641089E+02  0.11687996867E+03  0.00000000000E+00 0. -1.
         11    1    4    4    0    0 -0.34943361249E+02 -0.16583578965E+02  0.12421483351E+01  0.38698792218E+02  0.00000000000E+00 0.  1.
</event>
<event>
 8    1  0.3896452E-010  0.1189841E+03  0.7561462E-02  0.1244782E+00
          1   -1    0    0  501    0  0.00000000000E+00  0.00000000000E+00  0.13686745997E+03  0.13686745997E+03  0.00000000000E+00 0. -1.
         -1   -1    0    0    0  501 -0.00000000000E+00 -0.00000000000E+00 -0.11543386472E+03  0.11543386472E+03  0.00000000000E+00 0.  1.
         25    2    1    2    0    0 -0.35617829445E+02  0.54980553373E+02  0.46844066455E+02  0.14877411226E+03  0.12509148210E+03 0.  0.
         23    2    1    2    0    0  0.35617829445E+02 -0.54980553373E+02 -0.25410471213E+02  0.10352721243E+03  0.76030918988E+02 0.  0.
          5    1    3    3  502    0  0.46555957857E+02  0.14623071944E+02  0.99257490003E+01  0.49972836004E+02  0.41800000000E+01 0.  1.
         -5    1    3    3    0  502 -0.82173787302E+02  0.40357481429E+02  0.36918317455E+02  0.98801276260E+02  0.41800000000E+01 0.  1.
        -11    1    4    4    0    0  0.55808549562E+02 -0.53157737575E+02 -0.93002714944E+01  0.77632688465E+02  0.00000000000E+00 0. -1.
         11    1    4    4    0    0 -0.20190720117E+02 -0.18228157971E+01 -0.16110199719E+02  0.25894523963E+02  0.00000000000E+00 0.  1.
</event>
<event>
 8    1  0.3896452E-010  0.1010185E+03  0.7561462E-02  0.1278169E+00
         -1   -1    0    0    0  501 -0.00000000000E+00  0.00000000000E+00  0.32977050522E+03  0.32977050522E+03  0.00000000000E+00 0.  1.
          1   -1    0    0  501    0  0.00000000000E+00 -0.00000000000E+00 -0.42127618260E+02  0.42127618260E+02  0.00000000000E+00 0. -1.
         25    2    1    2    0    0  0.28581157865E+02  0.36167440164E+02  0.10402722630E+03  0.16909847683E+03  0.12509062612E+03 0.  0.
         23    2    1    2    0    0 -0.28581157865E+02 -0.36167440164E+02  0.18361566066E+03  0.20279964664E+03  0.72718770107E+02 0.  0.
          5    1    3    3  502    0  0.68888876074E+01 -0.46362098423E+02  0.46109248669E+02  0.65881986578E+02  0.41800000000E+01 0.  1.
         -5    1    3    3    0  502  0.21692270257E+02  0.82529538587E+02  0.57917977628E+02  0.10321649026E+03  0.41800000000E+01 0.  1.
        -11    1    4    4    0    0 -0.29657596052E+02  0.34995021934E+01  0.14274140979E+03  0.14583185382E+03  0.00000000000E+00 0.  1.
         11    1    4    4    0    0  0.10764381868E+01 -0.39666942358E+02  0.40874250872E+02  0.56967792826E+02  0.00000000000E+00 0. -1.
</event>
<event>
 8    1  0.3896452E-010  0.9298573E+02  0.7561462E-02  0.1295778E+00
          1   -1    0    0  501    0  0.00000000000E+00  0.00000000000E+00  0.26496298388E+03  0.26496298388E+03  0.00000000000E+00 0. -1.
         -1   -1    0    0    0  501 -0.00000000000E+00 -0.00000000000E+00 -0.60874474277E+02  0.60874474277E+02  0.00000000000E+00 0.  1.
         25    2    1    2    0    0  0.50441081519E+02  0.43532140364E+02  0.68354976434E+02  0.15735628300E+03  0.12509695058E+03 0.  0.
         23    2    1    2    0    0 -0.50441081519E+02 -0.43532140364E+02  0.13573353317E+03  0.16848117517E+03  0.74316649602E+02 0.  0.
          5    1    3    3  502    0  0.64320109713E+02  0.49922455907E+02  0.95721634466E+02  0.12573556308E+03  0.41800000000E+01 0. -1.
         -5    1    3    3    0  502 -0.13879028195E+02 -0.63903155427E+01 -0.27366658032E+02  0.31620719919E+02  0.41800000000E+01 0. -1.
        -11    1    4    4    0    0 -0.24255766316E+02  0.12107138974E+02  0.83525290979E+02  0.87814573089E+02  0.00000000000E+00 0. -1.
         11    1    4    4    0    0 -0.26185315203E+02 -0.55639279338E+02  0.52208242194E+02  0.80666602076E+02  0.00000000000E+00 0.  1.
</event>
<event>
 8    1  0.4415062E-010  0.1149137E+03  0.7561462E-02  0.1251732E+00
          1   -1    0    0  501    0  0.00000000000E+00  0.00000000000E+00  0.32640923312E+03  0.32640923312E+03  0.00000000000E+00 0. -1.
         -1   -1    0    0    0  501 -0.00000000000E+00 -0.00000000000E+00 -0.44520184611E+02  0.44520184611E+02  0.00000000000E+00 0.  1.
         25    2    1    2    0    0 -0.64404027800E+02 -0.12262487914E+01  0.17759383524E+03  0.22657781379E+03  0.12509417614E+03 0.  0.
         23    2    1    2    0    0  0.64404027800E+02  0.12262487914E+01  0.10429521327E+03  0.14435160394E+03  0.76226711632E+02 0.  0.
          5    1    3    3  502    0 -0.45252860425E+02  0.60616297050E+02  0.92101028842E+02  0.11925698620E+03  0.41800000000E+01 0. -1.
         -5    1    3    3    0  502 -0.19151167376E+02 -0.61842545842E+02  0.85492806397E+02  0.10732082759E+03  0.41800000000E+01 0. -1.
        -11    1    4    4    0    0  0.17566959681E+02  0.29607786660E+02  0.10948936083E+02  0.36126144337E+02  0.00000000000E+00 0.  1.
         11    1    4    4    0    0  0.46837068119E+02 -0.28381537868E+02  0.93346277186E+02  0.10822545960E+03  0.00000000000E+00 0. -1.
</event>
<event>
 8    1  0.3896452E-010  0.1763425E+03  0.7561462E-02  0.1171390E+00
          2   -1    0    0  501    0  0.00000000000E+00  0.00000000000E+00  0.39730987833E+03  0.39730987833E+03  0.00000000000E+00 0. -1.
         -2   -1    0    0    0  501 -0.00000000000E+00 -0.00000000000E+00 -0.98423748555E+02  0.98423748555E+02  0.00000000000E+00 0.  1.
         25    2    1    2    0    0 -0.11585001130E+03 -0.10923028171E+03  0.14049345830E+03  0.24645048874E+03  0.12508777725E+03 0.  0.
         23    2    1    2    0    0  0.11585001130E+03  0.10923028171E+03  0.15839267147E+03  0.24928313814E+03  0.10817284791E+03 0.  0.
          5    1    3    3  502    0 -0.13537431890E+03 -0.10838559370E+03  0.14485466011E+03  0.22599554884E+03  0.41800000000E+01 0. -1.
         -5    1    3    3    0  502  0.19524307600E+02 -0.84468800283E+00 -0.43612018113E+01  0.20454939900E+02  0.41800000000E+01 0. -1.
        -11    1    4    4    0    0  0.10433654428E+03  0.99019394448E+02  0.17507409654E+03  0.22658749795E+03  0.00000000000E+00 0.  1.
         11    1    4    4    0    0  0.11513467027E+02  0.10210887258E+02 -0.16681425064E+02  0.22695640192E+02  0.00000000000E+00 0. -1.
</event>
<event>
 7    1  0.3896452E-010  0.2420873E+03  0.7561462E-02  0.1118410E+00
         -2   -1    0    0    0  501 -0.00000000000E+00  0.00000000000E+00  0.51336201868E+03  0.51336201868E+03  0.00000000000E+00 0.  1.
          2   -1    0    0  501    0  0.00000000000E+00 -0.00000000000E+00 -0.14347075821E+03  0.14347075821E+03  0.00000000000E+00 0. -1.
         25    2    1    2    0    0  0.94796764570E+02  0.22102122393E+03  0.29850971794E+03  0.40322693648E+03  0.12508837913E+03 0.  0.
          5    1    3    3  502    0  0.38498026618E+02  0.67708468979E+02  0.20308318370E+02  0.80600465383E+02  0.41800000000E+01 0.  1.
         -5    1    3    3    0  502  0.56298737952E+02  0.15331275496E+03  0.27820139957E+03  0.32262647109E+03  0.41800000000E+01 0.  1.
        -11    1    1    2    0    0 -0.40476392944E+01 -0.40977494969E+02  0.18646251457E+02  0.45202004062E+02  0.00000000000E+00 0.  1.
         11    1    1    2    0    0 -0.90749125276E+02 -0.18004372897E+03  0.52735291073E+02  0.20840383634E+03  0.00000000000E+00 0. -1.
</event>
<event>
 8    1  0.6658230E-010  0.9986917E+02  0.7561462E-02  0.1280571E+00
          2   -1    0    0  501    0  0.00000000000E+00  0.00000000000E+00  0.89352479235E+02  0.89352479235E+02  0.00000000000E+00 0.  1.
         -2   -1    0    0    0  501 -0.00000000000E+00 -0.00000000000E+00 -0.14198256617E+03  0.14198256617E+03  0.00000000000E+00 0. -1.
         25    2    1    2    0    0  0.41727241081E+02 -0.22671971691E+02 -0.28392489765E+02  0.13678049214E+03  0.12509032179E+03 0.  0.
         23    2    1    2    0    0 -0.41727241081E+02  0.22671971691E+02 -0.24237597174E+02  0.94554553273E+02  0.78089189260E+02 0.  0.
          5    1    3    3  502    0 -0.30576227839E+02 -0.47736309414E+02 -0.16772432384E+02  0.59265907851E+02  0.41800000000E+01 0. -1.
         -5    1    3    3    0  502  0.72303468920E+02  0.25064337723E+02 -0.11620057381E+02  0.77514584285E+02  0.41800000000E+01 0. -1.
        -11    1    4    4    0    0 -0.27934889614E+02 -0.10881193100E+02  0.20974077499E+02  0.36587844265E+02  0.00000000000E+00 0.  1.
         11    1    4    4    0    0 -0.13792351467E+02  0.33553164790E+02 -0.45211674673E+02  0.57966709008E+02  0.00000000000E+00 0. -1.
</event>
<event>
 8    1  0.3896452E-010  0.1275487E+03  0.7561462E-02  0.1231139E+00
         -2   -1    0    0    0  501 -0.00000000000E+00  0.00000000000E+00  0.51202078963E+02  0.51202078963E+02  0.00000000000E+00 0.  1.
          2   -1    0    0  501    0  0.00000000000E+00 -0.00000000000E+00 -0.49101490471E+03  0.49101490471E+03  0.00000000000E+00 0. -1.
         25    2    1    2    0    0 -0.96308277233E+02  0.43989674302E+02 -0.26634971753E+03  0.31273080745E+03  0.12509200691E+03 0.  0.
         23    2    1    2    0    0  0.96308277233E+02 -0.43989674302E+02 -0.17346310822E+03  0.22948617623E+03  0.10660243645E+03 0.  0.
          5    1    3    3  502    0 -0.38728860642E+02 -0.18329873509E+02 -0.20098334711E+03  0.20554242172E+03  0.41800000000E+01 0.  1.
         -5    1    3    3    0  502 -0.57579416590E+02  0.62319547811E+02 -0.65366370414E+02  0.10718838573E+03  0.41800000000E+01 0.  1.
        -11    1    4    4    0    0  0.49218565345E+02 -0.59775175579E+02 -0.40147956643E+02  0.87220394477E+02  0.00000000000E+00 0.  1.
         11    1    4    4    0    0  0.47089711888E+02  0.15785501277E+02 -0.13331515158E+03  0.14226578175E+03  0.00000000000E+00 0. -1.
</event>
<event>
 7    1  0.3896452E-010  0.4083147E+02  0.7561462E-02  0.1502180E+00
          1   -1    0    0  501    0  0.00000000000E+00  0.00000000000E+00  0.33961089522E+03  0.33961089522E+03  0.00000000000E+00 0. -1.
         -1   -1    0    0    0  501 -0.00000000000E+00 -0.00000000000E+00 -0.16522130786E+02  0.16522130786E+02  0.00000000000E+00 0.  1.
         25    2    1    2    0    0  0.30535788953E+01  0.10262117999E+01  0.25395503544E+03  0.28310963984E+03  0.12509009030E+03 0.  0.
          5    1    3    3  502    0 -0.27382466866E+02  0.35927114247E+01  0.25054013995E+03  0.25209232673E+03  0.41800000000E+01 0. -1.
         -5    1    3    3    0  502  0.30436045761E+02 -0.25664996248E+01  0.34148954930E+01  0.31017313119E+02  0.41800000000E+01 0. -1.
        -11    1    1    2    0    0  0.93931915217E+00  0.10583621218E+02  0.23944703301E+02  0.26196262610E+02  0.00000000000E+00 0.  1.
         11    1    1    2    0    0 -0.39928980474E+01 -0.11609833018E+02  0.45189025692E+02  0.46827123556E+02  0.00000000000E+00 0. -1.
</event>
<event>
 8    1  0.3896452E-010  0.1107023E+03  0.7561462E-02  0.1259275E+00
         -2   -1    0    0    0  501 -0.00000000000E+00  0.00000000000E+00  0.30770696056E+02  0.30770696056E+02  0.00000000000E+00 0.  1.
          2   -1    0    0  501    0  0.00000000000E+00 -0.00000000000E+00 -0.55573130280E+03  0.55573130280E+03  0.00000000000E+00 0. -1.
         25    2    1    2    0    0 -0.15724077425E+01  0.69302394449E+02 -0.40702358338E+03  0.43141701631E+03  0.12508856939E+03 0.  0.
         23    2    1    2    0    0  0.15724077425E+01 -0.69302394449E+02 -0.11793702336E+03  0.15508498254E+03  0.73054198978E+02 0.  0.
          5    1    3    3  502    0 -0.50387002507E+02  0.20367710631E+02 -0.77829617875E+02  0.95019026919E+02  0.41800000000E+01 0.  1.
         -5    1    3    3    0  502  0.48814594765E+02  0.48934683818E+02 -0.32919396550E+03  0.33639798939E+03  0.41800000000E+01 0.  1.
        -11    1    4    4    0    0 -0.28153259554E+02 -0.60370175699E+02 -0.96906066552E+02  0.11759230363E+03  0.00000000000E+00 0.  1.
         11    1    4    4    0    0  0.29725667297E+02 -0.89322187495E+01 -0.21030956812E+02  0.37492678918E+02  0.00000000000E+00 0. -1.
</event>
<event>
 8    1  0.3896452E-010  0.1075415E+03  0.7561462E-02  0.1265192E+00
         -2   -1    0    0    0  501 -0.00000000000E+00  0.00000000000E+00  0.31564274632E+02  0.31564274632E+02  0.00000000000E+00 0.  1.
          2   -1    0    0  501    0  0.00000000000E+00 -0.00000000000E+00 -0.37382192499E+03  0.37382192499E+03  0.00000000000E+00 0. -1.
         25    2    1    2    0    0  0.40931812631E+02 -0.29150931250E+00 -0.20797408451E+03  0.24612315192E+03  0.12509151777E+03 0.  0.
         23    2    1    2    0    0 -0.40931812631E+02  0.29150931250E+00 -0.13428356584E+03  0.15926304770E+03  0.75213988361E+02 0.  0.
          5    1    3    3  502    0  0.76776503161E+02  0.31540020122E+02 -0.12241624309E+03  0.14796152635E+03  0.41800000000E+01 0. -1.
         -5    1    3    3    0  502 -0.35844690530E+02 -0.31831529435E+02 -0.85557841425E+02  0.98161625570E+02  0.41800000000E+01 0. -1.
        -11    1    4    4    0    0  0.87640722518E+01 -0.26138061592E+02 -0.29892113725E+02  0.40663813019E+02  0.00000000000E+00 0.  1.
         11    1    4    4    0    0 -0.49695884883E+02  0.26429570905E+02 -0.10439145212E+03  0.11859923468E+03  0.00000000000E+00 0. -1.
</event>
<event>
 8    1  0.3896452E-010  0.1208160E+03  0.7561462E-02  0.1241757E+00
         -2   -1    0    0    0  501 -0.00000000000E+00  0.00000000000E+00  0.81658991679E+02  0.81658991679E+02  0.00000000000E+00 0.  1.
          2   -1    0    0  501    0  0.00000000000E+00 -0.00000000000E+00 -0.21831971993E+03  0.21831971993E+03  0.00000000000E+00 0. -1.
         25    2    1    2    0    0  0.43333527485E+02  0.14273553557E+02 -0.23466219612E+02  0.13520212433E+03  0.12508965594E+03 0.  0.
         23    2    1    2    0    0 -0.43333527485E+02 -0.14273553557E+02 -0.11319450864E+03  0.16477658728E+03  0.11071042406E+03 0.  0.
          5    1    3    3  502    0 -0.16742529547E+02  0.54969959987E+02  0.33941341539E+01  0.57714827759E+02  0.41800000000E+01 0. -1.
         -5    1    3    3    0  502  0.60076057031E+02 -0.40696406431E+02 -0.26860353766E+02  0.77487296567E+02  0.41800000000E+01 0. -1.
        -11    1    4    4    0    0 -0.28516044908E+02  0.43321073786E+02 -0.22987091760E+02  0.56729944815E+02  0.00000000000E+00 0.  1.
         11    1    4    4    0    0 -0.14817482577E+02 -0.57594627342E+02 -0.90207416878E+02  0.10804664247E+03  0.00000000000E+00 0. -1.
</event>
<event>
 7    1  0.3896452E-010  0.1073630E+03  0.7561462E-02  0.1265533E+00
          1   -1    0    0  501    0  0.00000000000E+00  0.00000000000E+00  0.65107710997E+02  0.65107710997E+02  0.00000000000E+00 0. -1.
         -1   -1    0    0    0  501 -0.00000000000E+00 -0.00000000000E+00 -0.20405306385E+03  0.20405306385E+03  0.00000000000E+00 0.  1.
         25    2    1    2    0    0  0.78767010076E+01 -0.70962439598E+02 -0.66086900235E+02  0.15847418349E+03  0.12509547633E+03 0.  0.
          5    1    3    3  502    0  0.19902509908E+02 -0.10474994841E+03 -0.58087894965E+02  0.12149212951E+03  0.41800000000E+01 0. -1.
         -5    1    3    3    0  502 -0.12025808900E+02  0.33787508810E+02 -0.79990052705E+01  0.36982053980E+02  0.41800000000E+01 0. -1.
        -11    1    1    2    0    0 -0.94343958749E+01  0.49263257905E+02 -0.20864847628E+02  0.54325116396E+02  0.00000000000E+00 0. -1.
         11    1    1    2    0    0  0.15576948673E+01  0.21699181693E+02 -0.51993604988E+02  0.56361474955E+02  0.00000000000E+00 0.  1.
</event>
<event>
 8    1  0.3896452E-010  0.1144428E+03  0.7561462E-02  0.1252557E+00
         -1   -1    0    0    0  501 -0.00000000000E+00  0.00000000000E+00  0.10679207104E+03  0.10679207104E+03  0.00000000000E+00 0.  1.
          1   -1    0    0  501    0  0.00000000000E+00 -0.00000000000E+00 -0.24861523803E+03  0.24861523803E+03  0.00000000000E+00 0. -1.
         25    2    1    2    0    0 -0.54090880270E+02 -0.93501938753E+02 -0.64669343186E+01  0.16540153293E+03  0.12508960778E+03 0.  0.
         23    2    1    2    0    0  0.54090880270E+02  0.93501938753E+02 -0.13535623267E+03  0.19000577614E+03  0.78182155021E+02 0.  0.
          5    1    3    3  502    0 -0.60286382535E+02 -0.73992338812E+02  0.48108694361E+02  0.10696369943E+03  0.41800000000E+01 0.  1.
         -5    1    3    3    0  502  0.61955022650E+01 -0.19509599942E+02 -0.54575628680E+02  0.58437833498E+02  0.41800000000E+01 0.  1.
        -11    1    4    4    0    0  0.38100064601E+02  0.34740203806E+02 -0.12758247628E+02  0.53115624496E+02  0.00000000000E+00 0.  1.
         11    1    4    4    0    0  0.15990815669E+02  0.58761734948E+02 -0.12259798504E+03  0.13689015164E+03  0.00000000000E+00 0. -1.
</event>
<event>
 8    1  0.3896452E-010  0.1267666E+03  0.7561462E-02  0.1232334E+00
          1   -1    0    0  501    0  0.00000000000E+00  0.00000000000E+00  0.20240219968E+03  0.20240219968E+03  0.00000000000E+00 0. -1.
         -1   -1    0    0    0  501 -0.00000000000E+00 -0.00000000000E+00 -0.92207397297E+02  0.92207397297E+02  0.00000000000E+00 0.  1.
         25    2    1    2    0    0  0.52322835152E+02  0.52147238388E+02  0.53575862087E+02  0.15484088408E+03  0.12509321657E+03 0.  0.
         23    2    1    2    0    0 -0.52322835152E+02 -0.52147238388E+02  0.56618940301E+02  0.13976871291E+03  0.10427164119E+03 0.  0.
          5    1    3    3  502    0  0.81126953206E+02  0.94816933333E+01  0.19411237700E+01  0.81809078998E+02  0.41800000000E+01 0. -1.
         -5    1    3    3    0  502 -0.28804118055E+02  0.42665545055E+02  0.51634738317E+02  0.73031805077E+02  0.41800000000E+01 0. -1.
        -11    1    4    4    0    0 -0.20093466945E+02  0.27568916165E+02  0.39328398252E+02  0.52062610974E+02  0.00000000000E+00 0. -1.
         11    1    4    4    0    0 -0.32229368207E+02 -0.79716154553E+02  0.17290542049E+02  0.87706101932E+02  0.00000000000E+00 0.  1.
</event>
<event>
 8    1  0.3896452E-010  0.1482839E+03  0.7561462E-02  0.1202598E+00
         -2   -1    0    0    0  501 -0.00000000000E+00  0.00000000000E+00  0.53093252944E+02  0.53093252944E+02  0.00000000000E+00 0.  1.
          2   -1    0    0  501    0  0.00000000000E+00 -0.00000000000E+00 -0.70070161145E+03  0.70070161145E+03  0.00000000000E+00 0. -1.
         25    2    1    2    0    0  0.10931734233E+03  0.78882526486E+02 -0.21199682402E+03  0.28064419627E+03  0.12508308113E+03 0.  0.
         23    2    1    2    0    0 -0.10931734233E+03 -0.78882526486E+02 -0.43561153449E+03  0.47315066813E+03  0.12625930243E+03 0.  0.
          5    1    3    3  502    0  0.36450908146E+02  0.30801558720E+02 -0.18206336969E+03  0.18826031899E+03  0.41800000000E+01 0. -1.
         -5    1    3    3    0  502  0.72866434188E+02  0.48080967766E+02 -0.29933454331E+02  0.92383877277E+02  0.41800000000E+01 0. -1.
        -11    1    4    4    0    0 -0.71341953431E+02  0.25748305941E+01 -0.31353065383E+03  0.32155524403E+03  0.00000000000E+00 0. -1.
         11    1    4    4    0    0 -0.37975388903E+02 -0.81457357080E+02 -0.12208088065E+03  0.15159542409E+03  0.00000000000E+00 0.  1.
</event>
<event>
 8    1  0.3896452E-010  0.1441113E+03  0.7561462E-02  0.1207902E+00
         -2   -1    0    0    0  501 -0.00000000000E+00  0.00000000000E+00  0.38255800740E+02  0.38255800740E+02  0.00000000000E+00 0. -1.
          2   -1    0    0  501    0  0.00000000000E+00 -0.00000000000E+00 -0.64957629387E+03  0.64957629387E+03  0.00000000000E+00 0.  1.
         25    2    1    2    0    0  0.98203931476E+01 -0.11874952208E+03 -0.29954691251E+03  0.34579496070E+03  0.12509161818E+03 0.  0.
         23    2    1    2    0    0 -0.98203931476E+01  0.11874952208E+03 -0.31177358063E+03  0.34203713391E+03  0.74757917851E+02 0.  0.
          5    1    3    3  502    0  0.37330259533E+02 -0.11310828939E+03 -0.29348732622E+03  0.31676381810E+03  0.41800000000E+01 0.  1.
         -5    1    3    3    0  502 -0.27509866385E+02 -0.56412326890E+01 -0.60595862878E+01  0.29031142602E+02  0.41800000000E+01 0.  1.
        -11    1    4    4    0    0 -0.41972241450E+02  0.79603571953E+02 -0.19693978660E+03  0.21652638930E+03  0.00000000000E+00 0. -1.
         11    1    4    4    0    0  0.32151848303E+02  0.39145950128E+02 -0.11483379403E+03  0.12551074461E+03  0.00000000000E+00 0.  1.
</event>
<event>
 8    1  0.3896452E-010  0.6484541E+02  0.7561462E-02  0.1378554E+00
         -2   -1    0    0    0  501 -0.00000000000E+00  0.00000000000E+00  0.22451510489E+03  0.22451510489E+03  0.00000000000E+00 0.  1.
          2   -1    0    0  501    0  0.00000000000E+00 -0.00000000000E+00 -0.75500784500E+02  0.75500784500E+02  0.00000000000E+00 0. -1.
         25    2    1    2    0    0  0.14213270115E+02  0.11891588857E+01  0.18694867426E+02  0.12728035805E+03  0.12508940935E+03 0.  0.
         23    2    1    2    0    0 -0.14213270115E+02 -0.11891588857E+01  0.13031945296E+03  0.17273553133E+03  0.11247654342E+03 0.  0.
          5    1    3    3  502    0 -0.64458615539E+01  0.96124333394E+01  0.70055257152E+02  0.71127768561E+02  0.41800000000E+01 0. -1.
         -5    1    3    3    0  502  0.20659131669E+02 -0.84232744537E+01 -0.51360389726E+02  0.56152589492E+02  0.41800000000E+01 0. -1.
        -11    1    4    4    0    0 -0.13292914596E+02 -0.47011854235E+02  0.11409808388E+03  0.12411764082E+03  0.00000000000E+00 0.  1.
         11    1    4    4    0    0 -0.92035551840E+00  0.45822695349E+02  0.16221369080E+02  0.48617890516E+02  0.00000000000E+00 0. -1.
</event>
<event>
 8    1  0.3896452E-010  0.1086381E+03  0.7561462E-02  0.1263113E+00
         -2   -1    0    0    0  501 -0.00000000000E+00  0.00000000000E+00  0.53072999069E+02  0.53072999069E+02  0.00000000000E+00 0.  1.
          2   -1    0    0  501    0  0.00000000000E+00 -0.00000000000E+00 -0.32318353091E+03  0.32318353091E+03  0.00000000000E+00 0. -1.
         25    2    1    2    0    0  0.66847441408E+02 -0.19909264016E+02 -0.21449414185E+03  0.25791558296E+03  0.12509097421E+03 0.  0.
         23    2    1    2    0    0 -0.66847441408E+02  0.19909264016E+02 -0.55616389995E+02  0.11834094702E+03  0.77758843160E+02 0.  0.
          5    1    3    3  502    0 -0.13014147532E+02 -0.41688245856E+02 -0.13915909029E+03  0.14591094095E+03  0.41800000000E+01 0. -1.
         -5    1    3    3    0  502  0.79861588940E+02  0.21778981840E+02 -0.75335051558E+02  0.11200464201E+03  0.41800000000E+01 0. -1.
        -11    1    4    4    0    0 -0.66412616292E+02  0.35240476579E+02 -0.17412485871E+02  0.77173320885E+02  0.00000000000E+00 0.  1.
         11    1    4    4    0    0 -0.43482511642E+00 -0.15331212563E+02 -0.38203904123E+02  0.41167626137E+02  0.00000000000E+00 0. -1.
</event>
<event>
 8    1  0.3896452E-010  0.9443914E+02  0.7561462E-02  0.1292444E+00
          1   -1    0    0  501    0  0.00000000000E+00  0.00000000000E+00  0.23535497746E+03  0.23535497746E+03  0.00000000000E+00 0. -1.
         -1   -1    0    0    0  501 -0.00000000000E+00 -0.00000000000E+00 -0.68655701337E+02  0.68655701337E+02  0.00000000000E+00 0.  1.
         25    2    1    2    0    0 -0.18305742755E+02 -0.13374382254E+02  0.41051461476E+02  0.13358777852E+03  0.12508596149E+03 0.  0.
         23    2    1    2    0    0  0.18305742755E+02  0.13374382254E+02  0.12564781465E+03  0.17042290028E+03  0.11288320201E+03 0.  0.
          5    1    3    3  502    0  0.35680179963E+02  0.91616204832E+01 -0.25411712869E+02  0.44947058669E+02  0.41800000000E+01 0.  1.
         -5    1    3    3    0  502 -0.53985922718E+02 -0.22536002737E+02  0.66463174345E+02  0.88640719847E+02  0.41800000000E+01 0.  1.
        -11    1    4    4    0    0 -0.33192658508E+02 -0.12565869506E+02  0.38937525761E+01  0.35704551032E+02  0.00000000000E+00 0.  1.
         11    1    4    4    0    0  0.51498401263E+02  0.25940251760E+02  0.12175406207E+03  0.13471834925E+03  0.00000000000E+00 0. -1.
</event>
<event>
 8    1  0.3896452E-010  0.9963462E+02  0.7561462E-02  0.1281066E+00
          1   -1    0    0  501    0  0.00000000000E+00  0.00000000000E+00  0.53901219941E+03  0.53901219941E+03  0.00000000000E+00 0. -1.
         -1   -1    0    0    0  501 -0.00000000000E+00 -0.00000000000E+00 -0.36764261569E+02  0.36764261569E+02  0.00000000000E+00 0.  1.
         25    2    1    2    0    0 -0.13626664147E+02 -0.12346893422E+02  0.87262898870E+02  0.15363062286E+03  0.12509765389E+03 0.  0.
         23    2    1    2    0    0  0.13626664147E+02  0.12346893422E+02  0.41498503897E+03  0.42214583811E+03  0.75209004230E+02 0.  0.
          5    1    3    3  502    0  0.44511384406E+02  0.26559350952E+02  0.57402025085E+02  0.77454033779E+02  0.41800000000E+01 0.  1.
         -5    1    3    3    0  502 -0.58138048553E+02 -0.38906244375E+02  0.29860873785E+02  0.76176589081E+02  0.41800000000E+01 0.  1.
        -11    1    4    4    0    0  0.24060858366E+02  0.40530805706E+02  0.23705580898E+03  0.24169635432E+03  0.00000000000E+00 0.  1.
         11    1    4    4    0    0 -0.10434194219E+02 -0.28183912283E+02  0.17792922998E+03  0.18044948380E+03  0.00000000000E+00 0. -1.
</event>
<event>
 8    1  0.3896452E-010  0.1115656E+03  0.7561462E-02  0.1257698E+00
          3   -1    0    0  501    0  0.00000000000E+00  0.00000000000E+00  0.19906642491E+03  0.19906642491E+03  0.00000000000E+00 0. -1.
         -3   -1    0    0    0  501 -0.00000000000E+00 -0.00000000000E+00 -0.18068534467E+03  0.18068534467E+03  0.00000000000E+00 0.  1.
         25    2    1    2    0    0  0.37489418649E+01 -0.10055304050E+03 -0.10160830439E+03  0.18999873954E+03  0.12510117900E+03 0.  0.
         23    2    1    2    0    0 -0.37489418649E+01  0.10055304050E+03  0.11998938463E+03  0.18975303004E+03  0.10716245362E+03 0.  0.
          5    1    3    3  502    0  0.25876121024E+02 -0.74191675884E+02  0.40577017005E+01  0.78790327788E+02  0.41800000000E+01 0.  1.
         -5    1    3    3    0  502 -0.22127179160E+02 -0.26361364617E+02 -0.10566600609E+03  0.11120841175E+03  0.41800000000E+01 0.  1.
        -11    1    4    4    0    0  0.13296151458E+02  0.86969219706E+02  0.23823625490E+02  0.91148219683E+02  0.00000000000E+00 0.  1.
         11    1    4    4    0    0 -0.17045093323E+02  0.13583820795E+02  0.96165759142E+02  0.98604810355E+02  0.00000000000E+00 0. -1.
</event>
<event>
 8    1  0.3896452E-010  0.8935911E+02  0.7561462E-02  0.1304411E+00
         -1   -1    0    0    0  501 -0.00000000000E+00  0.00000000000E+00  0.47485765870E+02  0.47485765870E+02  0.00000000000E+00 0.  1.
          1   -1    0    0  501    0  0.00000000000E+00 -0.00000000000E+00 -0.34410136588E+03  0.34410136588E+03  0.00000000000E+00 0. -1.
         25    2    1    2    0    0  0.28557071918E+02 -0.18327634514E+02 -0.13160691867E+03  0.18471162370E+03  0.12508634754E+03 0.  0.
         23    2    1    2    0    0 -0.28557071918E+02  0.18327634514E+02 -0.16500868134E+03  0.20687550805E+03  0.12007581927E+03 0.  0.
          5    1    3    3  502    0  0.62709932544E+02 -0.11331421289E+02 -0.13509287467E+03  0.14942721953E+03  0.41800000000E+01 0. -1.
         -5    1    3    3    0  502 -0.34152860626E+02 -0.69962132245E+01  0.34859559978E+01  0.35284404170E+02  0.41800000000E+01 0. -1.
        -11    1    4    4    0    0 -0.31165237141E+01 -0.27313869359E+02  0.59345974348E+01  0.28124360013E+02  0.00000000000E+00 0.  1.
         11    1    4    4    0    0 -0.25440548204E+02  0.45641503873E+02 -0.17094327877E+03  0.17875114804E+03  0.00000000000E+00 0. -1.
</event>
<event>
 8    1  0.3896452E-010  0.1876645E+03  0.7561462E-02  0.1160585E+00
         -1   -1    0    0    0  501 -0.00000000000E+00  0.00000000000E+00  0.41274293291E+02  0.41274293291E+02  0.00000000000E+00 0.  1.
          1   -1    0    0  501    0  0.00000000000E+00 -0.00000000000E+00 -0.86231318228E+03  0.86231318228E+03  0.00000000000E+00 0. -1.
         25    2    1    2    0    0 -0.38855571545E+02  0.13469409333E+03 -0.39308283407E+03  0.43567477382E+03  0.12508453094E+03 0.  0.
         23    2    1    2    0    0  0.38855571545E+02 -0.13469409333E+03 -0.42795605492E+03  0.46791270176E+03  0.12705769283E+03 0.  0.
          5    1    3    3  502    0 -0.57419904147E+02  0.67243876514E+01 -0.10680279014E+03  0.12151778127E+03  0.41800000000E+01 0.  1.
         -5    1    3    3    0  502  0.18564332603E+02  0.12796970567E+03 -0.28628004393E+03  0.31415699255E+03  0.41800000000E+01 0.  1.
        -11    1    4    4    0    0  0.58174998102E+02 -0.67166642901E+01 -0.15882861680E+03  0.16928075347E+03  0.00000000000E+00 0.  1.
         11    1    4    4    0    0 -0.19319426557E+02 -0.12797742904E+03 -0.26912743812E+03  0.29863194828E+03  0.00000000000E+00 0. -1.
</event>
<event>
 8    1  0.3896452E-010  0.6906898E+02  0.7561462E-02  0.1363288E+00
          2   -1    0    0  501    0  0.00000000000E+00  0.00000000000E+00  0.41186069872E+03  0.41186069872E+03  0.00000000000E+00 0. -1.
         -2   -1    0    0    0  501 -0.00000000000E+00 -0.00000000000E+00 -0.21565108985E+02  0.21565108985E+02  0.00000000000E+00 0.  1.
         25    2    1    2    0    0 -0.22398137001E+02  0.68442242233E+01  0.23631479706E+03  0.26840396210E+03  0.12508990213E+03 0.  0.
         23    2    1    2    0    0  0.22398137001E+02 -0.68442242233E+01  0.15398079268E+03  0.16502184561E+03  0.54530771755E+02 0.  0.
          5    1    3    3  502    0 -0.50578792847E+02  0.15320539061E+01  0.23387312563E+03  0.23932127521E+03  0.41800000000E+01 0. -1.
         -5    1    3    3    0  502  0.28180655846E+02  0.53121703172E+01  0.24416714289E+01  0.29082686891E+02  0.41800000000E+01 0. -1.
        -11    1    4    4    0    0 -0.40550036577E+01 -0.25623541052E+02  0.83417882184E+02  0.87358754449E+02  0.00000000000E+00 0. -1.
         11    1    4    4    0    0  0.26453140659E+02  0.18779316829E+02  0.70562910495E+02  0.77663091161E+02  0.00000000000E+00 0.  1.
</event>
<event>
 8    1  0.3896452E-010  0.8611448E+02  0.7561462E-02  0.1312544E+00
          1   -1    0    0  501    0  0.00000000000E+00  0.00000000000E+00  0.66540594345E+02  0.66540594345E+02  0.00000000000E+00 0. -1.
         -1   -1    0    0    0  501 -0.00000000000E+00 -0.00000000000E+00 -0.14622155774E+03  0.14622155774E+03  0.00000000000E+00 0.  1.
         25    2    1    2    0    0 -0.12187116217E+02 -0.16352324929E+02 -0.76357658454E+02  0.14796532022E+03  0.12508924674E+03 0.  0.
         23    2    1    2    0    0  0.12187116217E+02  0.16352324929E+02 -0.33233049383E+01  0.64796831866E+02  0.61413848047E+02 0.  0.
          5    1    3    3  502    0 -0.11144662465E+02 -0.67343416793E+02 -0.67392209270E+02  0.96013132212E+02  0.41800000000E+01 0. -1.
         -5    1    3    3    0  502 -0.10424537520E+01  0.50991091865E+02 -0.89654491835E+01  0.51952188004E+02  0.41800000000E+01 0. -1.
        -11    1    4    4    0    0 -0.41777894305E+01  0.30652808456E+02 -0.20486114883E+02  0.37104305596E+02  0.00000000000E+00 0.  1.
         11    1    4    4    0    0  0.16364905648E+02 -0.14300483528E+02  0.17162809945E+02  0.27692526270E+02  0.00000000000E+00 0. -1.
</event>
<event>
 8    1  0.4693647E-010  0.2050607E+03  0.7561462E-02  0.1145538E+00
         -1   -1    0    0    0  501 -0.00000000000E+00  0.00000000000E+00  0.80113002394E+02  0.80113002394E+02  0.00000000000E+00 0.  1.
          1   -1    0    0  501    0  0.00000000000E+00 -0.00000000000E+00 -0.67231624680E+03  0.67231624680E+03  0.00000000000E+00 0. -1.
         25    2    1    2    0    0 -0.16626336176E+03 -0.10847692935E+03 -0.35907460456E+03  0.42894444612E+03  0.12509203232E+03 0.  0.
         23    2    1    2    0    0  0.16626336176E+03  0.10847692935E+03 -0.23312863985E+03  0.32348480308E+03  0.10432020627E+03 0.  0.
          5    1    3    3  502    0 -0.87314910074E+02 -0.51842166247E+02 -0.68586722607E+02  0.12260960256E+03  0.41800000000E+01 0.  1.
         -5    1    3    3    0  502 -0.78948451689E+02 -0.56634763106E+02 -0.29048788195E+03  0.30633484355E+03  0.41800000000E+01 0.  1.
        -11    1    4    4    0    0  0.76067738706E+02  0.84251334281E+01 -0.14054046473E+03  0.16002782874E+03  0.00000000000E+00 0. -1.
         11    1    4    4    0    0  0.90195623058E+02  0.10005179593E+03 -0.92588175116E+02  0.16345697433E+03  0.00000000000E+00 0.  1.
</event>
<event>
 8    1  0.3896452E-010  0.9129371E+02  0.7561462E-02  0.1299749E+00
          2   -1    0    0  501    0  0.00000000000E+00  0.00000000000E+00  0.28733973544E+03  0.28733973544E+03  0.00000000000E+00 0. -1.
         -2   -1    0    0    0  501 -0.00000000000E+00 -0.00000000000E+00 -0.37688343279E+02  0.37688343279E+02  0.00000000000E+00 0.  1.
         25    2    1    2    0    0 -0.12626171494E+02  0.11166444211E+01  0.19554961197E+03  0.23248579269E+03  0.12509726599E+03 0.  0.
         23    2    1    2    0    0  0.12626171494E+02 -0.11166444211E+01  0.54101780189E+02  0.92542286032E+02  0.74002736322E+02 0.  0.
          5    1    3    3  502    0 -0.41145157999E+02  0.45723601434E+02  0.15122704269E+03  0.16331155071E+03  0.41800000000E+01 0.  1.
         -5    1    3    3    0  502  0.28518986505E+02 -0.44606957013E+02  0.44322569281E+02  0.69174241975E+02  0.41800000000E+01 0.  1.
        -11    1    4    4    0    0  0.36540598289E+02  0.14446807379E+02  0.10914209223E+02  0.40780455241E+02  0.00000000000E+00 0.  1.
         11    1    4    4    0    0 -0.23914426794E+02 -0.15563451800E+02  0.43187570967E+02  0.51761830791E+02  0.00000000000E+00 0. -1.
</event>
<event>
 8    1  0.3896452E-010  0.2653566E+03  0.7561462E-02  0.1103967E+00
          1   -1    0    0  501    0  0.00000000000E+00  0.00000000000E+00  0.11091684877E+04  0.11091684877E+04  0.00000000000E+00 0. -1.
         -1   -1    0    0    0  501 -0.00000000000E+00 -0.00000000000E+00 -0.77586326033E+02  0.77586326033E+02  0.00000000000E+00 0.  1.
         25    2    1    2    0    0  0.12826805497E+03 -0.22200518110E+03  0.67880798527E+03  0.73631996290E+03  0.12509121684E+03 0.  0.
         23    2    1    2    0    0 -0.12826805497E+03  0.22200518110E+03  0.35277417644E+03  0.45043485088E+03  0.11270732435E+03 0.  0.
          5    1    3    3  502    0  0.67356852995E+00 -0.56024645927E+02  0.56305389154E+02  0.79542340257E+02  0.41800000000E+01 0. -1.
         -5    1    3    3    0  502  0.12759448644E+03 -0.16598053518E+03  0.62250259612E+03  0.65677762264E+03  0.41800000000E+01 0. -1.
        -11    1    4    4    0    0 -0.49697127714E+02  0.30939420455E+02  0.14973626511E+03  0.16077313622E+03  0.00000000000E+00 0. -1.
         11    1    4    4    0    0 -0.78570927251E+02  0.19106576065E+03  0.20303791133E+03  0.28966171466E+03  0.00000000000E+00 0.  1.
</event>
<event>
 8    1  0.3896452E-010  0.1037629E+03  0.7561462E-02  0.1272576E+00
         -1   -1    0    0    0  501 -0.00000000000E+00  0.00000000000E+00  0.28968152425E+03  0.28968152425E+03  0.00000000000E+00 0.  1.
          1   -1    0    0  501    0  0.00000000000E+00 -0.00000000000E+00 -0.68347492574E+02  0.68347492574E+02  0.00000000000E+00 0. -1.
         25    2    1    2    0    0 -0.29053318198E+02 -0.50384354406E+02  0.14009497824E+03  0.19661200909E+03  0.12508797194E+03 0.  0.
         23    2    1    2    0    0  0.29053318198E+02  0.50384354406E+02  0.81239053437E+02  0.16141700773E+03  0.12677928898E+03 0.  0.
          5    1    3    3  502    0 -0.50314545584E+02 -0.44638908092E+02  0.14373464449E+02  0.68907579359E+02  0.41800000000E+01 0.  1.
         -5    1    3    3    0  502  0.21261227386E+02 -0.57454463139E+01  0.12572151379E+03  0.12770442973E+03  0.41800000000E+01 0.  1.
        -11    1    4    4    0    0  0.36556413468E+02  0.79578828389E+02  0.94188116452E+02  0.12861011848E+03  0.00000000000E+00 0.  1.
         11    1    4    4    0    0 -0.75030952704E+01 -0.29194473983E+02 -0.12949063015E+02  0.32806889257E+02  0.00000000000E+00 0. -1.
</event>
<event>
 8    1  0.3896452E-010  0.1254135E+03  0.7561462E-02  0.1234424E+00
          1   -1    0    0  501    0  0.00000000000E+00  0.00000000000E+00  0.39516357176E+03  0.39516357176E+03  0.00000000000E+00 0. -1.
         -1   -1    0    0    0  501 -0.00000000000E+00 -0.00000000000E+00 -0.55571040324E+02  0.55571040324E+02  0.00000000000E+00 0.  1.
         25    2    1    2    0    0  0.18465079576E+02  0.69415186713E+02  0.26557102042E+03  0.30221698072E+03  0.12509080397E+03 0.  0.
         23    2    1    2    0    0 -0.18465079576E+02 -0.69415186713E+02  0.74021511015E+02  0.14851763136E+03  0.10685913823E+03 0.  0.
          5    1    3    3  502    0  0.63519814552E+02  0.35936364871E+02  0.21301192052E+03  0.22520599424E+03  0.41800000000E+01 0.  1.
         -5    1    3    3    0  502 -0.45054734976E+02  0.33478821842E+02  0.52559099907E+02  0.77010986481E+02  0.41800000000E+01 0.  1.
        -11    1    4    4    0    0 -0.58568792431E+02 -0.49392140632E+02  0.21716797791E+02  0.79633575264E+02  0.00000000000E+00 0.  1.
         11    1    4    4    0    0  0.40103712855E+02 -0.20023046080E+02  0.52304713224E+02  0.68884056099E+02  0.00000000000E+00 0. -1.
</event>
<event>
 8    1  0.3896452E-010  0.9476488E+02  0.7561462E-02  0.1291707E+00
         -3   -1    0    0    0  501 -0.00000000000E+00  0.00000000000E+00  0.85173426099E+02  0.85173426099E+02  0.00000000000E+00 0.  1.
          3   -1    0    0  501    0  0.00000000000E+00 -0.00000000000E+00 -0.23157212238E+03  0.23157212238E+03  0.00000000000E+00 0. -1.
         25    2    1    2    0    0  0.56779630718E+02  0.22740782279E+02 -0.17090457642E+03  0.22045064290E+03  0.12509613132E+03 0.  0.
         23    2    1    2    0    0 -0.56779630718E+02 -0.22740782279E+02  0.24505880136E+02  0.96294905579E+02  0.70221798867E+02 0.  0.
          5    1    3    3  502    0 -0.20560271305E+02  0.25419061980E+01 -0.12780637750E+03  0.12954199540E+03  0.41800000000E+01 0. -1.
         -5    1    3    3    0  502  0.77339902024E+02  0.20198876081E+02 -0.43098198920E+02  0.90908647499E+02  0.41800000000E+01 0. -1.
        -11    1    4    4    0    0 -0.70282069903E+02 -0.25130542245E+02  0.31365692487E+02  0.80962461478E+02  0.00000000000E+00 0.  1.
         11    1    4    4    0    0  0.13502439185E+02  0.23897599653E+01 -0.68598123506E+01  0.15332444101E+02  0.00000000000E+00 0. -1.
</event>
<event>
 7    1  0.3896452E-010  0.1536341E+03  0.7561462E-02  0.1196077E+00
         -2   -1    0    0    0  501 -0.00000000000E+00  0.00000000000E+00  0.24370689222E+02  0.24370689222E+02  0.00000000000E+00 0.  1.
          2   -1    0    0  501    0  0.00000000000E+00 -0.00000000000E+00 -0.12882199978E+04  0.12882199978E+04  0.00000000000E+00 0. -1.
         25    2    1    2    0    0 -0.52555692724E+02  0.12500982070E+03 -0.95051959965E+03  0.96825829605E+03  0.12508821861E+03 0.  0.
          5    1    3    3  502    0  0.20011434303E+02  0.21502721828E+00 -0.28949976995E+02  0.35441180956E+02  0.41800000000E+01 0.  1.
         -5    1    3    3    0  502 -0.72567127027E+02  0.12479479349E+03 -0.92156962266E+03  0.93281711509E+03  0.41800000000E+01 0.  1.
        -11    1    1    2    0    0  0.53413438985E+02 -0.73353029667E+02 -0.21161401596E+03  0.23024802752E+03  0.00000000000E+00 0. -1.
         11    1    1    2    0    0 -0.85774626133E+00 -0.51656791037E+02 -0.10171569295E+03  0.11408436344E+03  0.00000000000E+00 0.  1.
</event>
<event>
 8    1  0.3896452E-010  0.1352790E+03  0.7561462E-02  0.1219826E+00
          2   -1    0    0  501    0  0.00000000000E+00  0.00000000000E+00  0.19240445057E+03  0.19240445057E+03  0.00000000000E+00 0. -1.
         -2   -1    0    0    0  501 -0.00000000000E+00 -0.00000000000E+00 -0.15356103930E+03  0.15356103930E+03  0.00000000000E+00 0.  1.
         25    2    1    2    0    0 -0.10326160588E+03 -0.69482547805E+02  0.16284673442E+02  0.17720981359E+03  0.12508934305E+03 0.  0.
         23    2    1    2    0    0  0.10326160588E+03  0.69482547805E+02  0.22558737831E+02  0.16875567627E+03  0.11170854007E+03 0.  0.
          5    1    3    3  502    0 -0.11213281557E+03 -0.47817354563E+02  0.53382139560E+02  0.13314425616E+03  0.41800000000E+01 0. -1.
         -5    1    3    3    0  502  0.88712096853E+01 -0.21665193242E+02 -0.37097466118E+02  0.44065557433E+02  0.41800000000E+01 0. -1.
        -11    1    4    4    0    0  0.73038433618E+02  0.43983203656E+02  0.67609171132E+02  0.10881238445E+03  0.00000000000E+00 0. -1.
         11    1    4    4    0    0  0.30223172263E+02  0.25499344149E+02 -0.45050433301E+02  0.59943291821E+02  0.00000000000E+00 0.  1.
</event>
<event>
 8    1  0.3896452E-010  0.2219852E+03  0.7561462E-02  0.1132412E+00
         -2   -1    0    0    0  501 -0.00000000000E+00  0.00000000000E+00  0.10097768815E+03  0.10097768815E+03  0.00000000000E+00 0.  1.
          2   -1    0    0  501    0  0.00000000000E+00 -0.00000000000E+00 -0.57520377406E+03  0.57520377406E+03  0.00000000000E+00 0. -1.
         25    2    1    2    0    0  0.12076643878E+03  0.17956175215E+03 -0.28054768039E+03  0.37574077309E+03  0.12508865667E+03 0.  0.
         23    2    1    2    0    0 -0.12076643878E+03 -0.17956175215E+03 -0.19367840553E+03  0.30044068912E+03  0.76982643117E+02 0.  0.
          5    1    3    3  502    0  0.14164429142E+02  0.58231059051E+02 -0.16913590516E+03  0.17948792190E+03  0.41800000000E+01 0.  1.
         -5    1    3    3    0  502  0.10660200963E+03  0.12133069310E+03 -0.11141177522E+03  0.19625285120E+03  0.41800000000E+01 0.  1.
        -11    1    4    4    0    0 -0.30112984383E+02 -0.13208615673E+02 -0.53596646810E+01  0.33316442816E+02  0.00000000000E+00 0.  1.
         11    1    4    4    0    0 -0.90653454393E+02 -0.16635313647E+03 -0.18831874085E+03  0.26712424630E+03  0.00000000000E+00 0. -1.
</event>
<event>
 8    1  0.3896452E-010  0.4901719E+02  0.7561462E-02  0.1450716E+00
          3   -1    0    0  501    0  0.00000000000E+00  0.00000000000E+00  0.13415077147E+03  0.13415077147E+03  0.00000000000E+00 0. -1.
         -3   -1    0    0    0  501 -0.00000000000E+00 -0.00000000000E+00 -0.76971569148E+02  0.76971569148E+02  0.00000000000E+00 0.  1.
         25    2    1    2    0    0  0.10351285129E+02 -0.29176976755E+02  0.56411704620E+01  0.12898733456E+03  0.12508982611E+03 0.  0.
         23    2    1    2    0    0 -0.10351285129E+02  0.29176976755E+02  0.51538031865E+02  0.82135006066E+02  0.55960212800E+02 0.  0.
          5    1    3    3  502    0 -0.34594776979E+01 -0.18745304561E+02 -0.58892947667E+02  0.62041970584E+02  0.41800000000E+01 0.  1.
         -5    1    3    3    0  502  0.13810762827E+02 -0.10431672194E+02  0.64534118129E+02  0.66945363972E+02  0.41800000000E+01 0.  1.
        -11    1    4    4    0    0 -0.31483654220E+02  0.21951349575E+02  0.19417049926E+02  0.43012835980E+02  0.00000000000E+00 0.  1.
         11    1    4    4    0    0  0.21132369091E+02  0.72256271798E+01  0.32120981939E+02  0.39122170086E+02  0.00000000000E+00 0. -1.
</event>
<event>
 8    1  0.3896452E-010  0.7568585E+02  0.7561462E-02  0.1341760E+00
          1   -1    0    0  501    0  0.00000000000E+00  0.00000000000E+00  0.61426190183E+02  0.61426190183E+02  0.00000000000E+00 0. -1.
         -1   -1    0    0    0  501 -0.00000000000E+00 -0.00000000000E+00 -0.25181948586E+03  0.25181948586E+03  0.00000000000E+00 0.  1.
         25    2    1    2    0    0 -0.46093661317E+02  0.32348415586E+02 -0.50334028935E+02  0.14612341566E+03  0.12508993777E+03 0.  0.
         23    2    1    2    0    0  0.46093661317E+02 -0.32348415586E+02 -0.14005926674E+03  0.16712226038E+03  0.71709177313E+02 0.  0.
          5    1    3    3  502    0 -0.24819727764E+02  0.28996228378E+02  0.38646840712E+02  0.54477984943E+02  0.41800000000E+01 0.  1.
         -5    1    3    3    0  502 -0.21273933553E+02  0.33521872079E+01 -0.88980869647E+02  0.91645430716E+02  0.41800000000E+01 0.  1.
        -11    1    4    4    0    0  0.12850044849E+02 -0.51222174821E+02 -0.85780056133E+02  0.10073258101E+03  0.00000000000E+00 0.  1.
         11    1    4    4    0    0  0.33243616467E+02  0.18873759234E+02 -0.54279210606E+02  0.66389679375E+02  0.00000000000E+00 0. -1.
</event>
<event>
 7    1  0.3896452E-010  0.1215354E+03  0.7561462E-02  0.1240585E+00
          2   -1    0    0  501    0  0.00000000000E+00  0.00000000000E+00  0.41244918316E+02  0.41244918316E+02  0.00000000000E+00 0. -1.
         -2   -1    0    0    0  501 -0.00000000000E+00 -0.00000000000E+00 -0.60731355493E+03  0.60731355493E+03  0.00000000000E+00 0.  1.
         25    2    1    2    0    0  0.72891133242E+02  0.13280609196E+02 -0.23462476858E+03  0.27602375740E+03  0.12510332024E+03 0.  0.
          5    1    3    3  502    0 -0.61818387152E+01 -0.16732194762E+02  0.72887086758E+01  0.19717483247E+02  0.41800000000E+01 0. -1.
         -5    1    3    3    0  502  0.79072971957E+02  0.30012803958E+02 -0.24191347725E+03  0.25630627416E+03  0.41800000000E+01 0. -1.
        -11    1    1    2    0    0  0.16996130633E+02  0.34362906079E+02 -0.16805278548E+02  0.41858035760E+02  0.00000000000E+00 0. -1.
         11    1    1    2    0    0 -0.89887263875E+02 -0.47643515275E+02 -0.31463858949E+03  0.33067668008E+03  0.00000000000E+00 0.  1.
</event>
<event>
 7    1  0.3896452E-010  0.8942646E+02  0.7561462E-02  0.1304247E+00
         -2   -1    0    0    0  501 -0.00000000000E+00  0.00000000000E+00  0.15127050419E+02  0.15127050419E+02  0.00000000000E+00 0.  1.
          2   -1    0    0  501    0  0.00000000000E+00 -0.00000000000E+00 -0.10820569244E+04  0.10820569244E+04  0.00000000000E+00 0. -1.
         25    2    1    2    0    0  0.25008712822E+02  0.27779556645E+02 -0.98335836157E+03  0.99198609527E+03  0.12508239860E+03 0.  0.
          5    1    3    3  502    0 -0.40174853096E+02  0.43141450706E+02 -0.58927302722E+03  0.59222915886E+03  0.41800000000E+01 0. -1.
         -5    1    3    3    0  502  0.65183565918E+02 -0.15361894061E+02 -0.39408533436E+03  0.39975693641E+03  0.41800000000E+01 0. -1.
        -11    1    1    2    0    0  0.67301041596E+01 -0.18348845037E+02 -0.63589689050E+02  0.66525355841E+02  0.00000000000E+00 0. -1.
         11    1    1    2    0    0 -0.31738816982E+02 -0.94307116078E+01 -0.19981823337E+02  0.38672523692E+02  0.00000000000E+00 0.  1.
</event>
<event>
 8    1  0.3896452E-010  0.1161466E+03  0.7561462E-02  0.1249593E+00
          2   -1    0    0  501    0  0.00000000000E+00  0.00000000000E+00  0.72678937752E+03  0.72678937752E+03  0.00000000000E+00 0. -1.
         -2   -1    0    0    0  501 -0.00000000000E+00 -0.00000000000E+00 -0.21012962631E+02  0.21012962631E+02  0.00000000000E+00 0.  1.
         25    2    1    2    0    0 -0.40570545364E+02  0.60041134881E+01  0.41694834244E+03  0.43723529079E+03  0.12508701261E+03 0.  0.
         23    2    1    2    0    0  0.40570545364E+02 -0.60041134881E+01  0.28882807245E+03  0.31056704936E+03  0.10652801594E+03 0.  0.
          5    1    3    3  502    0  0.35321548004E+02 -0.24429573258E+02  0.21563476835E+03  0.21990962126E+03  0.41800000000E+01 0. -1.
         -5    1    3    3    0  502 -0.75892093367E+02  0.30433686746E+02  0.20131357409E+03  0.21732566953E+03  0.41800000000E+01 0. -1.
        -11    1    4    4    0    0  0.61825363030E+02  0.27441652058E+02  0.12624729484E+03  0.14322639154E+03  0.00000000000E+00 0.  1.
         11    1    4    4    0    0 -0.21254817667E+02 -0.33445765547E+02  0.16258077762E+03  0.16734065781E+03  0.00000000000E+00 0. -1.
</event>
<event>
 8    1  0.3896452E-010  0.1494770E+03  0.7561462E-02  0.1201117E+00
          2   -1    0    0  501    0  0.00000000000E+00  0.00000000000E+00  0.91585021798E+02  0.91585021798E+02  0.00000000000E+00 0. -1.
         -2   -1    0    0    0  501 -0.00000000000E+00 -0.00000000000E+00 -0.30399339945E+03  0.30399339945E+03  0.00000000000E+00 0.  1.
         25    2    1    2    0    0  0.83824637360E+02 -0.97887522500E+02 -0.16420496798E+03  0.24335028456E+03  0.12509017785E+03 0.  0.
         23    2    1    2    0    0 -0.83824637360E+02  0.97887522500E+02 -0.48203409669E+02  0.15222813669E+03  0.65125263966E+02 0.  0.
          5    1    3    3  502    0  0.99601819561E+02 -0.41153169406E+02 -0.59563982283E+02  0.12320489518E+03  0.41800000000E+01 0.  1.
         -5    1    3    3    0  502 -0.15777182201E+02 -0.56734353095E+02 -0.10464098570E+03  0.12014538937E+03  0.41800000000E+01 0.  1.
        -11    1    4    4    0    0 -0.46621832022E+02  0.75243363961E+02 -0.60207374006E+02  0.10705179553E+03  0.00000000000E+00 0.  1.
         11    1    4    4    0    0 -0.37202805338E+02  0.22644158540E+02  0.12003964336E+02  0.45176341162E+02  0.00000000000E+00 0. -1.
</event>
<event>
 8    1  0.3896452E-010  0.1676112E+03  0.7561462E-02  0.1180362E+00
         -1   -1    0    0    0  501 -0.00000000000E+00  0.00000000000E+00  0.96338174749E+02  0.96338174749E+02  0.00000000000E+00 0.  1.
          1   -1    0    0  501    0  0.00000000000E+00 -0.00000000000E+00 -0.37274763596E+03  0.37274763596E+03  0.00000000000E+00 0. -1.
         25    2    1    2    0    0  0.12272372887E+03 -0.10835963314E+03 -0.14942152334E+03  0.25451360194E+03  0.12508980058E+03 0.  0.
         23    2    1    2    0    0 -0.12272372887E+03  0.10835963314E+03 -0.12698793787E+03  0.21457220878E+03  0.55788643036E+02 0.  0.
          5    1    3    3  502    0  0.34433384540E+02 -0.80765334826E+01 -0.10928524380E+03  0.11494183432E+03  0.41800000000E+01 0. -1.
         -5    1    3    3    0  502  0.88290344329E+02 -0.10028309966E+03 -0.40136279539E+02  0.13957176761E+03  0.41800000000E+01 0. -1.
        -11    1    4    4    0    0 -0.59178993294E+02  0.70174820367E+02 -0.39599240312E+02  0.99973789035E+02  0.00000000000E+00 0.  1.
         11    1    4    4    0    0 -0.63544735575E+02  0.38184812777E+02 -0.87388697558E+02  0.11459841974E+03  0.00000000000E+00 0. -1.
</event>
<event>
 8    1  0.3896452E-010  0.1078969E+03  0.7561462E-02  0.1264515E+00
          2   -1    0    0  501    0  0.00000000000E+00  0.00000000000E+00  0.81604725024E+03  0.81604725024E+03  0.00000000000E+00 0. -1.
         -2   -1    0    0    0  501 -0.00000000000E+00 -0.00000000000E+00 -0.22524097592E+02  0.22524097592E+02  0.00000000000E+00 0.  1.
         25    2    1    2    0    0  0.54617382340E+02  0.28710588067E+02  0.53260200804E+03  0.55056250105E+03  0.12508721865E+03 0.  0.
         23    2    1    2    0    0 -0.54617382340E+02 -0.28710588067E+02  0.26092114461E+03  0.28800884678E+03  0.10517554755E+03 0.  0.
          5    1    3    3  502    0  0.68103723858E+02  0.48371602116E+02  0.51197044650E+03  0.51875730316E+03  0.41800000000E+01 0. -1.
         -5    1    3    3    0  502 -0.13486341518E+02 -0.19661014049E+02  0.20631561547E+02  0.31805197890E+02  0.41800000000E+01 0. -1.
        -11    1    4    4    0    0 -0.71629634245E+02 -0.44839725680E+02  0.24626650014E+03  0.26036242931E+03  0.00000000000E+00 0. -1.
         11    1    4    4    0    0  0.17012251905E+02  0.16129137613E+02  0.14654644461E+02  0.27646417476E+02  0.00000000000E+00 0.  1.
</event>
<event>
 8    1  0.3896452E-010  0.1336698E+03  0.7561462E-02  0.1222110E+00
         -2   -1    0    0    0  501 -0.00000000000E+00  0.00000000000E+00  0.56132753200E+02  0.56132753200E+02  0.00000000000E+00 0.  1.
          2   -1    0    0  501    0  0.00000000000E+00 -0.00000000000E+00 -0.50644454671E+03  0.50644454671E+03  0.00000000000E+00 0. -1.
         25    2    1    2    0    0 -0.52338257598E+02  0.96252864220E+02 -0.15149321622E+03  0.22494065515E+03  0.12507676322E+03 0.  0.
         23    2    1    2    0    0  0.52338257598E+02 -0.96252864220E+02 -0.29881857729E+03  0.33763664477E+03  0.11270339247E+03 0.  0.
          5    1    3    3  502    0 -0.11531267266E+02  0.10868966629E+03 -0.14493641281E+03  0.18157766889E+03  0.41800000000E+01 0. -1.
         -5    1    3    3    0  502 -0.40806990332E+02 -0.12436802073E+02 -0.65568034150E+01  0.43362986253E+02  0.41800000000E+01 0. -1.
        -11    1    4    4    0    0  0.49959550967E+02 -0.57100633744E+02 -0.63113675689E+02  0.98690299248E+02  0.00000000000E+00 0.  1.
         11    1    4    4    0    0  0.23787066310E+01 -0.39152230477E+02 -0.23570490160E+03  0.23894634552E+03  0.00000000000E+00 0. -1.
</event>
<event>
 8    1  0.3896452E-010  0.7953028E+02  0.7561462E-02  0.1330390E+00
         -4   -1    0    0    0  501 -0.00000000000E+00  0.00000000000E+00  0.10152488451E+03  0.10152488451E+03  0.00000000000E+00 0.  1.
          4   -1    0    0  501    0  0.00000000000E+00 -0.00000000000E+00 -0.10048319666E+03  0.10048319666E+03  0.00000000000E+00 0. -1.
         25    2    1    2    0    0  0.31112678125E+01 -0.21608468367E+02 -0.68044196384E+01  0.12716527696E+03  0.12509237245E+03 0.  0.
         23    2    1    2    0    0 -0.31112678125E+01  0.21608468367E+02  0.78461074954E+01  0.74842804211E+02  0.71156714700E+02 0.  0.
          5    1    3    3  502    0 -0.59815659273E+02 -0.12150991398E+02 -0.14660667936E+02  0.62912377721E+02  0.41800000000E+01 0.  1.
         -5    1    3    3    0  502  0.62926927085E+02 -0.94574769689E+01  0.78562482976E+01  0.64252899237E+02  0.41800000000E+01 0.  1.
        -11    1    4    4    0    0 -0.13875419139E+02  0.59252785119E+01  0.37042104009E+02  0.39996920520E+02  0.00000000000E+00 0.  1.
         11    1    4    4    0    0  0.10764151326E+02  0.15683189855E+02 -0.29195996513E+02  0.34845883691E+02  0.00000000000E+00 0. -1.
</event>
<event>
 7    1  0.3896452E-010  0.8900191E+02  0.7561462E-02  0.1305287E+00
          1   -1    0    0  501    0  0.00000000000E+00  0.00000000000E+00  0.68614142515E+02  0.68614142515E+02  0.00000000000E+00 0. -1.
         -1   -1    0    0    0  501 -0.00000000000E+00 -0.00000000000E+00 -0.13891422672E+03  0.13891422672E+03  0.00000000000E+00 0.  1.
         25    2    1    2    0    0 -0.37857726579E+02  0.16963489983E+01 -0.13080078659E+02  0.13136560124E+03  0.12509895151E+03 0.  0.
          5    1    3    3  502    0  0.42865358034E+02 -0.17486030828E+02 -0.13084155846E+02  0.48289416312E+02  0.41800000000E+01 0. -1.
         -5    1    3    3    0  502 -0.80723084613E+02  0.19182379826E+02  0.40771866770E-02  0.83076184926E+02  0.41800000000E+01 0. -1.
        -11    1    1    2    0    0  0.35352165824E+02  0.97943893648E+01 -0.33460725609E+02  0.49652047790E+02  0.00000000000E+00 0. -1.
         11    1    1    2    0    0  0.25055607546E+01 -0.11490738363E+02 -0.23759279939E+02  0.26510720210E+02  0.00000000000E+00 0.  1.
</event>
<event>
 8    1  0.3896452E-010  0.1654423E+03  0.7561462E-02  0.1182686E+00
         -1   -1    0    0    0  501 -0.00000000000E+00  0.00000000000E+00  0.51336277890E+02  0.51336277890E+02  0.00000000000E+00 0.  1.
          1   -1    0    0  501    0  0.00000000000E+00 -0.00000000000E+00 -0.87512277292E+03  0.87512277292E+03  0.00000000000E+00 0. -1.
         25    2    1    2    0    0  0.15566047934E+03  0.40063013480E+02 -0.58777602380E+03  0.62206429582E+03  0.12509238225E+03 0.  0.
         23    2    1    2    0    0 -0.15566047934E+03 -0.40063013480E+02 -0.23601047123E+03  0.30439475500E+03  0.10545138434E+03 0.  0.
          5    1    3    3  502    0  0.72559842980E+02 -0.18862116320E+01 -0.44937047473E+03  0.45521399865E+03  0.41800000000E+01 0. -1.
         -5    1    3    3    0  502  0.83100636360E+02  0.41949225112E+02 -0.13840554907E+03  0.16685029716E+03  0.41800000000E+01 0. -1.
        -11    1    4    4    0    0 -0.38481531443E+02  0.62741227378E+01 -0.14179766754E+03  0.14706043451E+03  0.00000000000E+00 0. -1.
         11    1    4    4    0    0 -0.11717894790E+03 -0.46337136218E+02 -0.94212803690E+02  0.15733432048E+03  0.00000000000E+00 0.  1.
</event>
<event>
 8    1  0.3896452E-010  0.1301560E+03  0.7561462E-02  0.1227224E+00
         -1   -1    0    0    0  501 -0.00000000000E+00  0.00000000000E+00  0.24432015550E+02  0.24432015550E+02  0.00000000000E+00 0.  1.
          1   -1    0    0  501    0  0.00000000000E+00 -0.00000000000E+00 -0.73152503812E+03  0.73152503812E+03  0.00000000000E+00 0. -1.
         25    2    1    2    0    0 -0.66227767038E+02 -0.47178344511E+01 -0.35148391235E+03  0.37894270094E+03  0.12509298488E+03 0.  0.
         23    2    1    2    0    0  0.66227767038E+02  0.47178344511E+01 -0.35560911022E+03  0.37701435273E+03  0.10617724711E+03 0.  0.
          5    1    3    3  502    0 -0.66778310833E+02  0.51946203415E+02 -0.21709310505E+03  0.23303355875E+03  0.41800000000E+01 0.  1.
         -5    1    3    3    0  502  0.55054379461E+00 -0.56664037866E+02 -0.13439080730E+03  0.14590914219E+03  0.41800000000E+01 0.  1.
        -11    1    4    4    0    0 -0.21393807390E+02  0.20641094025E+02 -0.15046439730E+03  0.15337302439E+03  0.00000000000E+00 0. -1.
         11    1    4    4    0    0  0.87621574428E+02 -0.15923259574E+02 -0.20514471292E+03  0.22364132834E+03  0.00000000000E+00 0.  1.
</event>
<event>
 7    1  0.3896452E-010  0.9824288E+02  0.7561462E-02  0.1284035E+00
          2   -1    0    0  501    0  0.00000000000E+00  0.00000000000E+00  0.43805298792E+03  0.43805298792E+03  0.00000000000E+00 0. -1.
         -2   -1    0    0    0  501 -0.00000000000E+00 -0.00000000000E+00 -0.61932804054E+02  0.61932804054E+02  0.00000000000E+00 0.  1.
         25    2    1    2    0    0 -0.61940332337E+02  0.21822831691E+01  0.11146005340E+03  0.17864005163E+03  0.12509019711E+03 0.  0.
          5    1    3    3  502    0 -0.76951441009E+02 -0.83802149983E+01  0.13054939700E+03  0.15183006861E+03  0.41800000000E+01 0.  1.
         -5    1    3    3    0  502  0.15011108672E+02  0.10562498167E+02 -0.19089343593E+02  0.26809983027E+02  0.41800000000E+01 0.  1.
        -11    1    1    2    0    0  0.31847282630E+02 -0.40435054209E+02 -0.78364670151E+00  0.51476762932E+02  0.00000000000E+00 0.  1.
         11    1    1    2    0    0  0.30093049707E+02  0.38252771040E+02  0.26544377717E+03  0.26986897741E+03  0.00000000000E+00 0. -1.
</event>
<event>
 8    1  0.3896452E-010  0.9016324E+02  0.7561462E-02  0.1302457E+00
          1   -1    0    0  501    0  0.00000000000E+00  0.00000000000E+00  0.74331923669E+03  0.74331923669E+03  0.00000000000E+00 0. -1.
         -1   -1    0    0    0  501 -0.00000000000E+00 -0.00000000000E+00 -0.23202931035E+02  0.23202931035E+02  0.00000000000E+00 0.  1.
         25    2    1    2    0    0 -0.35783687915E+02  0.14213553747E+02  0.31716238816E+03  0.34310934141E+03  0.12509813058E+03 0.  0.
         23    2    1    2    0    0  0.35783687915E+02 -0.14213553747E+02  0.40295391750E+03  0.42341282631E+03  0.12419365694E+03 0.  0.
          5    1    3    3  502    0 -0.53107032077E+02  0.19250304679E+02  0.31946539886E+03  0.32444806142E+03  0.41800000000E+01 0.  1.
         -5    1    3    3    0  502  0.17323344162E+02 -0.50367509325E+01 -0.23030107054E+01  0.18661280000E+02  0.41800000000E+01 0.  1.
        -11    1    4    4    0    0  0.46071123340E+02  0.33111037855E+02  0.33613118994E+03  0.34088570825E+03  0.00000000000E+00 0. -1.
         11    1    4    4    0    0 -0.10287435426E+02 -0.47324591601E+02  0.66822727553E+02  0.82527118061E+02  0.00000000000E+00 0.  1.
</event>
<event>
 8    1  0.3896452E-010  0.2220092E+03  0.7561462E-02  0.1132394E+00
         -2   -1    0    0    0  501 -0.00000000000E+00  0.00000000000E+00  0.42047470206E+02  0.42047470206E+02  0.00000000000E+00 0.  1.
          2   -1    0    0  501    0  0.00000000000E+00 -0.00000000000E+00 -0.17482796428E+04  0.17482796428E+04  0.00000000000E+00 0. -1.
         25    2    1    2    0    0 -0.61757785306E+02 -0.18903250519E+03 -0.13285389735E+04  0.13491524537E+04  0.12509687046E+03 0.  0.
         23    2    1    2    0    0  0.61757785306E+02  0.18903250519E+03 -0.37769319911E+03  0.44117465938E+03  0.11151509027E+03 0.  0.
          5    1    3    3  502    0 -0.85242115527E+02 -0.71894923672E+02 -0.52128145210E+03  0.53309185233E+03  0.41800000000E+01 0. -1.
         -5    1    3    3    0  502  0.23484330222E+02 -0.11713758152E+03 -0.80725752143E+03  0.81606060135E+03  0.41800000000E+01 0. -1.
        -11    1    4    4    0    0  0.17315279785E+02 -0.13660060911E+01 -0.10035549101E+03  0.10184748138E+03  0.00000000000E+00 0. -1.
         11    1    4    4    0    0  0.44442505521E+02  0.19039851129E+03 -0.27733770810E+03  0.33932717800E+03  0.00000000000E+00 0.  1.
</event>
<event>
 8    1  0.3896452E-010  0.2119480E+03  0.7561462E-02  0.1140033E+00
         -2   -1    0    0    0  501 -0.00000000000E+00  0.00000000000E+00  0.51909517221E+02  0.51909517221E+02  0.00000000000E+00 0. -1.
          2   -1    0    0  501    0  0.00000000000E+00 -0.00000000000E+00 -0.10896464146E+04  0.10896464146E+04  0.00000000000E+00 0.  1.
         25    2    1    2    0    0  0.20338558596E+03  0.20216383567E+02 -0.38320494476E+03  0.45195997692E+03  0.12508953717E+03 0.  0.
         23    2    1    2    0    0 -0.20338558596E+03 -0.20216383567E+02 -0.65453195264E+03  0.68959595492E+03  0.73185417095E+02 0.  0.
          5    1    3    3  502    0  0.18599321197E+03  0.26375461965E+02 -0.38914193170E+03  0.43213198829E+03  0.41800000000E+01 0. -1.
         -5    1    3    3    0  502  0.17392373987E+02 -0.61590783974E+01  0.59369869337E+01  0.19827988639E+02  0.41800000000E+01 0. -1.
        -11    1    4    4    0    0 -0.10095440473E+03  0.26680880790E+02 -0.31934386788E+03  0.33598239118E+03  0.00000000000E+00 0. -1.
         11    1    4    4    0    0 -0.10243118123E+03 -0.46897264358E+02 -0.33518808476E+03  0.35361356373E+03  0.00000000000E+00 0.  1.
</event>
<event>
 8    1  0.3896452E-010  0.1246472E+03  0.7561462E-02  0.1235622E+00
         -2   -1    0    0    0  501 -0.00000000000E+00  0.00000000000E+00  0.43919179858E+03  0.43919179858E+03  0.00000000000E+00 0.  1.
          2   -1    0    0  501    0  0.00000000000E+00 -0.00000000000E+00 -0.48991909885E+02  0.48991909885E+02  0.00000000000E+00 0. -1.
         25    2    1    2    0    0  0.95322801794E+02  0.46744834206E+02  0.20270990069E+03  0.26078916840E+03  0.12509264746E+03 0.  0.
         23    2    1    2    0    0 -0.95322801794E+02 -0.46744834206E+02  0.18748998800E+03  0.22739454006E+03  0.72692951406E+02 0.  0.
          5    1    3    3  502    0  0.11051628241E+03  0.27936983670E+02  0.20654895881E+03  0.23595395424E+03  0.41800000000E+01 0. -1.
         -5    1    3    3    0  502 -0.15193480619E+02  0.18807850535E+02 -0.38390581187E+01  0.24835214159E+02  0.41800000000E+01 0. -1.
        -11    1    4    4    0    0 -0.63427927455E+02 -0.13954696508E+02  0.48458645744E+02  0.81031326554E+02  0.00000000000E+00 0. -1.
         11    1    4    4    0    0 -0.31894874339E+02 -0.32790137698E+02  0.13903134226E+03  0.14636321351E+03  0.00000000000E+00 0.  1.
</event>
<event>
 8    1  0.3896452E-010  0.1052055E+03  0.7561462E-02  0.1269715E+00
          2   -1    0    0  501    0  0.00000000000E+00  0.00000000000E+00  0.92391307328E+03  0.92391307328E+03  0.00000000000E+00 0. -1.
         -2   -1    0    0    0  501 -0.00000000000E+00 -0.00000000000E+00 -0.12994396434E+02  0.12994396434E+02  0.00000000000E+00 0.  1.
         25    2    1    2    0    0  0.18097597446E+02  0.50441761086E+02  0.64404173564E+03  0.65826262757E+03  0.12509210733E+03 0.  0.
         23    2    1    2    0    0 -0.18097597446E+02 -0.50441761086E+02  0.26687694121E+03  0.27864484214E+03  0.59563008737E+02 0.  0.
          5    1    3    3  502    0  0.56774544198E+02 -0.11716220343E+02  0.20259865206E+03  0.21077074015E+03  0.41800000000E+01 0. -1.
         -5    1    3    3    0  502 -0.38676946752E+02  0.62157981429E+02  0.44144308358E+03  0.44749188742E+03  0.41800000000E+01 0. -1.
        -11    1    4    4    0    0  0.18948057296E+02 -0.32914835028E+02  0.15212352451E+03  0.15679279942E+03  0.00000000000E+00 0. -1.
         11    1    4    4    0    0 -0.37045654742E+02 -0.17526926058E+02  0.11475341669E+03  0.12185204272E+03  0.00000000000E+00 0.  1.
</event>
<event>
 8    1  0.3896452E-010  0.1092784E+03  0.7561462E-02  0.1261912E+00
         -1   -1    0    0    0  501 -0.00000000000E+00  0.00000000000E+00  0.16681691082E+03  0.16681691082E+03  0.00000000000E+00 0.  1.
          1   -1    0    0  501    0  0.00000000000E+00 -0.00000000000E+00 -0.11707719819E+03  0.11707719819E+03  0.00000000000E+00 0. -1.
         25    2    1    2    0    0  0.28605896265E+02  0.64428076793E+02  0.94690692220E+02  0.17199699900E+03  0.12508943237E+03 0.  0.
         23    2    1    2    0    0 -0.28605896265E+02 -0.64428076793E+02 -0.44950979593E+02  0.11189711002E+03  0.74371353914E+02 0.  0.
          5    1    3    3  502    0  0.52171264913E+02  0.90584725305E+02  0.86162767043E+02  0.13553201897E+03  0.41800000000E+01 0.  1.
         -5    1    3    3    0  502 -0.23565368648E+02 -0.26156648511E+02  0.85279251777E+01  0.36464980031E+02  0.41800000000E+01 0.  1.
        -11    1    4    4    0    0 -0.27459198958E+02 -0.19826626855E+02  0.15102759570E+02  0.37083636371E+02  0.00000000000E+00 0.  1.
         11    1    4    4    0    0 -0.11466973072E+01 -0.44601449938E+02 -0.60053739163E+02  0.74813473645E+02  0.00000000000E+00 0. -1.
</event>
<event>
 8    1  0.3896452E-010  0.9614393E+02  0.7561462E-02  0.1288620E+00
         -2   -1    0    0    0  501 -0.00000000000E+00  0.00000000000E+00  0.21625298543E+03  0.21625298543E+03  0.00000000000E+00 0.  1.
          2   -1    0    0  501    0  0.00000000000E+00 -0.00000000000E+00 -0.72479402599E+02  0.72479402599E+02  0.00000000000E+00 0. -1.
         25    2    1    2    0    0  0.37440139415E+01 -0.45837275588E+02  0.15430294202E+03  0.20388953005E+03  0.12508584681E+03 0.  0.
         23    2    1    2    0    0 -0.37440139415E+01  0.45837275588E+02 -0.10529359189E+02  0.84842857985E+02  0.70515031535E+02 0.  0.
          5    1    3    3  502    0  0.40960834448E+02  0.19477176180E+02  0.19626337154E+02  0.49596530732E+02  0.41800000000E+01 0. -1.
         -5    1    3    3    0  502 -0.37216820506E+02 -0.65314451769E+02  0.13467660487E+03  0.15429299932E+03  0.41800000000E+01 0. -1.
        -11    1    4    4    0    0 -0.91991195877E+01 -0.11006840743E+02 -0.22320853375E+02  0.26532901080E+02  0.00000000000E+00 0. -1.
         11    1    4    4    0    0  0.54551056462E+01  0.56844116332E+02  0.11791494185E+02  0.58309956905E+02  0.00000000000E+00 0.  1.
</event>
<event>
 8    1  0.5554684E-010  0.7298490E+02  0.7561462E-02  0.1350227E+00
         -1   -1    0    0    0  501 -0.00000000000E+00  0.00000000000E+00  0.63617560937E+02  0.63617560937E+02  0.00000000000E+00 0.  1.
          1   -1    0    0  501    0  0.00000000000E+00 -0.00000000000E+00 -0.21897273464E+03  0.21897273464E+03  0.00000000000E+00 0. -1.
         25    2    1    2    0    0  0.34448962367E+01  0.55219296482E+02 -0.65355263566E+02  0.15158881615E+03  0.12508725231E+03 0.  0.
         23    2    1    2    0    0 -0.34448962367E+01 -0.55219296482E+02 -0.89999910141E+02  0.13100147944E+03  0.77462027956E+02 0.  0.
          5    1    3    3  502    0 -0.33413392949E+01  0.90973005609E+01  0.37301077803E+02  0.38765554698E+02  0.41800000000E+01 0.  1.
         -5    1    3    3    0  502  0.67862355315E+01  0.46121995921E+02 -0.10265634137E+03  0.11282326145E+03  0.41800000000E+01 0.  1.
        -11    1    4    4    0    0  0.32470128034E+02 -0.19088460478E+02 -0.15457880659E+02  0.40713936342E+02  0.00000000000E+00 0.  1.
         11    1    4    4    0    0 -0.35915024271E+02 -0.36130836004E+02 -0.74542029482E+02  0.90287543094E+02  0.00000000000E+00 0. -1.
</event>
<event>
 8    1  0.4104004E-010  0.8787512E+02  0.7561462E-02  0.1308081E+00
         -3   -1    0    0    0  501 -0.00000000000E+00  0.00000000000E+00  0.91363811775E+02  0.91363811775E+02  0.00000000000E+00 0.  1.
          3   -1    0    0  501    0  0.00000000000E+00 -0.00000000000E+00 -0.17219063865E+03  0.17219063865E+03  0.00000000000E+00 0. -1.
         25    2    1    2    0    0  0.10852845975E+02 -0.70516427117E+02 -0.62771687018E+02  0.15710348304E+03  0.12510343293E+03 0.  0.
         23    2    1    2    0    0 -0.10852845975E+02  0.70516427117E+02 -0.18055139859E+02  0.10645096739E+03  0.76912090233E+02 0.  0.
          5    1    3    3  502    0  0.41972493235E+02 -0.25248268145E+02 -0.84599236780E+02  0.97845125052E+02  0.41800000000E+01 0. -1.
         -5    1    3    3    0  502 -0.31119647261E+02 -0.45268158972E+02  0.21827549762E+02  0.59258357984E+02  0.41800000000E+01 0. -1.
        -11    1    4    4    0    0 -0.57011745040E+01  0.22660332185E+02 -0.45423755261E+02  0.51081421157E+02  0.00000000000E+00 0. -1.
         11    1    4    4    0    0 -0.51516714705E+01  0.47856094932E+02  0.27368615402E+02  0.55369546233E+02  0.00000000000E+00 0.  1.
</event>
<event>
 8    1  0.3896452E-010  0.1179922E+03  0.7561462E-02  0.1246447E+00
          2   -1    0    0  501    0  0.00000000000E+00  0.00000000000E+00  0.12042527981E+04  0.12042527981E+04  0.00000000000E+00 0.  1.
         -2   -1    0    0    0  501 -0.00000000000E+00 -0.00000000000E+00 -0.16875796846E+02  0.16875796846E+02  0.00000000000E+00 0. -1.
         25    2    1    2    0    0  0.10093513908E+03  0.52302312563E+01  0.67023551456E+03  0.68925952968E+03  0.12509115343E+03 0.  0.
         23    2    1    2    0    0 -0.10093513908E+03 -0.52302312563E+01  0.51714148668E+03  0.53186906525E+03  0.72347271549E+02 0.  0.
          5    1    3    3  502    0  0.10504040519E+02 -0.26171174198E+02  0.28152313450E+02  0.40066075160E+02  0.41800000000E+01 0. -1.
         -5    1    3    3    0  502  0.90431098560E+02  0.31401405455E+02  0.64208320111E+03  0.64919345452E+03  0.41800000000E+01 0. -1.
        -11    1    4    4    0    0 -0.90042610430E+02  0.12441028901E+02  0.48610290790E+03  0.49452855121E+03  0.00000000000E+00 0.  1.
         11    1    4    4    0    0 -0.10892528649E+02 -0.17671260157E+02  0.31038578789E+02  0.37340514045E+02  0.00000000000E+00 0. -1.
</event>
<event>
 8    1  0.3896452E-010  0.1292674E+03  0.7561462E-02  0.1228547E+00
         -1   -1    0    0    0  501 -0.00000000000E+00  0.00000000000E+00  0.78923166214E+03  0.78923166214E+03  0.00000000000E+00 0.  1.
          1   -1    0    0  501    0  0.00000000000E+00 -0.00000000000E+00 -0.38818249399E+02  0.38818249399E+02  0.00000000000E+00 0. -1.
         25    2    1    2    0    0  0.99647674522E+02  0.46770432059E+02  0.63842670656E+03  0.65981282996E+03  0.12508868285E+03 0.  0.
         23    2    1    2    0    0 -0.99647674522E+02 -0.46770432059E+02  0.11198670617E+03  0.16823708157E+03  0.60378480470E+02 0.  0.
          5    1    3    3  502    0  0.38398984364E+02  0.60926459671E+02  0.52611045164E+03  0.53103313947E+03  0.41800000000E+01 0. -1.
         -5    1    3    3    0  502  0.61248690157E+02 -0.14156027612E+02  0.11231625492E+03  0.12877969049E+03  0.41800000000E+01 0. -1.
        -11    1    4    4    0    0 -0.81613608443E+02 -0.97235322784E+01  0.88629720267E+02  0.12087413072E+03  0.00000000000E+00 0.  1.
         11    1    4    4    0    0 -0.18034066079E+02 -0.37046899780E+02  0.23356985906E+02  0.47362950851E+02  0.00000000000E+00 0. -1.
</event>
<event>
 8    1  0.3896452E-010  0.1512041E+03  0.7561462E-02  0.1199001E+00
          3   -1    0    0  501    0  0.00000000000E+00  0.00000000000E+00  0.11314856715E+03  0.11314856715E+03  0.00000000000E+00 0. -1.
         -3   -1    0    0    0  501 -0.00000000000E+00 -0.00000000000E+00 -0.50223410542E+03  0.50223410542E+03  0.00000000000E+00 0.  1.
         25    2    1    2    0    0 -0.96750068241E+01  0.14709282023E+03 -0.13719143903E+01  0.19333661462E+03  0.12508901184E+03 0.  0.
         23    2    1    2    0    0  0.96750068241E+01 -0.14709282023E+03 -0.38771362387E+03  0.42204605795E+03  0.77917375301E+02 0.  0.
          5    1    3    3  502    0  0.19657194682E+01  0.62336416939E+02  0.61031276851E+02  0.87361216132E+02  0.41800000000E+01 0. -1.
         -5    1    3    3    0  502 -0.11640726292E+02  0.84756403290E+02 -0.62403191242E+02  0.10597539849E+03  0.41800000000E+01 0. -1.
        -11    1    4    4    0    0 -0.15366116554E+02 -0.97362018676E+02 -0.31742290689E+03  0.33237446057E+03  0.00000000000E+00 0.  1.
         11    1    4    4    0    0  0.25041123378E+02 -0.49730801554E+02 -0.70290716983E+02  0.89671597383E+02  0.00000000000E+00 0. -1.
</event>
<event>
 8    1  0.3896452E-010  0.1212641E+03  0.7561462E-02  0.1241026E+00
         -1   -1    0    0    0  501 -0.00000000000E+00  0.00000000000E+00  0.23166991543E+03  0.23166991543E+03  0.00000000000E+00 0.  1.
          1   -1    0    0  501    0  0.00000000000E+00 -0.00000000000E+00 -0.98398853819E+02  0.98398853819E+02  0.00000000000E+00 0. -1.
         25    2    1    2    0    0  0.89597786192E+02 -0.22433046597E+02  0.46804648263E+02  0.16238770099E+03  0.12509230777E+03 0.  0.
         23    2    1    2    0    0 -0.89597786192E+02  0.22433046597E+02  0.86466413351E+02  0.16768106826E+03  0.11004315129E+03 0.  0.
          5    1    3    3  502    0  0.18093388359E+02  0.25365461216E+02 -0.32576098022E+02  0.45270872395E+02  0.41800000000E+01 0.  1.
         -5    1    3    3    0  502  0.71504397832E+02 -0.47798507813E+02  0.79380746285E+02  0.11711682859E+03  0.41800000000E+01 0.  1.
        -11    1    4    4    0    0  0.75891147581E+01  0.26643204970E+02 -0.11156488139E+02  0.29865067579E+02  0.00000000000E+00 0. -1.
         11    1    4    4    0    0 -0.97186900950E+02 -0.42101583728E+01  0.97622901490E+02  0.13781600069E+03  0.00000000000E+00 0.  1.
</event>
<event>
 8    1  0.3896452E-010  0.1004430E+03  0.7561462E-02  0.1279367E+00
          1   -1    0    0  501    0  0.00000000000E+00  0.00000000000E+00  0.34994455599E+03  0.34994455599E+03  0.00000000000E+00 0. -1.
         -1   -1    0    0    0  501 -0.00000000000E+00 -0.00000000000E+00 -0.44325389908E+02  0.44325389908E+02  0.00000000000E+00 0.  1.
         25    2    1    2    0    0  0.21283928418E+02 -0.19698115701E+02  0.28120030217E+03  0.30913062443E+03  0.12508841532E+03 0.  0.
         23    2    1    2    0    0 -0.21283928418E+02  0.19698115701E+02  0.24418863912E+02  0.85139321470E+02  0.76232550623E+02 0.  0.
          5    1    3    3  502    0  0.55946400513E+02 -0.52345849378E+02  0.13460230915E+03  0.15493657317E+03  0.41800000000E+01 0. -1.
         -5    1    3    3    0  502 -0.34662472094E+02  0.32647733677E+02  0.14659799302E+03  0.15419405125E+03  0.41800000000E+01 0. -1.
        -11    1    4    4    0    0 -0.39701704286E+02  0.34601060757E+02  0.22793542214E+01  0.52712941336E+02  0.00000000000E+00 0.  1.
         11    1    4    4    0    0  0.18417775867E+02 -0.14902945056E+02  0.22139509690E+02  0.32426380133E+02  0.00000000000E+00 0. -1.
</event>
<event>
 8    1  0.3896452E-010  0.1314481E+03  0.7561462E-02  0.1225323E+00
          3   -1    0    0  501    0  0.00000000000E+00  0.00000000000E+00  0.87596028801E+02  0.87596028801E+02  0.00000000000E+00 0. -1.
         -3   -1    0    0    0  501 -0.00000000000E+00 -0.00000000000E+00 -0.22931648117E+03  0.22931648117E+03  0.00000000000E+00 0.  1.
         25    2    1    2    0    0 -0.17245726561E+02 -0.98022663763E+02 -0.10042600124E+03  0.18878157105E+03  0.12508893695E+03 0.  0.
         23    2    1    2    0    0  0.17245726561E+02  0.98022663763E+02 -0.41294451131E+02  0.12813093892E+03  0.69328551977E+02 0.  0.
          5    1    3    3  502    0  0.46883858696E+02 -0.25353737305E+02 -0.67990315927E+02  0.86493142280E+02  0.41800000000E+01 0. -1.
         -5    1    3    3    0  502 -0.64129585257E+02 -0.72668926458E+02 -0.32435685308E+02  0.10228842877E+03  0.41800000000E+01 0. -1.
        -11    1    4    4    0    0  0.30597949661E+02  0.93414233821E+02 -0.16610647197E+02  0.99691359727E+02  0.00000000000E+00 0. -1.
         11    1    4    4    0    0 -0.13352223100E+02  0.46084299425E+01 -0.24683803934E+02  0.28439579197E+02  0.00000000000E+00 0.  1.
</event>
<event>
 8    1  0.3896452E-010  0.9196737E+02  0.7561462E-02  0.1298156E+00
         -1   -1    0    0    0  501 -0.00000000000E+00  0.00000000000E+00  0.15819253617E+03  0.15819253617E+03  0.00000000000E+00 0.  1.
          1   -1    0    0  501    0  0.00000000000E+00 -0.00000000000E+00 -0.10942196283E+03  0.10942196283E+03  0.00000000000E+00 0. -1.
         25    2    1    2    0    0 -0.13840848682E+02 -0.10153627657E+02  0.85141313629E+02  0.15228589669E+03  0.12508911143E+03 0.  0.
         23    2    1    2    0    0  0.13840848682E+02  0.10153627657E+02 -0.36370740292E+02  0.11532860231E+03  0.10808880846E+03 0.  0.
          5    1    3    3  502    0 -0.41260857902E+01 -0.42798114380E+02 -0.15546342841E+02  0.45911483903E+02  0.41800000000E+01 0. -1.
         -5    1    3    3    0  502 -0.97147628917E+01  0.32644486723E+02  0.10068765647E+03  0.10637441279E+03  0.41800000000E+01 0. -1.
        -11    1    4    4    0    0  0.24094951672E+02 -0.44612126341E+02 -0.39303470443E+01  0.50855246933E+02  0.00000000000E+00 0.  1.
         11    1    4    4    0    0 -0.10254102990E+02  0.54765753998E+02 -0.32440393248E+02  0.64473355374E+02  0.00000000000E+00 0. -1.
</event>
<event>
 7    1  0.3896452E-010  0.1462267E+03  0.7561462E-02  0.1205188E+00
          1   -1    0    0  501    0  0.00000000000E+00  0.00000000000E+00  0.41058814859E+03  0.41058814859E+03  0.00000000000E+00 0. -1.
         -1   -1    0    0    0  501 -0.00000000000E+00 -0.00000000000E+00 -0.84670980967E+02  0.84670980967E+02  0.00000000000E+00 0.  1.
         25    2    1    2    0    0  0.54629906904E+01 -0.81310216339E+02  0.47841796369E+02  0.15677403264E+03  0.12509222311E+03 0.  0.
          5    1    3    3  502    0 -0.33207639823E+02 -0.21504194472E+02  0.71322648131E+02  0.81667436956E+02  0.41800000000E+01 0.  1.
         -5    1    3    3    0  502  0.38670630513E+02 -0.59806021867E+02 -0.23480851762E+02  0.75106595684E+02  0.41800000000E+01 0.  1.
        -11    1    1    2    0    0 -0.77527862257E+02  0.76793339630E+02  0.10715174590E+03  0.15293555207E+03  0.00000000000E+00 0.  1.
         11    1    1    2    0    0  0.72064871566E+02  0.45168767092E+01  0.17092362535E+03  0.18554954484E+03  0.00000000000E+00 0. -1.
</event>
<event>
 8    1  0.3896452E-010  0.1246410E+03  0.7561462E-02  0.1235631E+00
         -1   -1    0    0    0  501 -0.00000000000E+00  0.00000000000E+00  0.38084216731E+03  0.38084216731E+03  0.00000000000E+00 0.  1.
          1   -1    0    0  501    0  0.00000000000E+00 -0.00000000000E+00 -0.60120016678E+02  0.60120016678E+02  0.00000000000E+00 0. -1.
         25    2    1    2    0    0  0.77779209099E+02  0.48850748449E+02  0.12382459562E+03  0.19853472183E+03  0.12508998480E+03 0.  0.
         23    2    1    2    0    0 -0.77779209099E+02 -0.48850748449E+02  0.19689755501E+03  0.24242746216E+03  0.10754732098E+03 0.  0.
          5    1    3    3  502    0 -0.24056872571E+02  0.97306589383E+01 -0.79039398172E+01  0.27447468114E+02  0.41800000000E+01 0.  1.
         -5    1    3    3    0  502  0.10183608167E+03  0.39120089511E+02  0.13172853544E+03  0.17108725371E+03  0.41800000000E+01 0.  1.
        -11    1    4    4    0    0 -0.44365174550E+02  0.10612934685E+02  0.14773257062E+02  0.47949475697E+02  0.00000000000E+00 0. -1.
         11    1    4    4    0    0 -0.33414034549E+02 -0.59463683134E+02  0.18212429795E+03  0.19447798647E+03  0.00000000000E+00 0.  1.
</event>
<event>
 8    1  0.3896452E-010  0.8394737E+02  0.7561462E-02  0.1318208E+00
          1   -1    0    0  501    0  0.00000000000E+00  0.00000000000E+00  0.16609759145E+03  0.16609759145E+03  0.00000000000E+00 0. -1.
         -1   -1    0    0    0  501 -0.00000000000E+00 -0.00000000000E+00 -0.68489750650E+02  0.68489750650E+02  0.00000000000E+00 0.  1.
         25    2    1    2    0    0 -0.86285744567E+00 -0.40071339189E+02  0.61285627613E+02  0.14494422937E+03  0.12508574951E+03 0.  0.
         23    2    1    2    0    0  0.86285744567E+00  0.40071339189E+02  0.36322213190E+02  0.89643112729E+02  0.71485157490E+02 0.  0.
          5    1    3    3  502    0  0.15899215332E+02  0.35668376585E+02 -0.88767156787E+01  0.40265203559E+02  0.41800000000E+01 0.  1.
         -5    1    3    3    0  502 -0.16762072778E+02 -0.75739715774E+02  0.70162343292E+02  0.10467902582E+03  0.41800000000E+01 0.  1.
        -11    1    4    4    0    0  0.12009995206E+02  0.32189367677E+01  0.47861052596E+02  0.49449791651E+02  0.00000000000E+00 0. -1.
         11    1    4    4    0    0 -0.11147137760E+02  0.36852402421E+02 -0.11538839406E+02  0.40193321078E+02  0.00000000000E+00 0.  1.
</event>
<event>
 7    1  0.3896452E-010  0.1672538E+03  0.7561462E-02  0.1180742E+00
         -2   -1    0    0    0  501 -0.00000000000E+00  0.00000000000E+00  0.33005369445E+02  0.33005369445E+02  0.00000000000E+00 0.  1.
          2   -1    0    0  501    0  0.00000000000E+00 -0.00000000000E+00 -0.10903794028E+04  0.10903794028E+04  0.00000000000E+00 0. -1.
         25    2    1    2    0    0  0.13051028293E+03  0.72704081400E+02 -0.79630122160E+03  0.81979632686E+03  0.12510621328E+03 0.  0.
          5    1    3    3  502    0 -0.16173577572E+02  0.25238089452E+02 -0.26010427292E+03  0.26185921974E+03  0.41800000000E+01 0. -1.
         -5    1    3    3    0  502  0.14668386051E+03  0.47465991949E+02 -0.53619694869E+03  0.55793710712E+03  0.41800000000E+01 0. -1.
        -11    1    1    2    0    0 -0.10795706996E+03 -0.65786885790E+02 -0.18600362544E+03  0.22489995992E+03  0.00000000000E+00 0.  1.
         11    1    1    2    0    0 -0.22553212973E+02 -0.69171956103E+01 -0.75069186261E+02  0.78688485412E+02  0.00000000000E+00 0. -1.
</event>
<event>
 8    1  0.3896452E-010  0.1170382E+03  0.7561462E-02  0.1248065E+00
          2   -1    0    0  501    0  0.00000000000E+00  0.00000000000E+00  0.35888556209E+03  0.35888556209E+03  0.00000000000E+00 0. -1.
         -2   -1    0    0    0  501 -0.00000000000E+00 -0.00000000000E+00 -0.78203863489E+02  0.78203863489E+02  0.00000000000E+00 0.  1.
         25    2    1    2    0    0 -0.26307540709E+02 -0.78303134264E+02  0.25080372351E+03  0.29218748547E+03  0.12509017309E+03 0.  0.
         23    2    1    2    0    0  0.26307540709E+02  0.78303134264E+02  0.29877975093E+02  0.14490194011E+03  0.11524066695E+03 0.  0.
          5    1    3    3  502    0 -0.85495111975E+01  0.29751615035E+02  0.21135416447E+02  0.37715129157E+02  0.41800000000E+01 0. -1.
         -5    1    3    3    0  502 -0.17758029512E+02 -0.10805474930E+03  0.22966830706E+03  0.25447235631E+03  0.41800000000E+01 0. -1.
        -11    1    4    4    0    0 -0.53187348572E+01  0.51573313258E+02 -0.38764688070E+02  0.64736362441E+02  0.00000000000E+00 0.  1.
         11    1    4    4    0    0  0.31626275567E+02  0.26729821006E+02  0.68642663163E+02  0.80165577671E+02  0.00000000000E+00 0. -1.
</event>
<event>
 8    1  0.3896452E-010  0.5022022E+02  0.7561462E-02  0.1444157E+00
         -1   -1    0    0    0  501 -0.00000000000E+00  0.00000000000E+00  0.17944761481E+03  0.17944761481E+03  0.00000000000E+00 0.  1.
          1   -1    0    0  501    0  0.00000000000E+00 -0.00000000000E+00 -0.63770539542E+02  0.63770539542E+02  0.00000000000E+00 0. -1.
         25    2    1    2    0    0 -0.18263905126E+02  0.16543283991E+02  0.43508769597E+02  0.13471154882E+03  0.12508772073E+03 0.  0.
         23    2    1    2    0    0  0.18263905126E+02 -0.16543283991E+02  0.72168305669E+02  0.10850660553E+03  0.77189174274E+02 0.  0.
          5    1    3    3  502    0 -0.16324060554E+02  0.33544103769E+02  0.83205984202E+02  0.91281926238E+02  0.41800000000E+01 0.  1.
         -5    1    3    3    0  502 -0.19398445720E+01 -0.17000819778E+02 -0.39697214605E+02  0.43429622581E+02  0.41800000000E+01 0.  1.
        -11    1    4    4    0    0 -0.71598911982E+01 -0.18451679378E+02 -0.10211965094E+02  0.22271343582E+02  0.00000000000E+00 0. -1.
         11    1    4    4    0    0  0.25423796325E+02  0.19083953870E+01  0.82380270763E+02  0.86235261949E+02  0.00000000000E+00 0.  1.
</event>
<event>
 8    1  0.3896452E-010  0.9094962E+02  0.7561462E-02  0.1300568E+00
         -1   -1    0    0    0  501 -0.00000000000E+00  0.00000000000E+00  0.11641832002E+03  0.11641832002E+03  0.00000000000E+00 0.  1.
          1   -1    0    0  501    0  0.00000000000E+00 -0.00000000000E+00 -0.93977650459E+02  0.93977650459E+02  0.00000000000E+00 0. -1.
         25    2    1    2    0    0  0.32854774120E+02 -0.19976443336E+02  0.18324420035E+02  0.13213784317E+03  0.12508449448E+03 0.  0.
         23    2    1    2    0    0 -0.32854774120E+02  0.19976443336E+02  0.41162495240E+01  0.78258127303E+02  0.68035994209E+02 0.  0.
          5    1    3    3  502    0 -0.30893222204E+02 -0.24641543858E+02 -0.31725051309E+02  0.50848285541E+02  0.41800000000E+01 0.  1.
         -5    1    3    3    0  502  0.63747996325E+02  0.46651005224E+01  0.50049471345E+02  0.81289557633E+02  0.41800000000E+01 0.  1.
        -11    1    4    4    0    0 -0.37754907257E+02 -0.16571593403E+02  0.87600500089E+00  0.41240976160E+02  0.00000000000E+00 0. -1.
         11    1    4    4    0    0  0.49001331361E+01  0.36548036738E+02  0.32402445231E+01  0.37017151143E+02  0.00000000000E+00 0.  1.
</event>
<event>
 8    1  0.3896452E-010  0.8135639E+02  0.7561462E-02  0.1325246E+00
          1   -1    0    0  501    0  0.00000000000E+00  0.00000000000E+00  0.14232527428E+02  0.14232527428E+02  0.00000000000E+00 0. -1.
         -1   -1    0    0    0  501 -0.00000000000E+00 -0.00000000000E+00 -0.83435124900E+03  0.83435124900E+03  0.00000000000E+00 0.  1.
         25    2    1    2    0    0  0.19460800336E+02  0.31939471111E+00 -0.64184927129E+03  0.65421510426E+03  0.12509232916E+03 0.  0.
         23    2    1    2    0    0 -0.19460800336E+02 -0.31939471111E+00 -0.17826945028E+03  0.19436867217E+03  0.74969053991E+02 0.  0.
          5    1    3    3  502    0 -0.34605678398E+02 -0.77377748195E+01 -0.51230529391E+03  0.51354806270E+03  0.41800000000E+01 0. -1.
         -5    1    3    3    0  502  0.54066478734E+02  0.80571695306E+01 -0.12954397738E+03  0.14066704155E+03  0.41800000000E+01 0. -1.
        -11    1    4    4    0    0  0.18989263332E+02  0.20923694593E+02 -0.10683424180E+03  0.11050768452E+03  0.00000000000E+00 0.  1.
         11    1    4    4    0    0 -0.38450063668E+02 -0.21243089304E+02 -0.71435208478E+02  0.83860987650E+02  0.00000000000E+00 0. -1.
</event>
<event>
 8    1  0.3896452E-010  0.1074622E+03  0.7561462E-02  0.1265343E+00
         -1   -1    0    0    0  501 -0.00000000000E+00  0.00000000000E+00  0.62991897226E+02  0.62991897226E+02  0.00000000000E+00 0.  1.
          1   -1    0    0  501    0  0.00000000000E+00 -0.00000000000E+00 -0.30370158153E+03  0.30370158153E+03  0.00000000000E+00 0. -1.
         25    2    1    2    0    0  0.46728525746E+02  0.44016376949E+02 -0.10876999666E+03  0.17776302872E+03  0.12509110939E+03 0.  0.
         23    2    1    2    0    0 -0.46728525746E+02 -0.44016376949E+02 -0.13193968764E+03  0.18893045003E+03  0.11901948251E+03 0.  0.
          5    1    3    3  502    0  0.26855841129E+02 -0.16814541353E+02 -0.10904424327E+03  0.11363135304E+03  0.41800000000E+01 0. -1.
         -5    1    3    3    0  502  0.19872684616E+02  0.60830918301E+02  0.27424660246E+00  0.64131675687E+02  0.41800000000E+01 0. -1.
        -11    1    4    4    0    0 -0.43639954043E+02  0.24634592584E+02 -0.13337338906E+02  0.51857432927E+02  0.00000000000E+00 0.  1.
         11    1    4    4    0    0 -0.30885717025E+01 -0.68650969532E+02 -0.11860234873E+03  0.13707301710E+03  0.00000000000E+00 0. -1.
</event>
<event>
 7    1  0.3896452E-010  0.1429282E+03  0.7561462E-02  0.1209442E+00
          1   -1    0    0  501    0  0.00000000000E+00  0.00000000000E+00  0.36762097663E+03  0.36762097663E+03  0.00000000000E+00 0. -1.
         -1   -1    0    0    0  501 -0.00000000000E+00 -0.00000000000E+00 -0.65483948003E+02  0.65483948003E+02  0.00000000000E+00 0.  1.
         25    2    1    2    0    0  0.58481297116E+01  0.51305241731E+02  0.12949367910E+03  0.18730350620E+03  0.12509021568E+03 0.  0.
          5    1    3    3  502    0  0.15991767191E+02 -0.37961493314E+02  0.21146528333E+02  0.46491500869E+02  0.41800000000E+01 0. -1.
         -5    1    3    3    0  502 -0.10143637479E+02  0.89266735045E+02  0.10834715076E+03  0.14081200533E+03  0.41800000000E+01 0. -1.
        -11    1    1    2    0    0 -0.55710329384E+02 -0.79618622072E+02  0.47531945465E+02  0.10817602147E+03  0.00000000000E+00 0.  1.
         11    1    1    2    0    0  0.49862199672E+02  0.28313380341E+02  0.12511140406E+03  0.13762539696E+03  0.00000000000E+00 0. -1.
</event>
<event>
 7    1  0.3896452E-010  0.1616009E+03  0.7561462E-02  0.1186901E+00
         -1   -1    0    0    0  501 -0.00000000000E+00  0.00000000000E+00  0.50383780505E+02  0.50383780505E+02  0.00000000000E+00 0.  1.
          1   -1    0    0  501    0  0.00000000000E+00 -0.00000000000E+00 -0.78344747801E+03  0.78344747801E+03  0.00000000000E+00 0. -1.
         25    2    1    2    0    0 -0.26105712520E+02  0.18292483188E+02 -0.22589424088E+03  0.26017575979E+03  0.12508834779E+03 0.  0.
          5    1    3    3  502    0  0.21854662771E+02 -0.20578614709E+02 -0.18152061491E+03  0.18403345268E+03  0.41800000000E+01 0.  1.
         -5    1    3    3    0  502 -0.47960375291E+02  0.38871097897E+02 -0.44373625964E+02  0.76142307103E+02  0.41800000000E+01 0.  1.
        -11    1    1    2    0    0 -0.68302650687E+02  0.72801852728E+02 -0.37251267123E+03  0.38565665051E+03  0.00000000000E+00 0. -1.
         11    1    1    2    0    0  0.94408363208E+02 -0.91094335916E+02 -0.13465678539E+03  0.18799884822E+03  0.00000000000E+00 0.  1.
</event>
<event>
 8    1  0.3896452E-010  0.1191023E+03  0.7561462E-02  0.1244585E+00
         -1   -1    0    0    0  501 -0.00000000000E+00  0.00000000000E+00  0.14168700604E+03  0.14168700604E+03  0.00000000000E+00 0.  1.
          1   -1    0    0  501    0  0.00000000000E+00 -0.00000000000E+00 -0.16365523987E+03  0.16365523987E+03  0.00000000000E+00 0. -1.
         25    2    1    2    0    0 -0.68989816796E+02 -0.11769822908E+02  0.55449523582E+02  0.15368964992E+03  0.12509090804E+03 0.  0.
         23    2    1    2    0    0  0.68989816796E+02  0.11769822908E+02 -0.77417757415E+02  0.15165259598E+03  0.11003125535E+03 0.  0.
          5    1    3    3  502    0 -0.84798914164E+02  0.33808090806E+02  0.19659924697E+02  0.93476349343E+02  0.41800000000E+01 0. -1.
         -5    1    3    3    0  502  0.15809097369E+02 -0.45577913714E+02  0.35789598885E+02  0.60213300578E+02  0.41800000000E+01 0. -1.
        -11    1    4    4    0    0  0.46452217661E+02  0.40674803428E+02  0.45015861117E+01  0.61907289046E+02  0.00000000000E+00 0.  1.
         11    1    4    4    0    0  0.22537599134E+02 -0.28904980519E+02 -0.81919343527E+02  0.89745306938E+02  0.00000000000E+00 0. -1.
</event>
<event>
 7    1  0.3896452E-010  0.4895331E+02  0.7561462E-02  0.1451070E+00
         -1   -1    0    0    0  501 -0.00000000000E+00  0.00000000000E+00  0.13285986387E+03  0.13285986387E+03  0.00000000000E+00 0.  1.
          1   -1    0    0  501    0  0.00000000000E+00 -0.00000000000E+00 -0.61222293656E+02  0.61222293656E+02  0.00000000000E+00 0. -1.
         25    2    1    2    0    0  0.92678417472E+01  0.33418295435E+01  0.64779695282E+02  0.14121653794E+03  0.12509452806E+03 0.  0.
          5    1    3    3  502    0 -0.24659789144E+01 -0.23794972751E+02  0.95403186552E+02  0.98445529022E+02  0.41800000000E+01 0.  1.
         -5    1    3    3    0  502  0.11733820662E+02  0.27136802295E+02 -0.30623491269E+02  0.42771008915E+02  0.41800000000E+01 0.  1.
        -11    1    1    2    0    0  0.58400368918E+01 -0.20257562820E+02  0.17884981938E+02  0.27646834561E+02  0.00000000000E+00 0.  1.
         11    1    1    2    0    0 -0.15107878639E+02  0.16915733276E+02 -0.11027107007E+02  0.25218785026E+02  0.00000000000E+00 0. -1.
</event>
<event>
 8    1  0.3896452E-010  0.1115199E+03  0.7561462E-02  0.1257781E+00
         -1   -1    0    0    0  501 -0.00000000000E+00  0.00000000000E+00  0.21763384368E+03  0.21763384368E+03  0.00000000000E+00 0.  1.
          1   -1    0    0  501    0  0.00000000000E+00 -0.00000000000E+00 -0.10055181014E+03  0.10055181014E+03  0.00000000000E+00 0. -1.
         25    2    1    2    0    0 -0.87132896499E+02  0.26867367951E+02  0.63660073181E+02  0.16737879177E+03  0.12509619460E+03 0.  0.
         23    2    1    2    0    0  0.87132896499E+02 -0.26867367951E+02  0.53421960356E+02  0.15080686205E+03  0.10758627552E+03 0.  0.
          5    1    3    3  502    0 -0.90789980500E+02  0.51087752229E+02  0.58153292339E+01  0.10442255236E+03  0.41800000000E+01 0. -1.
         -5    1    3    3    0  502  0.36570840013E+01 -0.24220384279E+02  0.57844743947E+02  0.62956239407E+02  0.41800000000E+01 0. -1.
        -11    1    4    4    0    0  0.57880768507E+02 -0.28729982495E+02 -0.23288338682E+02  0.68687276665E+02  0.00000000000E+00 0. -1.
         11    1    4    4    0    0  0.29252127992E+02  0.18626145442E+01  0.76710299038E+02  0.82119585383E+02  0.00000000000E+00 0.  1.
</event>
<event>
 8    1  0.3896452E-010  0.1183567E+03  0.7561462E-02  0.1245833E+00
          1   -1    0    0  501    0  0.00000000000E+00  0.00000000000E+00  0.48195679656E+03  0.48195679656E+03  0.00000000000E+00 0. -1.
         -1   -1    0    0    0  501 -0.00000000000E+00 -0.00000000000E+00 -0.43997843734E+02  0.43997843734E+02  0.00000000000E+00 0.  1.
         25    2    1    2    0    0 -0.55721722824E+02  0.72445116788E+02  0.15308867814E+03  0.21779942709E+03  0.12508893526E+03 0.  0.
         23    2    1    2    0    0  0.55721722824E+02 -0.72445116788E+02  0.28487027468E+03  0.30815521320E+03  0.73860386437E+02 0.  0.
          5    1    3    3  502    0 -0.33810830900E+00  0.86891218727E+02  0.12892851753E+03  0.15553209715E+03  0.41800000000E+01 0. -1.
         -5    1    3    3    0  502 -0.55383614515E+02 -0.14446101938E+02  0.24160160610E+02  0.62267329946E+02  0.41800000000E+01 0. -1.
        -11    1    4    4    0    0  0.43332740797E+02 -0.46384413910E+02  0.26648395720E+03  0.27393966438E+03  0.00000000000E+00 0. -1.
         11    1    4    4    0    0  0.12388982027E+02 -0.26060702879E+02  0.18386317482E+02  0.34215548815E+02  0.00000000000E+00 0.  1.
</event>
<event>
 8    1  0.3896452E-010  0.1370446E+03  0.7561462E-02  0.1217362E+00
         -4   -1    0    0    0  501 -0.00000000000E+00  0.00000000000E+00  0.64657378792E+02  0.64657378792E+02  0.00000000000E+00 0. -1.
          4   -1    0    0  501    0  0.00000000000E+00 -0.00000000000E+00 -0.35138244622E+03  0.35138244622E+03  0.00000000000E+00 0.  1.
         25    2    1    2    0    0  0.92021693736E+02 -0.57115753281E+02 -0.13073152553E+03  0.21087353211E+03  0.12508682339E+03 0.  0.
         23    2    1    2    0    0 -0.92021693736E+02  0.57115753281E+02 -0.15599354190E+03  0.20516629290E+03  0.77646772230E+02 0.  0.
          5    1    3    3  502    0 -0.11644543842E+02  0.22472289675E+02  0.44333270525E+00  0.25656736901E+02  0.41800000000E+01 0.  1.
         -5    1    3    3    0  502  0.10366623758E+03 -0.79588042955E+02 -0.13117485823E+03  0.18521679521E+03  0.41800000000E+01 0.  1.
        -11    1    4    4    0    0 -0.62480580078E+02  0.61665021366E+02 -0.15128249744E+03  0.17490795230E+03  0.00000000000E+00 0.  1.
         11    1    4    4    0    0 -0.29541113658E+02 -0.45492680854E+01 -0.47110444686E+01  0.30258340606E+02  0.00000000000E+00 0. -1.
</event>
<event>
 8    1  0.3896452E-010  0.1224585E+03  0.7561462E-02  0.1239096E+00
         -1   -1    0    0    0  501 -0.00000000000E+00  0.00000000000E+00  0.38798503325E+03  0.38798503325E+03  0.00000000000E+00 0.  1.
          1   -1    0    0  501    0  0.00000000000E+00 -0.00000000000E+00 -0.46629694129E+02  0.46629694129E+02  0.00000000000E+00 0. -1.
         25    2    1    2    0    0  0.34876202764E+02 -0.32790004661E+02  0.25596891295E+03  0.28889175845E+03  0.12508728865E+03 0.  0.
         23    2    1    2    0    0 -0.34876202764E+02  0.32790004661E+02  0.85386426171E+02  0.14572296892E+03  0.10794817262E+03 0.  0.
          5    1    3    3  502    0 -0.11641752504E+02 -0.71936125918E+02  0.14013031127E+03  0.15800099098E+03  0.41800000000E+01 0. -1.
         -5    1    3    3    0  502  0.46517955267E+02  0.39146121257E+02  0.11583860168E+03  0.13089076748E+03  0.41800000000E+01 0. -1.
        -11    1    4    4    0    0  0.17617610815E+02  0.52141160894E+02  0.17497576121E+02  0.57751589072E+02  0.00000000000E+00 0.  1.
         11    1    4    4    0    0 -0.52493813579E+02 -0.19351156233E+02  0.67888850050E+02  0.87971379850E+02  0.00000000000E+00 0. -1.
</event>
<event>
 7    1  0.3896452E-010  0.1504629E+03  0.7561462E-02  0.1199905E+00
         -2   -1    0    0    0  501 -0.00000000000E+00  0.00000000000E+00  0.26649894041E+02  0.26649894041E+02  0.00000000000E+00 0.  1.
          2   -1    0    0  501    0  0.00000000000E+00 -0.00000000000E+00 -0.95746614317E+03  0.95746614317E+03  0.00000000000E+00 0. -1.
         25    2    1    2    0    0  0.56113371467E+02 -0.11106653270E+03 -0.40391357437E+03  0.44077041691E+03  0.12509156536E+03 0.  0.
          5    1    3    3  502    0  0.96400299096E+02 -0.81209621301E+02 -0.29064276452E+03  0.31682599203E+03  0.41800000000E+01 0. -1.
         -5    1    3    3    0  502 -0.40286927629E+02 -0.29856911396E+02 -0.11327080985E+03  0.12394442488E+03  0.41800000000E+01 0. -1.
        -11    1    1    2    0    0 -0.13167103937E+02  0.22751908622E+02 -0.50559247834E+02  0.56984730530E+02  0.00000000000E+00 0.  1.
         11    1    1    2    0    0 -0.42946267530E+02  0.88314624075E+02 -0.47634342692E+03  0.48636088976E+03  0.00000000000E+00 0. -1.
</event>
<event>
 7    1  0.3896452E-010  0.7862529E+02  0.7561462E-02  0.1332999E+00
         -1   -1    0    0    0  501 -0.00000000000E+00  0.00000000000E+00  0.57812795343E+03  0.57812795343E+03  0.00000000000E+00 0.  1.
          1   -1    0    0  501    0  0.00000000000E+00 -0.00000000000E+00 -0.50681486478E+02  0.50681486478E+02  0.00000000000E+00 0. -1.
         25    2    1    2    0    0 -0.33941774548E+02 -0.46262513814E+02  0.53428535421E+03  0.55172540703E+03  0.12509124987E+03 0.  0.
          5    1    3    3  502    0  0.15846030973E+02 -0.18146982735E+02  0.44466354881E+03  0.44533532728E+03  0.41800000000E+01 0.  1.
         -5    1    3    3    0  502 -0.49787805520E+02 -0.28115531080E+02  0.89621805396E+02  0.10639007975E+03  0.41800000000E+01 0.  1.
        -11    1    1    2    0    0  0.14279707009E+02  0.52839943605E+02  0.14520272906E+01  0.54754708069E+02  0.00000000000E+00 0.  1.
         11    1    1    2    0    0  0.19662067539E+02 -0.65774297909E+01 -0.82909145468E+01  0.22329324812E+02  0.00000000000E+00 0. -1.
</event>
<event>
 8    1  0.3896452E-010  0.1084876E+03  0.7561462E-02  0.1263397E+00
         -2   -1    0    0    0  501 -0.00000000000E+00  0.00000000000E+00  0.16964949606E+02  0.16964949606E+02  0.00000000000E+00 0.  1.
          2   -1    0    0  501    0  0.00000000000E+00 -0.00000000000E+00 -0.11441219183E+04  0.11441219183E+04  0.00000000000E+00 0. -1.
         25    2    1    2    0    0  0.63573224383E+02 -0.13958685747E+02 -0.73164719994E+03  0.74511207713E+03  0.12509189638E+03 0.  0.
         23    2    1    2    0    0 -0.63573224383E+02  0.13958685747E+02 -0.39550976874E+03  0.41597479076E+03  0.11122342206E+03 0.  0.
          5    1    3    3  502    0 -0.21454450285E+02 -0.12057484108E+01 -0.45168302424E+03  0.45221319535E+03  0.41800000000E+01 0. -1.
         -5    1    3    3    0  502  0.85027674669E+02 -0.12752937336E+02 -0.27996417570E+03  0.29289888178E+03  0.41800000000E+01 0. -1.
        -11    1    4    4    0    0 -0.54251267497E+02 -0.31409509576E+02 -0.32905012847E+03  0.33496827367E+03  0.00000000000E+00 0. -1.
         11    1    4    4    0    0 -0.93219568859E+01  0.45368195323E+02 -0.66459640273E+02  0.81006517097E+02  0.00000000000E+00 0.  1.
</event>
<event>
 8    1  0.3896452E-010  0.9945057E+02  0.7561462E-02  0.1281456E+00
         -2   -1    0    0    0  501 -0.00000000000E+00  0.00000000000E+00  0.59031709142E+02  0.59031709142E+02  0.00000000000E+00 0. -1.
          2   -1    0    0  501    0  0.00000000000E+00 -0.00000000000E+00 -0.23161145102E+03  0.23161145102E+03  0.00000000000E+00 0.  1.
         25    2    1    2    0    0  0.42089886917E+02  0.43613973666E+02 -0.10029711667E+03  0.17140726201E+03  0.12508877078E+03 0.  0.
         23    2    1    2    0    0 -0.42089886917E+02 -0.43613973666E+02 -0.72282625205E+02  0.11923589816E+03  0.72929309765E+02 0.  0.
          5    1    3    3  502    0 -0.41830155372E+02  0.17094970164E+02 -0.12612158421E+02  0.47101367744E+02  0.41800000000E+01 0.  1.
         -5    1    3    3    0  502  0.83920042289E+02  0.26519003502E+02 -0.87684958251E+02  0.12430589426E+03  0.41800000000E+01 0.  1.
        -11    1    4    4    0    0 -0.23308974047E+02 -0.71285544417E+01 -0.74254825471E+02  0.78153078412E+02  0.00000000000E+00 0.  1.
         11    1    4    4    0    0 -0.18780912870E+02 -0.36485419224E+02  0.19722002657E+01  0.41082819744E+02  0.00000000000E+00 0. -1.
</event>
<event>
 7    1  0.3896452E-010  0.7582254E+02  0.7561462E-02  0.1341343E+00
         -1   -1    0    0    0  501 -0.00000000000E+00  0.00000000000E+00  0.16573451341E+03  0.16573451341E+03  0.00000000000E+00 0.  1.
          1   -1    0    0  501    0  0.00000000000E+00 -0.00000000000E+00 -0.43034395727E+02  0.43034395727E+02  0.00000000000E+00 0. -1.
         25    2    1    2    0    0  0.21388418938E+02 -0.87381839106E+01  0.11531643326E+03  0.17169534117E+03  0.12509032766E+03 0.  0.
          5    1    3    3  502    0  0.12475753386E+02  0.56369569017E+02  0.34261536518E+02  0.67264388931E+02  0.41800000000E+01 0.  1.
         -5    1    3    3    0  502  0.89126655521E+01 -0.65107752928E+02  0.81054896745E+02  0.10443095224E+03  0.41800000000E+01 0.  1.
        -11    1    1    2    0    0 -0.10389440497E+02  0.12531197481E+02 -0.77138100323E+01  0.18013168776E+02  0.00000000000E+00 0. -1.
         11    1    1    2    0    0 -0.10998978441E+02 -0.37930135701E+01  0.15097494453E+02  0.19060399194E+02  0.00000000000E+00 0.  1.
</event>
<event>
 8    1  0.3896452E-010  0.1202521E+03  0.7561462E-02  0.1242682E+00
         -2   -1    0    0    0  501 -0.00000000000E+00  0.00000000000E+00  0.14451808152E+02  0.14451808152E+02  0.00000000000E+00 0.  1.
          2   -1    0    0  501    0  0.00000000000E+00 -0.00000000000E+00 -0.18033111822E+04  0.18033111822E+04  0.00000000000E+00 0. -1.
         25    2    1    2    0    0  0.49578732212E+02 -0.35962545064E+02 -0.14146730839E+04  0.14215126502E+04  0.12508766984E+03 0.  0.
         23    2    1    2    0    0 -0.49578732212E+02  0.35962545064E+02 -0.37418629020E+03  0.39625034016E+03  0.11509820576E+03 0.  0.
          5    1    3    3  502    0  0.86184548463E+01  0.40295730410E+02 -0.23196998477E+03  0.23563864260E+03  0.41800000000E+01 0.  1.
         -5    1    3    3    0  502  0.40960277365E+02 -0.76258275474E+02 -0.11827030991E+04  0.11858740076E+04  0.41800000000E+01 0.  1.
        -11    1    4    4    0    0 -0.46779059489E+01  0.60887677756E+02 -0.99047187665E+02  0.11635951827E+03  0.00000000000E+00 0.  1.
         11    1    4    4    0    0 -0.44900826263E+02 -0.24925132692E+02 -0.27513910253E+03  0.27989082189E+03  0.00000000000E+00 0. -1.
</event>
<event>
 8    1  0.3896452E-010  0.7524310E+02  0.7561462E-02  0.1343120E+00
          1   -1    0    0  501    0  0.00000000000E+00  0.00000000000E+00  0.19932168087E+03  0.19932168087E+03  0.00000000000E+00 0. -1.
         -1   -1    0    0    0  501 -0.00000000000E+00 -0.00000000000E+00 -0.89979315583E+02  0.89979315583E+02  0.00000000000E+00 0.  1.
         25    2    1    2    0    0 -0.10808681283E+02  0.15796122268E+02 -0.16496901259E+01  0.12655916083E+03  0.12509258428E+03 0.  0.
         23    2    1    2    0    0  0.10808681283E+02 -0.15796122268E+02  0.11099205542E+03  0.16274183563E+03  0.11747052239E+03 0.  0.
          5    1    3    3  502    0  0.22060399877E+02  0.44619167076E+02 -0.43246562637E+02  0.66070181573E+02  0.41800000000E+01 0.  1.
         -5    1    3    3    0  502 -0.32869081160E+02 -0.28823044808E+02  0.41596872511E+02  0.60488979252E+02  0.41800000000E+01 0.  1.
        -11    1    4    4    0    0  0.90215995458E+00 -0.35000016829E+02 -0.12649181209E+02  0.37226561161E+02  0.00000000000E+00 0.  1.
         11    1    4    4    0    0  0.99065213289E+01  0.19203894561E+02  0.12364123663E+03  0.12551527447E+03  0.00000000000E+00 0. -1.
</event>
<event>
 8    1  0.3896452E-010  0.1057858E+03  0.7561462E-02  0.1268579E+00
          1   -1    0    0  501    0  0.00000000000E+00  0.00000000000E+00  0.34202762108E+03  0.34202762108E+03  0.00000000000E+00 0. -1.
         -1   -1    0    0    0  501 -0.00000000000E+00 -0.00000000000E+00 -0.61497481078E+02  0.61497481078E+02  0.00000000000E+00 0.  1.
         25    2    1    2    0    0 -0.31110270412E+02 -0.20505012471E+02  0.25082983757E+03  0.28275669495E+03  0.12508971445E+03 0.  0.
         23    2    1    2    0    0  0.31110270412E+02  0.20505012471E+02  0.29700302425E+02  0.12076840720E+03  0.11097114829E+03 0.  0.
          5    1    3    3  502    0 -0.22836791346E+02 -0.72564445337E+02  0.12685066719E+03  0.14797189575E+03  0.41800000000E+01 0.  1.
         -5    1    3    3    0  502 -0.82734790663E+01  0.52059432866E+02  0.12397917038E+03  0.13478479920E+03  0.41800000000E+01 0.  1.
        -11    1    4    4    0    0  0.51436750546E+02 -0.28847275526E+01  0.58857782877E+02  0.78219559989E+02  0.00000000000E+00 0. -1.
         11    1    4    4    0    0 -0.20326480134E+02  0.23389740023E+02 -0.29157480451E+02  0.42548847214E+02  0.00000000000E+00 0.  1.
</event>
<event>
 8    1  0.3896452E-010  0.1444185E+03  0.7561462E-02  0.1207504E+00
         -2   -1    0    0    0  501 -0.00000000000E+00  0.00000000000E+00  0.14490793341E+03  0.14490793341E+03  0.00000000000E+00 0.  1.
          2   -1    0    0  501    0  0.00000000000E+00 -0.00000000000E+00 -0.19343838168E+03  0.19343838168E+03  0.00000000000E+00 0. -1.
         25    2    1    2    0    0  0.10318714767E+03 -0.45368812592E+02 -0.22176760883E+02  0.16983745867E+03  0.12508811712E+03 0.  0.
         23    2    1    2    0    0 -0.10318714767E+03  0.45368812592E+02 -0.26353687388E+02  0.16850885642E+03  0.12245326151E+03 0.  0.
          5    1    3    3  502    0  0.18113303039E+02 -0.74868205755E+02 -0.56878201953E+00  0.77143605652E+02  0.41800000000E+01 0. -1.
         -5    1    3    3    0  502  0.85073844628E+02  0.29499393163E+02 -0.21607978864E+02  0.92693853018E+02  0.41800000000E+01 0. -1.
        -11    1    4    4    0    0 -0.45069398388E+02 -0.40719805951E+01  0.45160404014E+02  0.63931946535E+02  0.00000000000E+00 0.  1.
         11    1    4    4    0    0 -0.58117749279E+02  0.49440793187E+02 -0.71514091402E+02  0.10457690989E+03  0.00000000000E+00 0. -1.
</event>
<event>
 8    1  0.3896452E-010  0.1058228E+03  0.7561462E-02  0.1268507E+00
          1   -1    0    0  501    0  0.00000000000E+00  0.00000000000E+00  0.60902404734E+03  0.60902404734E+03  0.00000000000E+00 0. -1.
         -1   -1    0    0    0  501 -0.00000000000E+00 -0.00000000000E+00 -0.23412562466E+02  0.23412562466E+02  0.00000000000E+00 0.  1.
         25    2    1    2    0    0 -0.21693818783E+02 -0.24517817866E+02  0.30041200533E+03  0.32705766583E+03  0.12509036201E+03 0.  0.
         23    2    1    2    0    0  0.21693818783E+02  0.24517817866E+02  0.28519947955E+03  0.30537894398E+03  0.10414322409E+03 0.  0.
          5    1    3    3  502    0 -0.60308844565E+01 -0.71539434331E+02  0.22903922870E+03  0.24006395588E+03  0.41800000000E+01 0.  1.
         -5    1    3    3    0  502 -0.15662934327E+02  0.47021616465E+02  0.71372776631E+02  0.86993709949E+02  0.41800000000E+01 0.  1.
        -11    1    4    4    0    0 -0.26128989538E+02  0.32295836287E+02  0.48900702421E+02  0.64164038471E+02  0.00000000000E+00 0.  1.
         11    1    4    4    0    0  0.47822808321E+02 -0.77780184204E+01  0.23629877713E+03  0.24121490551E+03  0.00000000000E+00 0. -1.
</event>
<event>
 8    1  0.3896452E-010  0.9061985E+02  0.7561462E-02  0.1301358E+00
         -1   -1    0    0    0  501 -0.00000000000E+00  0.00000000000E+00  0.68451782178E+02  0.68451782178E+02  0.00000000000E+00 0.  1.
          1   -1    0    0  501    0  0.00000000000E+00 -0.00000000000E+00 -0.27791218273E+03  0.27791218273E+03  0.00000000000E+00 0. -1.
         25    2    1    2    0    0 -0.33389608664E+02  0.61504052881E+02 -0.10172701865E+03  0.17576572774E+03  0.12509032830E+03 0.  0.
         23    2    1    2    0    0  0.33389608664E+02 -0.61504052881E+02 -0.10773338190E+03  0.17059823717E+03  0.11224821809E+03 0.  0.
          5    1    3    3  502    0  0.13553959296E+02  0.48572644000E+02  0.11980937232E+02  0.52000257833E+02  0.41800000000E+01 0.  1.
         -5    1    3    3    0  502 -0.46943567961E+02  0.12931408881E+02 -0.11370795589E+03  0.12376546990E+03  0.41800000000E+01 0.  1.
        -11    1    4    4    0    0  0.21536529366E+02 -0.65741731630E+02 -0.12871638859E+03  0.14612907331E+03  0.00000000000E+00 0. -1.
         11    1    4    4    0    0  0.11853079299E+02  0.42376787490E+01  0.20983006695E+02  0.24469163860E+02  0.00000000000E+00 0.  1.
</event>
<event>
 8    1  0.3896452E-010  0.1123578E+03  0.7561462E-02  0.1256265E+00
          2   -1    0    0  501    0  0.00000000000E+00  0.00000000000E+00  0.65972557238E+03  0.65972557238E+03  0.00000000000E+00 0. -1.
         -2   -1    0    0    0  501 -0.00000000000E+00 -0.00000000000E+00 -0.22102241568E+02  0.22102241568E+02  0.00000000000E+00 0.  1.
         25    2    1    2    0    0 -0.11380040441E+02  0.20113717548E+00  0.25926832564E+03  0.28809226613E+03  0.12509014087E+03 0.  0.
         23    2    1    2    0    0  0.11380040441E+02 -0.20113717548E+00  0.37835500517E+03  0.39373554782E+03  0.10837723887E+03 0.  0.
          5    1    3    3  502    0 -0.53588020568E+02 -0.34507685214E+02  0.91426603009E+02  0.11152915504E+03  0.41800000000E+01 0. -1.
         -5    1    3    3    0  502  0.42207980127E+02  0.34708822390E+02  0.16784172264E+03  0.17656311108E+03  0.41800000000E+01 0. -1.
        -11    1    4    4    0    0 -0.39216815881E+01 -0.51936631836E+02  0.14062708943E+03  0.14996256731E+03  0.00000000000E+00 0.  1.
         11    1    4    4    0    0  0.15301722029E+02  0.51735494660E+02  0.23772791575E+03  0.24377298052E+03  0.00000000000E+00 0. -1.
</event>
<event>
 8    1  0.3896452E-010  0.1483125E+03  0.7561462E-02  0.1202562E+00
         -2   -1    0    0    0  501 -0.00000000000E+00  0.00000000000E+00  0.81035799204E+02  0.81035799204E+02  0.00000000000E+00 0.  1.
          2   -1    0    0  501    0  0.00000000000E+00 -0.00000000000E+00 -0.35775774546E+03  0.35775774546E+03  0.00000000000E+00 0. -1.
         25    2    1    2    0    0  0.12928354772E+03  0.51651718189E+02 -0.13230845787E+03  0.22920021582E+03  0.12508027506E+03 0.  0.
         23    2    1    2    0    0 -0.12928354772E+03 -0.51651718189E+02 -0.14441348839E+03  0.20959332884E+03  0.60761601061E+02 0.  0.
          5    1    3    3  502    0  0.94033712018E+02  0.16635860002E+00 -0.13729846152E+03  0.16646533155E+03  0.41800000000E+01 0.  1.
         -5    1    3    3    0  502  0.35249835699E+02  0.51485359589E+02  0.49900036519E+01  0.62734884277E+02  0.41800000000E+01 0.  1.
        -11    1    4    4    0    0 -0.10535834020E+03 -0.47933384563E+02 -0.14479968296E+03  0.18537782336E+03  0.00000000000E+00 0. -1.
         11    1    4    4    0    0 -0.23925207512E+02 -0.37183336265E+01  0.38619457716E+00  0.24215505481E+02  0.00000000000E+00 0.  1.
</event>
<event>
 8    1  0.3896452E-010  0.9677379E+02  0.7561462E-02  0.1287230E+00
         -2   -1    0    0    0  501 -0.00000000000E+00  0.00000000000E+00  0.19732727026E+02  0.19732727026E+02  0.00000000000E+00 0.  1.
          2   -1    0    0  501    0  0.00000000000E+00 -0.00000000000E+00 -0.67597236099E+03  0.67597236099E+03  0.00000000000E+00 0. -1.
         25    2    1    2    0    0  0.56174884836E+01 -0.15712033442E+01 -0.35627599877E+03  0.37764486211E+03  0.12509608194E+03 0.  0.
         23    2    1    2    0    0 -0.56174884836E+01  0.15712033442E+01 -0.29996363519E+03  0.31806022591E+03  0.10559403398E+03 0.  0.
          5    1    3    3  502    0 -0.24427724225E+02 -0.45101921835E+02 -0.28024669954E+03  0.28493259215E+03  0.41800000000E+01 0.  1.
         -5    1    3    3    0  502  0.30045212709E+02  0.43530718491E+02 -0.76029299232E+02  0.92712269958E+02  0.41800000000E+01 0.  1.
        -11    1    4    4    0    0 -0.47124441387E+02  0.49484038157E+01 -0.71124935892E+02  0.85463186121E+02  0.00000000000E+00 0.  1.
         11    1    4    4    0    0  0.41506952903E+02 -0.33772004715E+01 -0.22883869930E+03  0.23259703979E+03  0.00000000000E+00 0. -1.
</event>
<event>
 8    1  0.3896452E-010  0.2032709E+03  0.7561462E-02  0.1147008E+00
          2   -1    0    0  501    0  0.00000000000E+00  0.00000000000E+00  0.65694598281E+03  0.65694598281E+03  0.00000000000E+00 0.  1.
         -2   -1    0    0    0  501 -0.00000000000E+00 -0.00000000000E+00 -0.79036035717E+02  0.79036035717E+02  0.00000000000E+00 0. -1.
         25    2    1    2    0    0 -0.97593188961E+02  0.16858970089E+03  0.20386769816E+03  0.30847396701E+03  0.12508889716E+03 0.  0.
         23    2    1    2    0    0  0.97593188961E+02 -0.16858970089E+03  0.37404224894E+03  0.42750805152E+03  0.70061489770E+02 0.  0.
          5    1    3    3  502    0 -0.87875598401E+02  0.10447137023E+03  0.20152521594E+03  0.24344665340E+03  0.41800000000E+01 0.  1.
         -5    1    3    3    0  502 -0.97175905594E+01  0.64118330655E+02  0.23424822186E+01  0.65027313609E+02  0.41800000000E+01 0.  1.
        -11    1    4    4    0    0  0.55504113851E+02 -0.14811369945E+03  0.26141749966E+03  0.30554456917E+03  0.00000000000E+00 0.  1.
         11    1    4    4    0    0  0.42089075110E+02 -0.20476001441E+02  0.11262474928E+03  0.12196348236E+03  0.00000000000E+00 0. -1.
</event>
<event>
 8    1  0.3896452E-010  0.1370628E+03  0.7561462E-02  0.1217337E+00
         -2   -1    0    0    0  501 -0.00000000000E+00  0.00000000000E+00  0.13927176163E+03  0.13927176163E+03  0.00000000000E+00 0. -1.
          2   -1    0    0  501    0  0.00000000000E+00 -0.00000000000E+00 -0.18651870250E+03  0.18651870250E+03  0.00000000000E+00 0.  1.
         25    2    1    2    0    0 -0.74236565276E+02 -0.56863304291E+02  0.38388131882E+02  0.16082238366E+03  0.12508272230E+03 0.  0.
         23    2    1    2    0    0  0.74236565276E+02  0.56863304291E+02 -0.85635072754E+02  0.16496808047E+03  0.10553008524E+03 0.  0.
          5    1    3    3  502    0  0.28013843012E+02  0.88923156862E+01  0.24308771444E+02  0.38369746515E+02  0.41800000000E+01 0.  1.
         -5    1    3    3    0  502 -0.10225040829E+03 -0.65755619977E+02  0.14079360438E+02  0.12245263715E+03  0.41800000000E+01 0.  1.
        -11    1    4    4    0    0 -0.15008650099E+02  0.22750768294E+02 -0.60223519242E+02  0.66103928065E+02  0.00000000000E+00 0.  1.
         11    1    4    4    0    0  0.89245215376E+02  0.34112535997E+02 -0.25411553512E+02  0.98864152409E+02  0.00000000000E+00 0. -1.
</event>
<event>
 8    1  0.3896452E-010  0.9559990E+02  0.7561462E-02  0.1289831E+00
          1   -1    0    0  501    0  0.00000000000E+00  0.00000000000E+00  0.53615610797E+03  0.53615610797E+03  0.00000000000E+00 0.  1.
         -1   -1    0    0    0  501 -0.00000000000E+00 -0.00000000000E+00 -0.22047512474E+02  0.22047512474E+02  0.00000000000E+00 0. -1.
         25    2    1    2    0    0  0.23942581923E+02  0.43495726689E+02  0.37155478166E+03  0.39517707829E+03  0.12508733734E+03 0.  0.
         23    2    1    2    0    0 -0.23942581923E+02 -0.43495726689E+02  0.14255381384E+03  0.16302654216E+03  0.61570594753E+02 0.  0.
          5    1    3    3  502    0 -0.41001543758E+02  0.26574635495E+02  0.65504565695E+02  0.81827002690E+02  0.41800000000E+01 0.  1.
         -5    1    3    3    0  502  0.64944125681E+02  0.16921091194E+02  0.30605021596E+03  0.31335007560E+03  0.41800000000E+01 0.  1.
        -11    1    4    4    0    0  0.18514642319E+02 -0.12182503114E+02  0.69268294671E+02  0.72727587674E+02  0.00000000000E+00 0.  1.
         11    1    4    4    0    0 -0.42457224242E+02 -0.31313223575E+02  0.73285519172E+02  0.90298954486E+02  0.00000000000E+00 0. -1.
</event>
<event>
 8    1  0.3896452E-010  0.1498547E+03  0.7561462E-02  0.1200652E+00
          1   -1    0    0  501    0  0.00000000000E+00  0.00000000000E+00  0.35413370001E+03  0.35413370001E+03  0.00000000000E+00 0. -1.
         -1   -1    0    0    0  501 -0.00000000000E+00 -0.00000000000E+00 -0.75587586474E+02  0.75587586474E+02  0.00000000000E+00 0.  1.
         25    2    1    2    0    0 -0.11072026771E+03  0.23085805301E+02  0.14811966708E+03  0.22445700772E+03  0.12509828317E+03 0.  0.
         23    2    1    2    0    0  0.11072026771E+03 -0.23085805301E+02  0.13042644646E+03  0.20526427876E+03  0.11104248788E+03 0.  0.
          5    1    3    3  502    0 -0.12658653492E+03  0.48496836726E+02  0.10374173843E+03  0.17075103129E+03  0.41800000000E+01 0.  1.
         -5    1    3    3    0  502  0.15866267209E+02 -0.25411031425E+02  0.44377928649E+02  0.53705976431E+02  0.41800000000E+01 0.  1.
        -11    1    4    4    0    0  0.69418022236E+02  0.21878541099E+02  0.14458769190E+02  0.74206390414E+02  0.00000000000E+00 0.  1.
         11    1    4    4    0    0  0.41302245471E+02 -0.44964346400E+02  0.11596767727E+03  0.13105788835E+03  0.00000000000E+00 0. -1.
</event>
<event>
 8    1  0.3896452E-010  0.9365073E+02  0.7561462E-02  0.1294244E+00
         -2   -1    0    0    0  501 -0.00000000000E+00  0.00000000000E+00  0.21958126932E+03  0.21958126932E+03  0.00000000000E+00 0.  1.
          2   -1    0    0  501    0  0.00000000000E+00 -0.00000000000E+00 -0.77031434615E+02  0.77031434615E+02  0.00000000000E+00 0. -1.
         25    2    1    2    0    0 -0.30306261481E+02  0.71102428207E+02  0.59195643356E+02  0.15851313918E+03  0.12509303066E+03 0.  0.
         23    2    1    2    0    0  0.30306261481E+02 -0.71102428207E+02  0.83354191346E+02  0.13809956475E+03  0.78419026941E+02 0.  0.
          5    1    3    3  502    0 -0.21784506560E+02  0.45948533272E+02 -0.34134478755E+02  0.61387844691E+02  0.41800000000E+01 0. -1.
         -5    1    3    3    0  502 -0.85217549219E+01  0.25153894934E+02  0.93330122111E+02  0.97125294494E+02  0.41800000000E+01 0. -1.
        -11    1    4    4    0    0  0.17967774351E+02 -0.87244856552E+02  0.73663470553E+02  0.11558898219E+03  0.00000000000E+00 0. -1.
         11    1    4    4    0    0  0.12338487130E+02  0.16142428345E+02  0.96907207929E+01  0.22510582556E+02  0.00000000000E+00 0.  1.
</event>
<event>
 8    1  0.3896452E-010  0.9222546E+02  0.7561462E-02  0.1297550E+00
          1   -1    0    0  501    0  0.00000000000E+00  0.00000000000E+00  0.35351350672E+03  0.35351350672E+03  0.00000000000E+00 0. -1.
         -1   -1    0    0    0  501 -0.00000000000E+00 -0.00000000000E+00 -0.36615456004E+02  0.36615456004E+02  0.00000000000E+00 0.  1.
         25    2    1    2    0    0  0.91413651915E+01  0.40781654430E+02  0.12010065923E+03  0.17837696760E+03  0.12508983303E+03 0.  0.
         23    2    1    2    0    0 -0.91413651915E+01 -0.40781654430E+02  0.19679739149E+03  0.21175199512E+03  0.66052904905E+02 0.  0.
          5    1    3    3  502    0  0.53184125070E+02  0.88918821770E+01  0.11046744210E+03  0.12299652390E+03  0.41800000000E+01 0.  1.
         -5    1    3    3    0  502 -0.44042759878E+02  0.31889772253E+02  0.96332171291E+01  0.55380443699E+02  0.41800000000E+01 0.  1.
        -11    1    4    4    0    0 -0.56511263825E+01 -0.57993659074E+02  0.12618995261E+03  0.13899317920E+03  0.00000000000E+00 0.  1.
         11    1    4    4    0    0 -0.34902388089E+01  0.17212004644E+02  0.70607438872E+02  0.72758815925E+02  0.00000000000E+00 0. -1.
</event>
<event>
 8    1  0.3896452E-010  0.8171517E+02  0.7561462E-02  0.1324253E+00
          1   -1    0    0  501    0  0.00000000000E+00  0.00000000000E+00  0.21549278507E+03  0.21549278507E+03  0.00000000000E+00 0. -1.
         -1   -1    0    0    0  501 -0.00000000000E+00 -0.00000000000E+00 -0.91837469123E+02  0.91837469123E+02  0.00000000000E+00 0.  1.
         25    2    1    2    0    0 -0.17499011946E+02 -0.33912937268E+01 -0.36759661501E+02  0.13159743298E+03  0.12509554493E+03 0.  0.
         23    2    1    2    0    0  0.17499011946E+02  0.33912937268E+01  0.16041497745E+03  0.17573282122E+03  0.69507864094E+02 0.  0.
          5    1    3    3  502    0  0.42267297130E+02 -0.68196560774E+01  0.21384150292E+02  0.48039425469E+02  0.41800000000E+01 0. -1.
         -5    1    3    3    0  502 -0.59766309077E+02  0.34283623506E+01 -0.58143811792E+02  0.83558007508E+02  0.41800000000E+01 0. -1.
        -11    1    4    4    0    0  0.37069554634E+02 -0.77669640806E+01  0.48310361928E+02  0.61387040012E+02  0.00000000000E+00 0.  1.
         11    1    4    4    0    0 -0.19570542688E+02  0.11158257807E+02  0.11210461552E+03  0.11434578121E+03  0.00000000000E+00 0. -1.
</event>
<event>
 8    1  0.3896452E-010  0.1416078E+03  0.7561462E-02  0.1211182E+00
         -1   -1    0    0    0  501 -0.00000000000E+00  0.00000000000E+00  0.30263472697E+02  0.30263472697E+02  0.00000000000E+00 0.  1.
          1   -1    0    0  501    0  0.00000000000E+00 -0.00000000000E+00 -0.85891280256E+03  0.85891280256E+03  0.00000000000E+00 0. -1.
         25    2    1    2    0    0 -0.11626881121E+03  0.11535374855E+02 -0.58263690133E+03  0.60726034642E+03  0.12509143941E+03 0.  0.
         23    2    1    2    0    0  0.11626881121E+03 -0.11535374855E+02 -0.24601242854E+03  0.28191592883E+03  0.72821525682E+02 0.  0.
          5    1    3    3  502    0 -0.94255438401E+02 -0.45127819779E+02 -0.28833169988E+03  0.30671362758E+03  0.41800000000E+01 0.  1.
         -5    1    3    3    0  502 -0.22013372813E+02  0.56663194633E+02 -0.29430520145E+03  0.30054671884E+03  0.41800000000E+01 0.  1.
        -11    1    4    4    0    0  0.34203550665E+02 -0.99339936533E+01 -0.18678035188E+02  0.40217360760E+02  0.00000000000E+00 0.  1.
         11    1    4    4    0    0  0.82065260549E+02 -0.16013812012E+01 -0.22733439335E+03  0.24169856807E+03  0.00000000000E+00 0. -1.
</event>
<event>
 8    1  0.3896452E-010  0.1481666E+03  0.7561462E-02  0.1202744E+00
         -2   -1    0    0    0  501 -0.00000000000E+00  0.00000000000E+00  0.24387062450E+03  0.24387062450E+03  0.00000000000E+00 0. -1.
          2   -1    0    0  501    0  0.00000000000E+00 -0.00000000000E+00 -0.94431874222E+02  0.94431874222E+02  0.00000000000E+00 0.  1.
         25    2    1    2    0    0  0.12161961466E+02  0.87914363417E+02  0.11312064527E+03  0.19057875398E+03  0.12508849860E+03 0.  0.
         23    2    1    2    0    0 -0.12161961466E+02 -0.87914363417E+02  0.36318105006E+02  0.14772374474E+03  0.11236748376E+03 0.  0.
          5    1    3    3  502    0 -0.28424891506E+02 -0.21947308937E+02  0.25152300830E+02  0.44042813985E+02  0.41800000000E+01 0.  1.
         -5    1    3    3    0  502  0.40586852973E+02  0.10986167235E+03  0.87968344440E+02  0.14653593999E+03  0.41800000000E+01 0.  1.
        -11    1    4    4    0    0  0.46882432592E+02 -0.63877404975E+02  0.16197476030E+02  0.80874245480E+02  0.00000000000E+00 0. -1.
         11    1    4    4    0    0 -0.59044394059E+02 -0.24036958441E+02  0.20120628976E+02  0.66849499259E+02  0.00000000000E+00 0.  1.
</event>
<event>
 7    1  0.3896452E-010  0.1379625E+03  0.7561462E-02  0.1216097E+00
          1   -1    0    0  501    0  0.00000000000E+00  0.00000000000E+00  0.32453005814E+03  0.32453005814E+03  0.00000000000E+00 0. -1.
         -1   -1    0    0    0  501 -0.00000000000E+00 -0.00000000000E+00 -0.95730216969E+02  0.95730216969E+02  0.00000000000E+00 0.  1.
         25    2    1    2    0    0  0.91140869509E+01 -0.55753536468E+02  0.18001910351E+03  0.22637642234E+03  0.12509150073E+03 0.  0.
          5    1    3    3  502    0  0.49631412137E+02 -0.74633189611E+01  0.19735346491E+02  0.54091907914E+02  0.41800000000E+01 0.  1.
         -5    1    3    3    0  502 -0.40517325186E+02 -0.48290217507E+02  0.16028375702E+03  0.17228451443E+03  0.41800000000E+01 0.  1.
        -11    1    1    2    0    0  0.55850322444E+02 -0.22909205604E+02 -0.27661349760E+02  0.66402112083E+02  0.00000000000E+00 0.  1.
         11    1    1    2    0    0 -0.64964409395E+02  0.78662742071E+02  0.76442087416E+02  0.12748174068E+03  0.00000000000E+00 0. -1.
</event>
<event>
 8    1  0.3896452E-010  0.6852758E+02  0.7561462E-02  0.1365173E+00
          2   -1    0    0  501    0  0.00000000000E+00  0.00000000000E+00  0.70111630941E+03  0.70111630941E+03  0.00000000000E+00 0.  1.
         -2   -1    0    0    0  501 -0.00000000000E+00 -0.00000000000E+00 -0.16742148149E+02  0.16742148149E+02  0.00000000000E+00 0. -1.
         25    2    1    2    0    0 -0.31410464948E+02  0.15258536406E+02  0.49238631738E+03  0.50922559765E+03  0.12508790313E+03 0.  0.
         23    2    1    2    0    0  0.31410464948E+02 -0.15258536406E+02  0.19198784388E+03  0.20863285992E+03  0.73816649865E+02 0.  0.
          5    1    3    3  502    0 -0.22254061658E+02  0.32877391860E+02  0.40442013150E+02  0.56826006224E+02  0.41800000000E+01 0.  1.
         -5    1    3    3    0  502 -0.91564032902E+01 -0.17618855455E+02  0.45194430423E+03  0.45239959142E+03  0.41800000000E+01 0.  1.
        -11    1    4    4    0    0 -0.14225640785E+02  0.16090508282E+02  0.90619033912E+02  0.93129386445E+02  0.00000000000E+00 0.  1.
         11    1    4    4    0    0  0.45636105733E+02 -0.31349044688E+02  0.10136880997E+03  0.11550347347E+03  0.00000000000E+00 0. -1.
</event>
<event>
 8    1  0.3896452E-010  0.1106088E+03  0.7561462E-02  0.1259447E+00
          1   -1    0    0  501    0  0.00000000000E+00  0.00000000000E+00  0.17768352259E+03  0.17768352259E+03  0.00000000000E+00 0. -1.
         -1   -1    0    0    0  501 -0.00000000000E+00 -0.00000000000E+00 -0.11594197704E+03  0.11594197704E+03  0.00000000000E+00 0.  1.
         25    2    1    2    0    0 -0.56379630631E+02 -0.52164018732E+02 -0.33450650041E+02  0.15055412345E+03  0.12509136861E+03 0.  0.
         23    2    1    2    0    0  0.56379630631E+02  0.52164018732E+02  0.95192195582E+02  0.14307137618E+03  0.74216689369E+02 0.  0.
          5    1    3    3  502    0 -0.76910795360E+02 -0.66625816587E+02  0.77350251392E+01  0.10213507181E+03  0.41800000000E+01 0. -1.
         -5    1    3    3    0  502  0.20531164729E+02  0.14461797855E+02 -0.41185675180E+02  0.48419051647E+02  0.41800000000E+01 0. -1.
        -11    1    4    4    0    0  0.11675155780E+02  0.47564838453E+02  0.83221984139E+02  0.96564081125E+02  0.00000000000E+00 0. -1.
         11    1    4    4    0    0  0.44704474852E+02  0.45991802795E+01  0.11970211443E+02  0.46507295051E+02  0.00000000000E+00 0.  1.
</event>
<event>
 8    1  0.3896452E-010  0.1105471E+03  0.7561462E-02  0.1259560E+00
          1   -1    0    0  501    0  0.00000000000E+00  0.00000000000E+00  0.68761367286E+03  0.68761367286E+03  0.00000000000E+00 0. -1.
         -1   -1    0    0    0  501 -0.00000000000E+00 -0.00000000000E+00 -0.25684218617E+02  0.25684218617E+02  0.00000000000E+00 0.  1.
         25    2    1    2    0    0 -0.56088891115E+02 -0.23496856857E+02  0.53395239426E+03  0.55177038164E+03  0.12508928303E+03 0.  0.
         23    2    1    2    0    0  0.56088891115E+02  0.23496856857E+02  0.12797705998E+03  0.16152750984E+03  0.77556060785E+02 0.  0.
          5    1    3    3  502    0 -0.69150954772E+02  0.23937857672E+02  0.43554916992E+03  0.44167343976E+03  0.41800000000E+01 0.  1.
         -5    1    3    3    0  502  0.13062063657E+02 -0.47434714529E+02  0.98403224347E+02  0.11009694188E+03  0.41800000000E+01 0.  1.
        -11    1    4    4    0    0 -0.16812570943E+02  0.19014332031E+02  0.36775954539E+02  0.44684205225E+02  0.00000000000E+00 0. -1.
         11    1    4    4    0    0  0.72901462059E+02  0.44825248251E+01  0.91201105443E+02  0.11684330461E+03  0.00000000000E+00 0.  1.
</event>
<event>
 7    1  0.3896452E-010  0.7711939E+02  0.7561462E-02  0.1337431E+00
         -1   -1    0    0    0  501 -0.00000000000E+00  0.00000000000E+00  0.14848135538E+03  0.14848135538E+03  0.00000000000E+00 0.  1.
          1   -1    0    0  501    0  0.00000000000E+00 -0.00000000000E+00 -0.75649921891E+02  0.75649921891E+02  0.00000000000E+00 0. -1.
         25    2    1    2    0    0  0.33436304992E+02  0.19976637888E+02  0.64425433148E+01  0.13117037911E+03  0.12508840649E+03 0.  0.
          5    1    3    3  502    0 -0.29090126383E+02 -0.10901445107E+02  0.42297386640E+02  0.52646161066E+02  0.41800000000E+01 0.  1.
         -5    1    3    3    0  502  0.62526431374E+02  0.30878082995E+02 -0.35854843325E+02  0.78524218046E+02  0.41800000000E+01 0.  1.
        -11    1    1    2    0    0 -0.81445439710E+01 -0.25820498530E+02  0.60588491771E+02  0.66362618061E+02  0.00000000000E+00 0.  1.
         11    1    1    2    0    0 -0.25291761021E+02  0.58438606414E+01  0.58003984065E+01  0.26598280102E+02  0.00000000000E+00 0. -1.
</event>
<event>
 8    1  0.3896452E-010  0.1741182E+03  0.7561462E-02  0.1173620E+00
         -2   -1    0    0    0  501 -0.00000000000E+00  0.00000000000E+00  0.44822275196E+02  0.44822275196E+02  0.00000000000E+00 0.  1.
          2   -1    0    0  501    0  0.00000000000E+00 -0.00000000000E+00 -0.81882570001E+03  0.81882570001E+03  0.00000000000E+00 0. -1.
         25    2    1    2    0    0 -0.43448566439E+02  0.15681180094E+03 -0.40524577000E+03  0.45425701025E+03  0.12509028110E+03 0.  0.
         23    2    1    2    0    0  0.43448566439E+02 -0.15681180094E+03 -0.36875765482E+03  0.40939096495E+03  0.71701013651E+02 0.  0.
          5    1    3    3  502    0 -0.31044500158E+02  0.45797588617E+01 -0.14735274868E+02  0.34918990631E+02  0.41800000000E+01 0.  1.
         -5    1    3    3    0  502 -0.12404066281E+02  0.15223204208E+03 -0.39051049513E+03  0.41933801962E+03  0.41800000000E+01 0.  1.
        -11    1    4    4    0    0  0.10548660218E+02 -0.72811078011E+02 -0.24783242703E+03  0.25852202846E+03  0.00000000000E+00 0. -1.
         11    1    4    4    0    0  0.32899906221E+02 -0.84000722926E+02 -0.12092522779E+03  0.15086893649E+03  0.00000000000E+00 0.  1.
</event>
<event>
 8    1  0.3896452E-010  0.1052684E+03  0.7561462E-02  0.1269592E+00
         -1   -1    0    0    0  501 -0.00000000000E+00  0.00000000000E+00  0.16276779884E+02  0.16276779884E+02  0.00000000000E+00 0.  1.
          1   -1    0    0  501    0  0.00000000000E+00 -0.00000000000E+00 -0.10331054752E+04  0.10331054752E+04  0.00000000000E+00 0. -1.
         25    2    1    2    0    0  0.66924762630E+02  0.41536043017E+02 -0.68534632121E+03  0.70110747004E+03  0.12509171767E+03 0.  0.
         23    2    1    2    0    0 -0.66924762630E+02 -0.41536043017E+02 -0.33148237416E+03  0.34827478509E+03  0.72184450073E+02 0.  0.
          5    1    3    3  502    0  0.21025911943E+01 -0.20303175826E+02 -0.42935588715E+03  0.42986112882E+03  0.41800000000E+01 0.  1.
         -5    1    3    3    0  502  0.64822171436E+02  0.61839218844E+02 -0.25599043405E+03  0.27124634122E+03  0.41800000000E+01 0.  1.
        -11    1    4    4    0    0 -0.31935920813E+02 -0.54114136922E+02 -0.14355208658E+03  0.15670176902E+03  0.00000000000E+00 0. -1.
         11    1    4    4    0    0 -0.34988841817E+02  0.12578093905E+02 -0.18793028758E+03  0.19157301607E+03  0.00000000000E+00 0.  1.
</event>
<event>
 8    1  0.3896452E-010  0.1172122E+03  0.7561462E-02  0.1247768E+00
         -1   -1    0    0    0  501 -0.00000000000E+00  0.00000000000E+00  0.43200770113E+02  0.43200770113E+02  0.00000000000E+00 0.  1.
          1   -1    0    0  501    0  0.00000000000E+00 -0.00000000000E+00 -0.38637743296E+03  0.38637743296E+03  0.00000000000E+00 0. -1.
         25    2    1    2    0    0 -0.35024477150E+02  0.46313848689E+02 -0.19129079601E+03  0.23581903329E+03  0.12508701470E+03 0.  0.
         23    2    1    2    0    0  0.35024477150E+02 -0.46313848689E+02 -0.15188586684E+03  0.19375916978E+03  0.10536419101E+03 0.  0.
          5    1    3    3  502    0  0.39257927700E+02  0.49513587827E+02 -0.83185611242E+02  0.10454711179E+03  0.41800000000E+01 0. -1.
         -5    1    3    3    0  502 -0.74282404850E+02 -0.31997391376E+01 -0.10810518477E+03  0.13127192150E+03  0.41800000000E+01 0. -1.
        -11    1    4    4    0    0  0.56428434743E+01 -0.62722737400E+02 -0.14678172185E+03  0.15972118626E+03  0.00000000000E+00 0. -1.
         11    1    4    4    0    0  0.29381633676E+02  0.16408888711E+02 -0.51041449856E+01  0.34037983522E+02  0.00000000000E+00 0.  1.
</event>
<event>
 7    1  0.3896452E-010  0.1042604E+03  0.7561462E-02  0.1271584E+00
          2   -1    0    0  501    0  0.00000000000E+00  0.00000000000E+00  0.62196501341E+02  0.62196501341E+02  0.00000000000E+00 0. -1.
         -2   -1    0    0    0  501 -0.00000000000E+00 -0.00000000000E+00 -0.28266684413E+03  0.28266684413E+03  0.00000000000E+00 0.  1.
         25    2    1    2    0    0 -0.42865098478E+02 -0.79924588679E+02 -0.16903966293E+03  0.22901303479E+03  0.12508879212E+03 0.  0.
          5    1    3    3  502    0  0.11634620540E+02 -0.25432713861E+02 -0.14564289217E+03  0.14836277083E+03  0.41800000000E+01 0. -1.
         -5    1    3    3    0  502 -0.54499719018E+02 -0.54491874818E+02 -0.23396770767E+02  0.80650263958E+02  0.41800000000E+01 0. -1.
        -11    1    1    2    0    0  0.41192313407E+02  0.25155710966E+02 -0.31036597424E+02  0.57383681109E+02  0.00000000000E+00 0.  1.
         11    1    1    2    0    0  0.16727850711E+01  0.54768877713E+02 -0.20394082434E+02  0.58466629577E+02  0.00000000000E+00 0. -1.
</event>
<event>
 7    1  0.3896452E-010  0.9843924E+02  0.7561462E-02  0.1283613E+00
         -2   -1    0    0    0  501 -0.00000000000E+00  0.00000000000E+00  0.29968261800E+02  0.29968261800E+02  0.00000000000E+00 0. -1.
          2   -1    0    0  501    0  0.00000000000E+00 -0.00000000000E+00 -0.75169932547E+03  0.75169932547E+03  0.00000000000E+00 0.  1.
         25    2    1    2    0    0 -0.34995278460E+02 -0.73403820540E+02 -0.19018769205E+03  0.24172623629E+03  0.12508966671E+03 0.  0.
          5    1    3    3  502    0 -0.49561636391E+02 -0.35229356503E+02 -0.19116068533E+03  0.20064232698E+03  0.41800000000E+01 0. -1.
         -5    1    3    3    0  502  0.14566357930E+02 -0.38174464037E+02  0.97299328151E+00  0.41083909306E+02  0.41800000000E+01 0. -1.
        -11    1    1    2    0    0  0.21292295088E+02  0.11599509397E+01 -0.12146229859E+03  0.12331989821E+03  0.00000000000E+00 0.  1.
         11    1    1    2    0    0  0.13702983372E+02  0.72243869600E+02 -0.41008107304E+03  0.41662145278E+03  0.00000000000E+00 0. -1.
</event>
<event>
 8    1  0.3896452E-010  0.1219605E+03  0.7561462E-02  0.1239897E+00
          1   -1    0    0  501    0  0.00000000000E+00  0.00000000000E+00  0.89891779146E+03  0.89891779146E+03  0.00000000000E+00 0. -1.
         -1   -1    0    0    0  501 -0.00000000000E+00 -0.00000000000E+00 -0.23492598756E+02  0.23492598756E+02  0.00000000000E+00 0.  1.
         25    2    1    2    0    0 -0.74644665139E+02  0.34525331277E+02  0.69639807515E+03  0.71230682806E+03  0.12508762407E+03 0.  0.
         23    2    1    2    0    0  0.74644665139E+02 -0.34525331277E+02  0.17902711755E+03  0.21010356215E+03  0.72999818334E+02 0.  0.
          5    1    3    3  502    0 -0.78579384283E+02 -0.29475696325E+02  0.44216705235E+03  0.45008078263E+03  0.41800000000E+01 0. -1.
         -5    1    3    3    0  502  0.39347191448E+01  0.64001027603E+02  0.25423102280E+03  0.26222604543E+03  0.41800000000E+01 0. -1.
        -11    1    4    4    0    0  0.38698306198E+02  0.84460459290E+01  0.26614171186E+02  0.47720107946E+02  0.00000000000E+00 0.  1.
         11    1    4    4    0    0  0.35946358940E+02 -0.42971377207E+02  0.15241294637E+03  0.16238345421E+03  0.00000000000E+00 0. -1.
</event>
<event>
 8    1  0.3896452E-010  0.8444385E+02  0.7561462E-02  0.1316893E+00
          1   -1    0    0  501    0  0.00000000000E+00  0.00000000000E+00  0.31192781192E+02  0.31192781192E+02  0.00000000000E+00 0. -1.
         -1   -1    0    0    0  501 -0.00000000000E+00 -0.00000000000E+00 -0.40632973248E+03  0.40632973248E+03  0.00000000000E+00 0.  1.
         25    2    1    2    0    0  0.18199272040E+02  0.57126824193E+02 -0.22417837075E+03  0.26362394646E+03  0.12508779192E+03 0.  0.
         23    2    1    2    0    0 -0.18199272040E+02 -0.57126824193E+02 -0.15095858054E+03  0.17389856721E+03  0.62109025880E+02 0.  0.
          5    1    3    3  502    0  0.37036477748E+02  0.13689477757E+01 -0.62089383474E+01  0.37810025356E+02  0.41800000000E+01 0. -1.
         -5    1    3    3    0  502 -0.18837205708E+02  0.55757876417E+02 -0.21796943240E+03  0.22581392110E+03  0.41800000000E+01 0. -1.
        -11    1    4    4    0    0 -0.29320941630E+02 -0.53290081560E+02 -0.15027065596E+03  0.16211360354E+03  0.00000000000E+00 0.  1.
         11    1    4    4    0    0  0.11121669590E+02 -0.38367426329E+01 -0.68792457673E+00  0.11784963671E+02  0.00000000000E+00 0. -1.
</event>
<event>
 8    1  0.3896452E-010  0.7781133E+02  0.7561462E-02  0.1335380E+00
         -2   -1    0    0    0  501 -0.00000000000E+00  0.00000000000E+00  0.22427588843E+02  0.22427588843E+02  0.00000000000E+00 0.  1.
          2   -1    0    0  501    0  0.00000000000E+00 -0.00000000000E+00 -0.61428325219E+03  0.61428325219E+03  0.00000000000E+00 0. -1.
         25    2    1    2    0    0 -0.51733110136E+02 -0.38884850864E+02 -0.30674228770E+03  0.33752967578E+03  0.12508838738E+03 0.  0.
         23    2    1    2    0    0  0.51733110136E+02  0.38884850864E+02 -0.28511337565E+03  0.29918116526E+03  0.63493199314E+02 0.  0.
          5    1    3    3  502    0 -0.40282199087E+02 -0.33949655974E+02 -0.31667180132E+03  0.32105098794E+03  0.41800000000E+01 0.  1.
         -5    1    3    3    0  502 -0.11450911050E+02 -0.49351948901E+01  0.99295136164E+01  0.16478687846E+02  0.41800000000E+01 0.  1.
        -11    1    4    4    0    0  0.40041208799E+02  0.56033802378E+02 -0.23646969942E+03  0.24629454756E+03  0.00000000000E+00 0. -1.
         11    1    4    4    0    0  0.11691901337E+02 -0.17148951514E+02 -0.48643676226E+02  0.52886617699E+02  0.00000000000E+00 0.  1.
</event>
<event>
 8    1  0.3896452E-010  0.9037194E+02  0.7561462E-02  0.1301953E+00
         -2   -1    0    0    0  501 -0.00000000000E+00  0.00000000000E+00  0.24888928471E+02  0.24888928471E+02  0.00000000000E+00 0.  1.
          2   -1    0    0  501    0  0.00000000000E+00 -0.00000000000E+00 -0.10070768474E+04  0.10070768474E+04  0.00000000000E+00 0. -1.
         25    2    1    2    0    0 -0.25750001510E+02 -0.39387650359E+01 -0.85385333606E+03  0.86336108483E+03  0.12509303278E+03 0.  0.
         23    2    1    2    0    0  0.25750001510E+02  0.39387650359E+01 -0.12833458289E+03  0.16860469107E+03  0.10620357920E+03 0.  0.
          5    1    3    3  502    0  0.24052582586E+02 -0.56554863064E+01 -0.72056515340E+03  0.72100077944E+03  0.41800000000E+01 0. -1.
         -5    1    3    3    0  502 -0.49802584096E+02  0.17167212704E+01 -0.13328818266E+03  0.14236030539E+03  0.41800000000E+01 0. -1.
        -11    1    4    4    0    0 -0.28836295221E+01 -0.47082235002E+02 -0.36185332080E+02  0.59451075934E+02  0.00000000000E+00 0.  1.
         11    1    4    4    0    0  0.28633631032E+02  0.51021000038E+02 -0.92149250814E+02  0.10915361513E+03  0.00000000000E+00 0. -1.
</event>
<event>
 8    1  0.3896452E-010  0.7687296E+02  0.7561462E-02  0.1338167E+00
          1   -1    0    0  501    0  0.00000000000E+00  0.00000000000E+00  0.49381964295E+03  0.49381964295E+03  0.00000000000E+00 0. -1.
         -1   -1    0    0    0  501 -0.00000000000E+00 -0.00000000000E+00 -0.31423034225E+02  0.31423034225E+02  0.00000000000E+00 0.  1.
         25    2    1    2    0    0  0.45467926943E+02 -0.61248863265E+02  0.23477089152E+03  0.27673866093E+03  0.12509260297E+03 0.  0.
         23    2    1    2    0    0 -0.45467926943E+02  0.61248863265E+02  0.22762571721E+03  0.24850401625E+03  0.64202985315E+02 0.  0.
          5    1    3    3  502    0  0.25761143162E+02 -0.40793559731E+02  0.24227241848E+03  0.24706506869E+03  0.41800000000E+01 0. -1.
         -5    1    3    3    0  502  0.19706783782E+02 -0.20455303534E+02 -0.75015269593E+01  0.29673592240E+02  0.41800000000E+01 0. -1.
        -11    1    4    4    0    0 -0.22624310217E+02  0.36374042191E+02  0.42568984277E+02  0.60390800462E+02  0.00000000000E+00 0.  1.
         11    1    4    4    0    0 -0.22843616726E+02  0.24874821074E+02  0.18505673293E+03  0.18811321579E+03  0.00000000000E+00 0. -1.
</event>
<event>
 8    1  0.3896452E-010  0.1381682E+03  0.7561462E-02  0.1215815E+00
         -2   -1    0    0    0  501 -0.00000000000E+00  0.00000000000E+00  0.30401126575E+02  0.30401126575E+02  0.00000000000E+00 0. -1.
          2   -1    0    0  501    0  0.00000000000E+00 -0.00000000000E+00 -0.99420074076E+03  0.99420074076E+03  0.00000000000E+00 0.  1.
         25    2    1    2    0    0 -0.85559859459E+02 -0.79541642628E+02 -0.59934448035E+03  0.62330390603E+03  0.12508633290E+03 0.  0.
         23    2    1    2    0    0  0.85559859459E+02  0.79541642628E+02 -0.36445513383E+03  0.40129796131E+03  0.12068614962E+03 0.  0.
          5    1    3    3  502    0 -0.50096104344E+02 -0.40961636346E+02 -0.88248104408E+02  0.10951107549E+03  0.41800000000E+01 0.  1.
         -5    1    3    3    0  502 -0.35463755115E+02 -0.38580006282E+02 -0.51109637594E+03  0.51379283054E+03  0.41800000000E+01 0.  1.
        -11    1    4    4    0    0 -0.66678887549E+01  0.65253541456E+02 -0.21782090299E+03  0.22748281516E+03  0.00000000000E+00 0. -1.
         11    1    4    4    0    0  0.92227748214E+02  0.14288101172E+02 -0.14663423084E+03  0.17381514614E+03  0.00000000000E+00 0.  1.
</event>
<event>
 8    1  0.3896452E-010  0.1309030E+03  0.7561462E-02  0.1226122E+00
          2   -1    0    0  501    0  0.00000000000E+00  0.00000000000E+00  0.36451470320E+03  0.36451470320E+03  0.00000000000E+00 0. -1.
         -2   -1    0    0    0  501 -0.00000000000E+00 -0.00000000000E+00 -0.51288217063E+02  0.51288217063E+02  0.00000000000E+00 0.  1.
         25    2    1    2    0    0  0.65244310588E+02  0.24096067365E+02  0.15583290603E+03  0.21158915502E+03  0.12509450585E+03 0.  0.
         23    2    1    2    0    0 -0.65244310588E+02 -0.24096067365E+02  0.15739358010E+03  0.20421376524E+03  0.10996855155E+03 0.  0.
          5    1    3    3  502    0  0.94933228632E+02  0.46292777289E+02  0.11898458719E+03  0.15915446433E+03  0.41800000000E+01 0.  1.
         -5    1    3    3    0  502 -0.29688918044E+02 -0.22196709924E+02  0.36848318841E+02  0.52434690688E+02  0.41800000000E+01 0.  1.
        -11    1    4    4    0    0 -0.88443653316E+02 -0.32353024005E+02  0.15230389857E+03  0.17906835425E+03  0.00000000000E+00 0. -1.
         11    1    4    4    0    0  0.23199342728E+02  0.82569566401E+01  0.50896815354E+01  0.25145410995E+02  0.00000000000E+00 0.  1.
</event>
<event>
 8    1  0.3896452E-010  0.9504287E+02  0.7561462E-02  0.1291080E+00
         -2   -1    0    0    0  501 -0.00000000000E+00  0.00000000000E+00  0.52290356321E+02  0.52290356321E+02  0.00000000000E+00 0.  1.
          2   -1    0    0  501    0  0.00000000000E+00 -0.00000000000E+00 -0.25536128556E+03  0.25536128556E+03  0.00000000000E+00 0. -1.
         25    2    1    2    0    0  0.43818031592E+02  0.10284867112E+02 -0.18915740278E+03  0.23119876823E+03  0.12508616638E+03 0.  0.
         23    2    1    2    0    0 -0.43818031592E+02 -0.10284867112E+02 -0.13913526457E+02  0.76452873650E+02  0.60213431116E+02 0.  0.
          5    1    3    3  502    0  0.84299231309E+02  0.30916869353E+01 -0.15899373489E+03  0.18003443855E+03  0.41800000000E+01 0. -1.
         -5    1    3    3    0  502 -0.40481199717E+02  0.71931801772E+01 -0.30163667887E+02  0.51164329684E+02  0.41800000000E+01 0. -1.
        -11    1    4    4    0    0 -0.51970178935E+02 -0.10499821378E+01 -0.26920859401E+02  0.58538317638E+02  0.00000000000E+00 0. -1.
         11    1    4    4    0    0  0.81521473432E+01 -0.92348849746E+01  0.13007332944E+02  0.17914556012E+02  0.00000000000E+00 0.  1.
</event>
<event>
 8    1  0.3896452E-010  0.2330679E+03  0.7561462E-02  0.1124499E+00
         -2   -1    0    0    0  501 -0.00000000000E+00  0.00000000000E+00  0.96367603720E+02  0.96367603720E+02  0.00000000000E+00 0.  1.
          2   -1    0    0  501    0  0.00000000000E+00 -0.00000000000E+00 -0.63890834733E+03  0.63890834733E+03  0.00000000000E+00 0. -1.
         25    2    1    2    0    0  0.19403470309E+03  0.10456943911E+03 -0.20929482888E+03  0.32868860682E+03  0.12509053223E+03 0.  0.
         23    2    1    2    0    0 -0.19403470309E+03 -0.10456943911E+03 -0.33324591473E+03  0.40658734423E+03  0.75340528308E+02 0.  0.
          5    1    3    3  502    0 -0.11616151401E+02 -0.41527874686E+01 -0.36865994111E+02  0.39099290773E+02  0.41800000000E+01 0.  1.
         -5    1    3    3    0  502  0.20565085449E+03  0.10872222658E+03 -0.17242883477E+03  0.28958931604E+03  0.41800000000E+01 0.  1.
        -11    1    4    4    0    0 -0.40132392179E+02 -0.19875460116E+02 -0.23698928427E+02  0.50668353293E+02  0.00000000000E+00 0.  1.
         11    1    4    4    0    0 -0.15390231091E+03 -0.84693978996E+02 -0.30954698630E+03  0.35591899094E+03  0.00000000000E+00 0. -1.
</event>
<event>
 8    1  0.3896452E-010  0.1103612E+03  0.7561462E-02  0.1259903E+00
         -2   -1    0    0    0  501 -0.00000000000E+00  0.00000000000E+00  0.65908112505E+02  0.65908112505E+02  0.00000000000E+00 0.  1.
          2   -1    0    0  501    0  0.00000000000E+00 -0.00000000000E+00 -0.23244433989E+03  0.23244433989E+03  0.00000000000E+00 0. -1.
         25    2    1    2    0    0  0.70326379175E+02  0.10049882621E+02 -0.82779611781E+02  0.16597194716E+03  0.12508966133E+03 0.  0.
         23    2    1    2    0    0 -0.70326379175E+02 -0.10049882621E+02 -0.83756615600E+02  0.13238050523E+03  0.73909591791E+02 0.  0.
          5    1    3    3  502    0  0.10675445515E+03  0.74550030907E+01 -0.61648565206E+02  0.12357228151E+03  0.41800000000E+01 0.  1.
         -5    1    3    3    0  502 -0.36428075971E+02  0.25948795299E+01 -0.21131046575E+02  0.42399665660E+02  0.41800000000E+01 0.  1.
        -11    1    4    4    0    0 -0.39961606407E+02 -0.20296369352E+02 -0.23373824953E+01  0.44881354174E+02  0.00000000000E+00 0.  1.
         11    1    4    4    0    0 -0.30364772768E+02  0.10246486732E+02 -0.81419233105E+02  0.87499151052E+02  0.00000000000E+00 0. -1.
</event>
<event>
 8    1  0.3896452E-010  0.1224295E+03  0.7561462E-02  0.1239142E+00
          2   -1    0    0  501    0  0.00000000000E+00  0.00000000000E+00  0.26803648704E+03  0.26803648704E+03  0.00000000000E+00 0. -1.
         -2   -1    0    0    0  501 -0.00000000000E+00 -0.00000000000E+00 -0.11119189533E+03  0.11119189533E+03  0.00000000000E+00 0.  1.
         25    2    1    2    0    0  0.48924506486E+02  0.39405642180E+02 -0.38339662155E+02  0.14513972449E+03  0.12509675439E+03 0.  0.
         23    2    1    2    0    0 -0.48924506486E+02 -0.39405642180E+02  0.19518425387E+03  0.23408865788E+03  0.11293447135E+03 0.  0.
          5    1    3    3  502    0 -0.34215228594E+02 -0.17559987832E+02 -0.55907897694E+01  0.39086626494E+02  0.41800000000E+01 0.  1.
         -5    1    3    3    0  502  0.83139735080E+02  0.56965630011E+02 -0.32748872385E+02  0.10605309799E+03  0.41800000000E+01 0.  1.
        -11    1    4    4    0    0  0.19034428187E+02 -0.31611570294E+02  0.14400514141E+03  0.14865759848E+03  0.00000000000E+00 0. -1.
         11    1    4    4    0    0 -0.67958934672E+02 -0.77940718858E+01  0.51179112459E+02  0.85431059401E+02  0.00000000000E+00 0.  1.
</event>
<event>
 8    1  0.3896452E-010  0.5719645E+02  0.7561462E-02  0.1409988E+00
         -1   -1    0    0    0  501 -0.00000000000E+00  0.00000000000E+00  0.12525858946E+02  0.12525858946E+02  0.00000000000E+00 0.  1.
          1   -1    0    0  501    0  0.00000000000E+00 -0.00000000000E+00 -0.89355269920E+03  0.89355269920E+03  0.00000000000E+00 0. -1.
         25    2    1    2    0    0  0.21548384329E+01  0.37579430241E+02 -0.50686223253E+03  0.52342517065E+03  0.12509088537E+03 0.  0.
         23    2    1    2    0    0 -0.21548384329E+01 -0.37579430241E+02 -0.37416460773E+03  0.38265338749E+03  0.70764428770E+02 0.  0.
          5    1    3    3  502    0 -0.24611884552E+00  0.17117099848E+02 -0.15653825124E+01  0.17691198492E+02  0.41800000000E+01 0. -1.
         -5    1    3    3    0  502  0.24009572785E+01  0.20462330393E+02 -0.50529685002E+03  0.50573397216E+03  0.41800000000E+01 0. -1.
        -11    1    4    4    0    0  0.10515186862E+02  0.16851201696E+02 -0.51747195981E+02  0.55428372204E+02  0.00000000000E+00 0.  1.
         11    1    4    4    0    0 -0.12670025295E+02 -0.54430631938E+02 -0.32241741174E+03  0.32722501529E+03  0.00000000000E+00 0. -1.
</event>
<event>
 7    1  0.3896452E-010  0.2985668E+03  0.7561462E-02  0.1085959E+00
         -2   -1    0    0    0  501 -0.00000000000E+00  0.00000000000E+00  0.51648055495E+02  0.51648055495E+02  0.00000000000E+00 0.  1.
          2   -1    0    0  501    0  0.00000000000E+00 -0.00000000000E+00 -0.19202222230E+04  0.19202222230E+04  0.00000000000E+00 0. -1.
         25    2    1    2    0    0  0.15029165897E+03  0.22987964831E+03 -0.11423981080E+04  0.11815893521E+04  0.12509086405E+03 0.  0.
          5    1    3    3  502    0  0.72667352446E+02  0.28746149770E+02 -0.43759665647E+03  0.44453930242E+03  0.41800000000E+01 0.  1.
         -5    1    3    3    0  502  0.77624306527E+02  0.20113349854E+03 -0.70480145155E+03  0.73705004966E+03  0.41800000000E+01 0.  1.
        -11    1    1    2    0    0 -0.89036164285E+02 -0.29636249997E+02 -0.14685931399E+03  0.17427967170E+03  0.00000000000E+00 0. -1.
         11    1    1    2    0    0 -0.61255494689E+02 -0.20024339831E+03 -0.57931674549E+03  0.61600125470E+03  0.00000000000E+00 0.  1.
</event>
<event>
 8    1  0.3896452E-010  0.9957945E+02  0.7561462E-02  0.1281183E+00
          1   -1    0    0  501    0  0.00000000000E+00  0.00000000000E+00  0.33954228868E+03  0.33954228868E+03  0.00000000000E+00 0. -1.
         -1   -1    0    0    0  501 -0.00000000000E+00 -0.00000000000E+00 -0.47257371847E+02  0.47257371847E+02  0.00000000000E+00 0.  1.
         25    2    1    2    0    0 -0.36134150376E+02  0.57035145828E+02  0.22869288122E+03  0.26926983521E+03  0.12508847089E+03 0.  0.
         23    2    1    2    0    0  0.36134150376E+02 -0.57035145828E+02  0.63592035612E+02  0.11752982532E+03  0.72184680945E+02 0.  0.
          5    1    3    3  502    0 -0.26469129193E+02  0.89606740476E+02  0.10357504888E+03  0.13955373836E+03  0.41800000000E+01 0.  1.
         -5    1    3    3    0  502 -0.96650211834E+01 -0.32571594648E+02  0.12511783234E+03  0.12971609685E+03  0.41800000000E+01 0.  1.
        -11    1    4    4    0    0  0.10313343026E+02 -0.37854383779E+02  0.73970531124E+02  0.83731468937E+02  0.00000000000E+00 0. -1.
         11    1    4    4    0    0  0.25820807350E+02 -0.19180762049E+02 -0.10378495512E+02  0.33798356381E+02  0.00000000000E+00 0.  1.
</event>
<event>
 8    1  0.3896452E-010  0.1276858E+03  0.7561462E-02  0.1230931E+00
          1   -1    0    0  501    0  0.00000000000E+00  0.00000000000E+00  0.13143345985E+03  0.13143345985E+03  0.00000000000E+00 0. -1.
         -1   -1    0    0    0  501 -0.00000000000E+00 -0.00000000000E+00 -0.17090280672E+03  0.17090280672E+03  0.00000000000E+00 0.  1.
         25    2    1    2    0    0 -0.47315175148E+02  0.78747377672E+02  0.47753855237E+02  0.16238159613E+03  0.12508987482E+03 0.  0.
         23    2    1    2    0    0  0.47315175148E+02 -0.78747377672E+02 -0.87223202108E+02  0.13995467044E+03  0.59494096357E+02 0.  0.
          5    1    3    3  502    0  0.72825034727E+01  0.96116218200E+02  0.39875584963E+02  0.10439778223E+03  0.41800000000E+01 0. -1.
         -5    1    3    3    0  502 -0.54597678620E+02 -0.17368840528E+02  0.78782702742E+01  0.57983813901E+02  0.41800000000E+01 0. -1.
        -11    1    4    4    0    0  0.51266518552E+01 -0.50297926511E+02 -0.17217805818E+02  0.53409894287E+02  0.00000000000E+00 0. -1.
         11    1    4    4    0    0  0.42188523293E+02 -0.28449451161E+02 -0.70005396290E+02  0.86544776149E+02  0.00000000000E+00 0.  1.
</event>
<event>
 7    1  0.3896452E-010  0.9904853E+02  0.7561462E-02  0.1282310E+00
         -2   -1    0    0    0  501 -0.00000000000E+00  0.00000000000E+00  0.27160493376E+02  0.27160493376E+02  0.00000000000E+00 0.  1.
          2   -1    0    0  501    0  0.00000000000E+00 -0.00000000000E+00 -0.67572002685E+03  0.67572002685E+03  0.00000000000E+00 0. -1.
         25    2    1    2    0    0 -0.61631690916E+01  0.16398816905E+02 -0.28286770992E+03  0.30978433615E+03  0.12508112470E+03 0.  0.
          5    1    3    3  502    0  0.81354498800E+01  0.52755261569E+02 -0.25752015185E+03  0.26302738294E+03  0.41800000000E+01 0.  1.
         -5    1    3    3    0  502 -0.14298618972E+02 -0.36356444664E+02 -0.25347558075E+02  0.46756953210E+02  0.41800000000E+01 0.  1.
        -11    1    1    2    0    0  0.41469599892E+02 -0.43990485850E+02 -0.33086939585E+03  0.33634721297E+03  0.00000000000E+00 0. -1.
         11    1    1    2    0    0 -0.35306430801E+02  0.27591668945E+02 -0.34822427699E+02  0.56748971108E+02  0.00000000000E+00 0.  1.
</event>
<event>
 8    1  0.3896452E-010  0.1064742E+03  0.7561462E-02  0.1267242E+00
          2   -1    0    0  501    0  0.00000000000E+00  0.00000000000E+00  0.65519402399E+02  0.65519402399E+02  0.00000000000E+00 0. -1.
         -2   -1    0    0    0  501 -0.00000000000E+00 -0.00000000000E+00 -0.31887684535E+03  0.31887684535E+03  0.00000000000E+00 0.  1.
         25    2    1    2    0    0 -0.38871069398E+02 -0.76017779564E+02 -0.12939849277E+03  0.19920497418E+03  0.12509591905E+03 0.  0.
         23    2    1    2    0    0  0.38871069398E+02  0.76017779564E+02 -0.12395895018E+03  0.18519127357E+03  0.10789033149E+03 0.  0.
          5    1    3    3  502    0  0.31106966640E+01 -0.56206507017E+02  0.52755433001E+01  0.56693488355E+02  0.41800000000E+01 0.  1.
         -5    1    3    3    0  502 -0.41981766062E+02 -0.19811272548E+02 -0.13467403607E+03  0.14251148583E+03  0.41800000000E+01 0.  1.
        -11    1    4    4    0    0  0.49913105676E+02  0.21637066049E+02 -0.11730207658E+03  0.12930296948E+03  0.00000000000E+00 0.  1.
         11    1    4    4    0    0 -0.11042036278E+02  0.54380713516E+02 -0.66568735983E+01  0.55888304087E+02  0.00000000000E+00 0. -1.
</event>
<event>
 8    1  0.3896452E-010  0.1533962E+03  0.7561462E-02  0.1196361E+00
          2   -1    0    0  501    0  0.00000000000E+00  0.00000000000E+00  0.30709665859E+03  0.30709665859E+03  0.00000000000E+00 0. -1.
         -2   -1    0    0    0  501 -0.00000000000E+00 -0.00000000000E+00 -0.83379438206E+02  0.83379438206E+02  0.00000000000E+00 0.  1.
         25    2    1    2    0    0  0.33128609462E+02  0.10618049924E+03  0.12629899689E+03  0.20969123506E+03  0.12508866559E+03 0.  0.
         23    2    1    2    0    0 -0.33128609462E+02 -0.10618049924E+03  0.97418223495E+02  0.18078486174E+03  0.10402428938E+03 0.  0.
          5    1    3    3  502    0  0.61649345104E+02  0.21497001360E+02  0.15402123296E+02  0.67212057112E+02  0.41800000000E+01 0. -1.
         -5    1    3    3    0  502 -0.28520735642E+02  0.84683497882E+02  0.11089687359E+03  0.14247917795E+03  0.41800000000E+01 0. -1.
        -11    1    4    4    0    0 -0.25915690456E+00  0.20772853523E+02  0.17883920443E+02  0.27411917412E+02  0.00000000000E+00 0. -1.
         11    1    4    4    0    0 -0.32869452558E+02 -0.12695335276E+03  0.79534303052E+02  0.15337294433E+03  0.00000000000E+00 0.  1.
</event>
<event>
 8    1  0.3896452E-010  0.1182138E+03  0.7561462E-02  0.1246073E+00
         -1   -1    0    0    0  501 -0.00000000000E+00  0.00000000000E+00  0.24547235137E+03  0.24547235137E+03  0.00000000000E+00 0.  1.
          1   -1    0    0  501    0  0.00000000000E+00 -0.00000000000E+00 -0.91026168067E+02  0.91026168067E+02  0.00000000000E+00 0. -1.
         25    2    1    2    0    0 -0.10143215134E+03  0.44532301336E+02  0.84987300339E+02  0.18746289255E+03  0.12509151721E+03 0.  0.
         23    2    1    2    0    0  0.10143215134E+03 -0.44532301336E+02  0.69458882965E+02  0.14903562689E+03  0.71522545195E+02 0.  0.
          5    1    3    3  502    0 -0.49484824158E+02  0.40281630009E+02  0.11172906397E+03  0.12873311024E+03  0.41800000000E+01 0.  1.
         -5    1    3    3    0  502 -0.51947327183E+02  0.42506713266E+01 -0.26741763626E+02  0.58729782308E+02  0.41800000000E+01 0.  1.
        -11    1    4    4    0    0  0.42817941048E+02  0.54504494440E+01 -0.30168439328E+01  0.43268751103E+02  0.00000000000E+00 0. -1.
         11    1    4    4    0    0  0.58614210292E+02 -0.49982750780E+02  0.72475726898E+02  0.10576687578E+03  0.00000000000E+00 0.  1.
</event>
<event>
 8    1  0.3896452E-010  0.1594328E+03  0.7561462E-02  0.1189339E+00
          2   -1    0    0  501    0  0.00000000000E+00  0.00000000000E+00  0.14328585481E+03  0.14328585481E+03  0.00000000000E+00 0.  1.
         -2   -1    0    0    0  501 -0.00000000000E+00 -0.00000000000E+00 -0.53817148831E+03  0.53817148831E+03  0.00000000000E+00 0. -1.
         25    2    1    2    0    0 -0.20171860744E+02  0.14323658424E+03 -0.46497200814E+03  0.50276657546E+03  0.12510650667E+03 0.  0.
         23    2    1    2    0    0  0.20171860744E+02 -0.14323658424E+03  0.70086374639E+02  0.17869076766E+03  0.78068351504E+02 0.  0.
          5    1    3    3  502    0 -0.38375014707E+02  0.12498986398E+03 -0.45716633732E+03  0.47551407995E+03  0.41800000000E+01 0.  1.
         -5    1    3    3    0  502  0.18203153963E+02  0.18246720263E+02 -0.78056708219E+01  0.27252495510E+02  0.41800000000E+01 0.  1.
        -11    1    4    4    0    0 -0.27686262336E+02 -0.53449931912E+02  0.11499357560E+02  0.61283436325E+02  0.00000000000E+00 0. -1.
         11    1    4    4    0    0  0.47858123081E+02 -0.89786652327E+02  0.58587017080E+02  0.11740733133E+03  0.00000000000E+00 0.  1.
</event>
<event>
 8    1  0.3899312E-010  0.8959515E+02  0.7561462E-02  0.1303835E+00
         -2   -1    0    0    0  501 -0.00000000000E+00  0.00000000000E+00  0.83001582195E+02  0.83001582195E+02  0.00000000000E+00 0.  1.
          2   -1    0    0  501    0  0.00000000000E+00 -0.00000000000E+00 -0.20080155941E+03  0.20080155941E+03  0.00000000000E+00 0. -1.
         25    2    1    2    0    0  0.47734315558E+02 -0.21475524747E+02 -0.34656663674E+02  0.13995887808E+03  0.12509052791E+03 0.  0.
         23    2    1    2    0    0 -0.47734315558E+02  0.21475524747E+02 -0.83143313546E+02  0.14384426353E+03  0.10506473489E+03 0.  0.
          5    1    3    3  502    0  0.43782733201E+02  0.63693403908E+00  0.41484790484E+02  0.60463159470E+02  0.41800000000E+01 0. -1.
         -5    1    3    3    0  502  0.39515823561E+01 -0.22112458786E+02 -0.76141454158E+02  0.79495718614E+02  0.41800000000E+01 0. -1.
        -11    1    4    4    0    0 -0.72205474251E+02 -0.95569683738E+01 -0.72829105156E+02  0.10300021706E+03  0.00000000000E+00 0. -1.
         11    1    4    4    0    0  0.24471158693E+02  0.31032493120E+02 -0.10314208390E+02  0.40844046467E+02  0.00000000000E+00 0.  1.
</event>
<event>
 7    1  0.3896452E-010  0.5929313E+02  0.7561462E-02  0.1400822E+00
         -1   -1    0    0    0  501 -0.00000000000E+00  0.00000000000E+00  0.33874893739E+02  0.33874893739E+02  0.00000000000E+00 0.  1.
          1   -1    0    0  501    0  0.00000000000E+00 -0.00000000000E+00 -0.21413833583E+03  0.21413833583E+03  0.00000000000E+00 0. -1.
         25    2    1    2    0    0  0.23337271957E+02 -0.23392333059E+02 -0.13172598077E+03  0.18463526432E+03  0.12508643937E+03 0.  0.
          5    1    3    3  502    0  0.42274617262E+02  0.12896858196E+02 -0.13619412242E+03  0.14324728130E+03  0.41800000000E+01 0. -1.
         -5    1    3    3    0  502 -0.18937345305E+02 -0.36289191255E+02  0.44681416527E+01  0.41387983026E+02  0.41800000000E+01 0. -1.
        -11    1    1    2    0    0 -0.12038425260E+02  0.11809759249E+02 -0.43142588175E+02  0.46321453028E+02  0.00000000000E+00 0. -1.
         11    1    1    2    0    0 -0.11298846697E+02  0.11582573810E+02 -0.53948731425E+01  0.17056512216E+02  0.00000000000E+00 0.  1.
</event>
<event>
 8    1  0.3896452E-010  0.2373742E+03  0.7561462E-02  0.1121555E+00
          1   -1    0    0  501    0  0.00000000000E+00  0.00000000000E+00  0.17047909049E+04  0.17047909049E+04  0.00000000000E+00 0. -1.
         -1   -1    0    0    0  501 -0.00000000000E+00 -0.00000000000E+00 -0.33220080150E+02  0.33220080150E+02  0.00000000000E+00 0.  1.
         25    2    1    2    0    0 -0.16399925852E+03  0.14025550831E+03  0.89174528864E+03  0.92597220629E+03  0.12508997807E+03 0.  0.
         23    2    1    2    0    0  0.16399925852E+03 -0.14025550831E+03  0.77982553610E+03  0.81203877874E+03  0.68642166553E+02 0.  0.
          5    1    3    3  502    0 -0.89894091933E+02  0.14963785626E+03  0.62262662934E+03  0.64664814834E+03  0.41800000000E+01 0. -1.
         -5    1    3    3    0  502 -0.74105166584E+02 -0.93823479537E+01  0.26911865930E+03  0.27932405795E+03  0.41800000000E+01 0. -1.
        -11    1    4    4    0    0  0.46520195451E+02 -0.59718855412E+01  0.19753207704E+03  0.20302392337E+03  0.00000000000E+00 0. -1.
         11    1    4    4    0    0  0.11747906307E+03 -0.13428362276E+03  0.58229345906E+03  0.60901485537E+03  0.00000000000E+00 0.  1.
</event>
<event>
 7    1  0.3896452E-010  0.1691674E+03  0.7561462E-02  0.1178719E+00
          1   -1    0    0  501    0  0.00000000000E+00  0.00000000000E+00  0.92306084049E+03  0.92306084049E+03  0.00000000000E+00 0. -1.
         -1   -1    0    0    0  501 -0.00000000000E+00 -0.00000000000E+00 -0.42454416488E+02  0.42454416488E+02  0.00000000000E+00 0.  1.
         25    2    1    2    0    0 -0.71473462806E+02  0.85600382985E+02  0.19667976939E+03  0.25839159918E+03  0.12508958943E+03 0.  0.
          5    1    3    3  502    0 -0.34464569878E+02  0.11397876146E+03  0.12426761255E+03  0.17215945100E+03  0.41800000000E+01 0.  1.
         -5    1    3    3    0  502 -0.37008892928E+02 -0.28378378473E+02  0.72412156842E+02  0.86232148176E+02  0.41800000000E+01 0.  1.
        -11    1    1    2    0    0  0.57178341556E+02 -0.12119412991E+03  0.60096150833E+03  0.61572080878E+03  0.00000000000E+00 0. -1.
         11    1    1    2    0    0  0.14295121250E+02  0.35593746929E+02  0.82965146276E+02  0.91402849018E+02  0.00000000000E+00 0.  1.
</event>
<event>
 7    1  0.3896452E-010  0.6349263E+02  0.7561462E-02  0.1383733E+00
         -1   -1    0    0    0  501 -0.00000000000E+00  0.00000000000E+00  0.13430667950E+02  0.13430667950E+02  0.00000000000E+00 0.  1.
          1   -1    0    0  501    0  0.00000000000E+00 -0.00000000000E+00 -0.15310242018E+04  0.15310242018E+04  0.00000000000E+00 0. -1.
         25    2    1    2    0    0  0.60793363883E+02 -0.22182224608E+01 -0.13700498997E+04  0.13770932463E+04  0.12509327564E+03 0.  0.
          5    1    3    3  502    0  0.34231245583E+02 -0.71706473222E+01 -0.13164644178E+04  0.13169355459E+04  0.41800000000E+01 0. -1.
         -5    1    3    3    0  502  0.26562118300E+02  0.49524248614E+01 -0.53585481955E+02  0.60157700396E+02  0.41800000000E+01 0. -1.
        -11    1    1    2    0    0 -0.22214195718E+02 -0.94133665238E+01 -0.14050162764E+02  0.27919330837E+02  0.00000000000E+00 0.  1.
         11    1    1    2    0    0 -0.38579168165E+02  0.11631588985E+02 -0.13349347132E+03  0.13944229260E+03  0.00000000000E+00 0. -1.
</event>
<event>
 8    1  0.3896452E-010  0.1603099E+03  0.7561462E-02  0.1188347E+00
         -2   -1    0    0    0  501 -0.00000000000E+00  0.00000000000E+00  0.53440903923E+02  0.53440903923E+02  0.00000000000E+00 0.  1.
          2   -1    0    0  501    0  0.00000000000E+00 -0.00000000000E+00 -0.67553001814E+03  0.67553001814E+03  0.00000000000E+00 0. -1.
         25    2    1    2    0    0 -0.11397443734E+03 -0.86909480557E+02 -0.26955404518E+03  0.32991788111E+03  0.12507195859E+03 0.  0.
         23    2    1    2    0    0  0.11397443734E+03  0.86909480557E+02 -0.35253506903E+03  0.39905304095E+03  0.12007882585E+03 0.  0.
          5    1    3    3  502    0 -0.66593652325E+01 -0.11558380303E+02  0.12558670241E+02  0.18791910461E+02  0.41800000000E+01 0. -1.
         -5    1    3    3    0  502 -0.10731507210E+03 -0.75351100254E+02 -0.28211271542E+03  0.31112597065E+03  0.41800000000E+01 0. -1.
        -11    1    4    4    0    0  0.25680908237E+02 -0.22993443413E+02 -0.25349276097E+02  0.42787770292E+02  0.00000000000E+00 0.  1.
         11    1    4    4    0    0  0.88293529099E+02  0.10990292397E+03 -0.32718579294E+03  0.35626527066E+03  0.00000000000E+00 0. -1.
</event>
<event>
 8    1  0.3896452E-010  0.8888417E+02  0.7561462E-02  0.1305577E+00
         -1   -1    0    0    0  501 -0.00000000000E+00  0.00000000000E+00  0.32735642512E+03  0.32735642512E+03  0.00000000000E+00 0.  1.
          1   -1    0    0  501    0  0.00000000000E+00 -0.00000000000E+00 -0.32807942405E+02  0.32807942405E+02  0.00000000000E+00 0. -1.
         25    2    1    2    0    0  0.27027569140E+02  0.97590766256E+01  0.19430667012E+03  0.23286945615E+03  0.12508945794E+03 0.  0.
         23    2    1    2    0    0 -0.27027569140E+02 -0.97590766256E+01  0.10024181260E+03  0.12729491137E+03  0.73005783318E+02 0.  0.
          5    1    3    3  502    0  0.39463296762E+02 -0.46294242539E+02  0.54918414293E+02  0.82061034067E+02  0.41800000000E+01 0. -1.
         -5    1    3    3    0  502 -0.12435727622E+02  0.56053319165E+02  0.13938825582E+03  0.15080842209E+03  0.41800000000E+01 0. -1.
        -11    1    4    4    0    0 -0.33976501822E+02 -0.25193772927E+02  0.22853664168E+02  0.48077217435E+02  0.00000000000E+00 0. -1.
         11    1    4    4    0    0  0.69489326816E+01  0.15434696301E+02  0.77388148428E+02  0.79217693936E+02  0.00000000000E+00 0.  1.
</event>
<event>
 7    1  0.3896452E-010  0.1709969E+03  0.7561462E-02  0.1176812E+00
         -1   -1    0    0    0  501 -0.00000000000E+00  0.00000000000E+00  0.10074211077E+03  0.10074211077E+03  0.00000000000E+00 0.  1.
          1   -1    0    0  501    0  0.00000000000E+00 -0.00000000000E+00 -0.31559145029E+03  0.31559145029E+03  0.00000000000E+00 0. -1.
         25    2    1    2    0    0 -0.64160346197E+02 -0.31567031309E+02 -0.13266955137E+03  0.19586404180E+03  0.12509390679E+03 0.  0.
          5    1    3    3  502    0  0.23744325429E+02 -0.46713228644E+02 -0.33117102895E+02  0.62129973640E+02  0.41800000000E+01 0. -1.
         -5    1    3    3    0  502 -0.87904671626E+02  0.15146197334E+02 -0.99552448480E+02  0.13373406816E+03  0.41800000000E+01 0. -1.
        -11    1    1    2    0    0 -0.56746627891E+02  0.52635049735E+02 -0.54489101383E+02  0.94655641180E+02  0.00000000000E+00 0.  1.
         11    1    1    2    0    0  0.12090697409E+03 -0.21068018426E+02 -0.27690686763E+02  0.12581387808E+03  0.00000000000E+00 0. -1.
</event>
<event>
 8    1  0.3896452E-010  0.9748919E+02  0.7561462E-02  0.1285666E+00
         -1   -1    0    0    0  501 -0.00000000000E+00  0.00000000000E+00  0.21695289719E+02  0.21695289719E+02  0.00000000000E+00 0.  1.
          1   -1    0    0  501    0  0.00000000000E+00 -0.00000000000E+00 -0.54859907298E+03  0.54859907298E+03  0.00000000000E+00 0. -1.
         25    2    1    2    0    0 -0.29012914055E+02  0.35150934047E+02 -0.34292240370E+03  0.36785914227E+03  0.12508891337E+03 0.  0.
         23    2    1    2    0    0  0.29012914055E+02 -0.35150934047E+02 -0.18398137956E+03  0.20243522043E+03  0.71088206458E+02 0.  0.
          5    1    3    3  502    0  0.44255121284E+02  0.27182928251E+02 -0.20392092097E+03  0.21047242517E+03  0.41800000000E+01 0. -1.
         -5    1    3    3    0  502 -0.73268035339E+02  0.79680057960E+01 -0.13900148273E+03  0.15738671710E+03  0.41800000000E+01 0. -1.
        -11    1    4    4    0    0 -0.14742728658E+02 -0.14473338857E+02 -0.12230768924E+03  0.12404030165E+03  0.00000000000E+00 0.  1.
         11    1    4    4    0    0  0.43755642713E+02 -0.20677595189E+02 -0.61673690316E+02  0.78394918772E+02  0.00000000000E+00 0. -1.
</event>
<event>
 8    1  0.3896452E-010  0.1252743E+03  0.7561462E-02  0.1234641E+00
         -2   -1    0    0    0  501 -0.00000000000E+00  0.00000000000E+00  0.21705623248E+03  0.21705623248E+03  0.00000000000E+00 0.  1.
          2   -1    0    0  501    0  0.00000000000E+00 -0.00000000000E+00 -0.14478527725E+03  0.14478527725E+03  0.00000000000E+00 0. -1.
         25    2    1    2    0    0 -0.63101886610E+02  0.10587816920E+03 -0.11985214951E+02  0.17602177796E+03  0.12509191073E+03 0.  0.
         23    2    1    2    0    0  0.63101886610E+02 -0.10587816920E+03  0.84256170177E+02  0.18581973178E+03  0.11062475174E+03 0.  0.
          5    1    3    3  502    0 -0.57677591876E+02  0.90391555638E+02 -0.61507165684E+02  0.12368484857E+03  0.41800000000E+01 0. -1.
         -5    1    3    3    0  502 -0.54242947343E+01  0.15486613566E+02  0.49521950734E+02  0.52336929386E+02  0.41800000000E+01 0. -1.
        -11    1    4    4    0    0  0.41933122913E+02 -0.43431136144E+02  0.10111038745E+03  0.11776230651E+03  0.00000000000E+00 0.  1.
         11    1    4    4    0    0  0.21168763697E+02 -0.62447033060E+02 -0.16854217271E+02  0.68057425269E+02  0.00000000000E+00 0. -1.
</event>
<event>
 8    1  0.3896452E-010  0.9547033E+02  0.7561462E-02  0.1290120E+00
         -1   -1    0    0    0  501 -0.00000000000E+00  0.00000000000E+00  0.27876796047E+03  0.27876796047E+03  0.00000000000E+00 0.  1.
          1   -1    0    0  501    0  0.00000000000E+00 -0.00000000000E+00 -0.62047910635E+02  0.62047910635E+02  0.00000000000E+00 0. -1.
         25    2    1    2    0    0  0.80916543130E+02  0.28902967177E+01  0.14038814218E+03  0.20472472230E+03  0.12509013025E+03 0.  0.
         23    2    1    2    0    0 -0.80916543130E+02 -0.28902967177E+01  0.76331907654E+02  0.13609114881E+03  0.78347941204E+02 0.  0.
          5    1    3    3  502    0  0.34001178775E+02 -0.12635598660E+02 -0.16585165230E+02  0.40103349202E+02  0.41800000000E+01 0. -1.
         -5    1    3    3    0  502  0.46915364355E+02  0.15525895377E+02  0.15697330741E+03  0.16462137309E+03  0.41800000000E+01 0. -1.
        -11    1    4    4    0    0  0.10496714697E+00  0.20502233082E+02 -0.24972359097E+01  0.20654025435E+02  0.00000000000E+00 0. -1.
         11    1    4    4    0    0 -0.81021510277E+02 -0.23392529800E+02  0.78829143564E+02  0.11543712337E+03  0.00000000000E+00 0.  1.
</event>
<event>
 8    1  0.3896452E-010  0.1368980E+03  0.7561462E-02  0.1217565E+00
          2   -1    0    0  501    0  0.00000000000E+00  0.00000000000E+00  0.16634628366E+03  0.16634628366E+03  0.00000000000E+00 0. -1.
         -2   -1    0    0    0  501 -0.00000000000E+00 -0.00000000000E+00 -0.26318743274E+03  0.26318743274E+03  0.00000000000E+00 0.  1.
         25    2    1    2    0    0  0.66726683004E+02 -0.85628200390E+02  0.88402079951E+02  0.18774214924E+03  0.12509015922E+03 0.  0.
         23    2    1    2    0    0 -0.66726683004E+02  0.85628200390E+02 -0.18524322903E+03  0.24179156716E+03  0.11119113779E+03 0.  0.
          5    1    3    3  502    0  0.53113994832E+02 -0.11812178670E+03  0.62834442866E+02  0.14401212640E+03  0.41800000000E+01 0.  1.
         -5    1    3    3    0  502  0.13612688172E+02  0.32493586313E+02  0.25567637085E+02  0.43730022831E+02  0.41800000000E+01 0.  1.
        -11    1    4    4    0    0 -0.62924646869E+01  0.11374861916E+02  0.14993615470E+02  0.19844170436E+02  0.00000000000E+00 0. -1.
         11    1    4    4    0    0 -0.60434218317E+02  0.74253338474E+02 -0.20023684450E+03  0.22194739672E+03  0.00000000000E+00 0.  1.
</event>
<event>
 8    1  0.3896452E-010  0.1636081E+03  0.7561462E-02  0.1184682E+00
          1   -1    0    0  501    0  0.00000000000E+00  0.00000000000E+00  0.10514095754E+04  0.10514095754E+04  0.00000000000E+00 0. -1.
         -1   -1    0    0    0  501 -0.00000000000E+00 -0.00000000000E+00 -0.28711527441E+02  0.28711527441E+02  0.00000000000E+00 0.  1.
         25    2    1    2    0    0  0.11713053616E+03 -0.42540087487E+02  0.51768401754E+03  0.54696598291E+03  0.12508326384E+03 0.  0.
         23    2    1    2    0    0 -0.11713053616E+03  0.42540087487E+02  0.50501403039E+03  0.53315511991E+03  0.11698713368E+03 0.  0.
          5    1    3    3  502    0  0.98542809713E+02 -0.76373945168E+02  0.28557508430E+03  0.31163161910E+03  0.41800000000E+01 0. -1.
         -5    1    3    3    0  502  0.18587726449E+02  0.33833857681E+02  0.23210893324E+03  0.23533436381E+03  0.41800000000E+01 0. -1.
        -11    1    4    4    0    0 -0.99390405641E+02 -0.17603640325E+02  0.38161052708E+03  0.39473400571E+03  0.00000000000E+00 0. -1.
         11    1    4    4    0    0 -0.17740130520E+02  0.60143727812E+02  0.12340350331E+03  0.13842111419E+03  0.00000000000E+00 0.  1.
</event>
<event>
 8    1  0.3896452E-010  0.1646155E+03  0.7561462E-02  0.1183582E+00
          2   -1    0    0  501    0  0.00000000000E+00  0.00000000000E+00  0.11106728838E+03  0.11106728838E+03  0.00000000000E+00 0. -1.
         -2   -1    0    0    0  501 -0.00000000000E+00 -0.00000000000E+00 -0.33390626825E+03  0.33390626825E+03  0.00000000000E+00 0.  1.
         25    2    1    2    0    0 -0.85159861383E+02  0.13283556574E+03 -0.74502470022E+02  0.21469699613E+03  0.12508674027E+03 0.  0.
         23    2    1    2    0    0  0.85159861383E+02 -0.13283556574E+03 -0.14833650985E+03  0.23027656051E+03  0.78269308468E+02 0.  0.
          5    1    3    3  502    0  0.31011048695E+01  0.47813397366E+02  0.27317277205E+02  0.55312239631E+02  0.41800000000E+01 0.  1.
         -5    1    3    3    0  502 -0.88260966253E+02  0.85022168369E+02 -0.10181974723E+03  0.15938475650E+03  0.41800000000E+01 0.  1.
        -11    1    4    4    0    0  0.30092542757E+02 -0.60805250448E+02 -0.11529515103E+03  0.13377522739E+03  0.00000000000E+00 0. -1.
         11    1    4    4    0    0  0.55067318627E+02 -0.72030315287E+02 -0.33041358827E+02  0.96501333121E+02  0.00000000000E+00 0.  1.
</event>
